Ngambia, Erastova, 2025, UoE, github.com/Erastova-group/Mn_Biochar
111548
    1SBC   C058    1   8.165   2.308  10.650
    1SBC   C05A    2   8.075   2.349  10.757
    1SBC   C06Q    3   8.058   2.276  10.874
    1SBC   C06R    4   7.971   2.319  10.983
    1SBC   C06S    5   7.891   2.429  10.961
    1SBC   C06T    6   7.810   2.466  11.074
    1SBC   C06U    7   7.726   2.589  11.086
    1SBC   C06X    8   7.714   2.708  11.011
    1SBC   C060    9   7.619   2.796  11.071
    1SBC   C05Z   10   7.629   2.940  11.090
    1SBC   C068   11   7.543   2.956  11.217
    1SBC   C067   12   7.462   3.068  11.267
    1SBC   C069   13   7.467   3.192  11.190
    1SBC   C06A   14   7.378   3.308  11.204
    1SBC   C073   15   7.241   3.315  11.230
    1SBC   C07P   16   7.159   3.402  11.151
    1SBC   C07O   17   7.198   3.463  11.032
    1SBC   H00D   18   7.295   3.446  10.987
    1SBC   C07N   19   7.116   3.543  10.953
    1SBC   H00E   20   7.149   3.578  10.856
    1SBC   C07M   21   6.993   3.582  11.007
    1SBC   H00F   22   6.926   3.650  10.956
    1SBC   C07L   23   6.952   3.533  11.132
    1SBC   C07Q   24   6.830   3.564  11.195
    1SBC   H00G   25   6.771   3.642  11.149
    1SBC   O00F   26   6.788   3.512  11.309
    1SBC   C07J   27   6.868   3.418  11.373
    1SBC   C07I   28   6.989   3.383  11.321
    1SBC   N004   29   7.076   3.299  11.399
    1SBC   C07R   30   7.037   3.268  11.531
    1SBC   C07T   31   6.900   3.290  11.571
    1SBC   C0FX   32   6.854   3.248  11.691
    1SBC   C0FW   33   6.724   3.256  11.729
    1SBC   C0G0   34   6.635   3.330  11.646
    1SBC   C0G2   35   6.501   3.336  11.677
    1SBC   H01E   36   6.437   3.394  11.613
    1SBC   C0G3   37   6.446   3.251  11.774
    1SBC   H01C   38   6.343   3.244  11.806
    1SBC   C0G4   39   6.535   3.175  11.857
    1SBC   H01D   40   6.494   3.114  11.936
    1SBC   O00E   41   6.691   3.399  11.537
    1SBC   C0FV   42   6.671   3.182  11.842
    1SBC   C0FU   43   6.770   3.110  11.918
    1SBC   H01B   44   6.737   3.041  11.994
    1SBC   C0FT   45   6.909   3.122  11.889
    1SBC   C0FS   46   7.032   3.049  11.920
    1SBC   C0BI   47   7.143   3.115  11.857
    1SBC   C0BH   48   7.257   3.032  11.850
    1SBC   C07F   49   7.311   2.987  11.732
    1SBC   C07E   50   7.320   3.047  11.609
    1SBC   C07G   51   7.245   3.154  11.566
    1SBC   C074   52   7.277   3.164  11.432
    1SBC   C065   53   7.388   2.991  11.505
    1SBC   C064   54   7.452   2.866  11.529
    1SBC   C063   55   7.523   2.783  11.434
    1SBC   C075   56   7.548   2.660  11.509
    1SBC   C0AM   57   7.504   2.662  11.649
    1SBC   C0AN   58   7.516   2.562  11.757
    1SBC   C0AO   59   7.584   2.425  11.756
    1SBC   C0B1   60   7.586   2.341  11.877
    1SBC   C0B0   61   7.524   2.379  11.994
    1SBC   C0AZ   62   7.517   2.310  12.111
    1SBC   C0AY   63   7.442   2.351  12.219
    1SBC   N007   64   7.422   2.275  12.330
    1SBC   C0E2   65   7.342   2.322  12.439
    1SBC   C0E1   66   7.337   2.239  12.552
    1SBC   C0E4   67   7.258   2.282  12.661
    1SBC   C0FF   68   7.234   2.206  12.776
    1SBC   C0FJ   69   7.185   2.240  12.905
    1SBC   C0FK   70   7.217   2.371  12.952
    1SBC   H016   71   7.246   2.462  12.901
    1SBC   C0FL   72   7.236   2.361  13.097
    1SBC   H017   73   7.274   2.433  13.168
    1SBC   C0FM   74   7.210   2.225  13.130
    1SBC   C0FH   75   7.274   2.122  13.216
    1SBC   C0FI   76   7.272   2.006  13.133
    1SBC   C0F3   77   7.377   1.909  13.150
    1SBC   C0F2   78   7.402   1.842  13.037
    1SBC   C0DW   79   7.372   1.883  12.906
    1SBC   C0FE   80   7.292   1.988  12.885
    1SBC   C0DV   81   7.458   1.849  12.799
    1SBC   C0DX   82   7.462   1.922  12.686
    1SBC   C0DK   83   7.548   1.886  12.582
    1SBC   C0DJ   84   7.634   1.778  12.600
    1SBC   C0DI   85   7.726   1.743  12.496
    1SBC   C0DH   86   7.729   1.814  12.381
    1SBC   C0DG   87   7.648   1.921  12.361
    1SBC   C0BV   88   7.657   2.000  12.244
    1SBC   C0BC   89   7.571   2.110  12.227
    1SBC   C0BA   90   7.747   1.966  12.145
    1SBC   C0B4   91   7.749   2.041  12.029
    1SBC   C0B3   92   7.660   2.147  12.008
    1SBC   C0B5   93   7.831   1.998  11.924
    1SBC   C0BU   94   7.924   1.895  11.942
    1SBC   C0BT   95   7.930   1.829  12.066
    1SBC   C0BS   96   8.034   1.729  12.094
    1SBC   C0CC   97   8.026   1.654  12.216
    1SBC   C0CB   98   8.112   1.549  12.240
    1SBC   C0CH   99   8.066   1.449  12.327
    1SBC   C0DO  100   7.967   1.478  12.427
    1SBC   C0DP  101   7.968   1.406  12.549
    1SBC   C0EA  102   8.054   1.291  12.565
    1SBC   H012  103   8.112   1.243  12.488
    1SBC   O009  104   8.068   1.234  12.691
    1SBC   C0EH  105   8.032   1.315  12.795
    1SBC   C0EG  106   8.097   1.309  12.918
    1SBC   C0EJ  107   8.194   1.219  12.979
    1SBC   H010  108   8.233   1.129  12.936
    1SBC   C0EK  109   8.224   1.262  13.114
    1SBC   H00Z  110   8.282   1.210  13.189
    1SBC   C0EL  111   8.140   1.374  13.139
    1SBC   C0EM  112   8.108   1.440  13.258
    1SBC   C0EW  113   8.168   1.431  13.386
    1SBC   H013  114   8.256   1.371  13.403
    1SBC   C0EX  115   8.133   1.522  13.494
    1SBC   H014  116   8.181   1.530  13.590
    1SBC   C0F1  117   8.016   1.605  13.474
    1SBC   C0EU  118   7.958   1.607  13.349
    1SBC   C0ET  119   7.848   1.684  13.310
    1SBC   C0ES  120   7.824   1.653  13.179
    1SBC   C0EE  121   7.923   1.559  13.137
    1SBC   C0ED  122   7.953   1.485  13.020
    1SBC   C0EC  123   7.884   1.495  12.898
    1SBC   C0EB  124   7.770   1.580  12.876
    1SBC   C0EN  125   7.679   1.630  12.980
    1SBC   C0ER  126   7.560   1.690  12.940
    1SBC   C0DS  127   7.731   1.610  12.743
    1SBC   C0DR  128   7.807   1.565  12.634
    1SBC   C0EY  129   7.692   1.652  13.121
    1SBC   C0EZ  130   7.585   1.737  13.168
    1SBC   C0F5  131   7.567   1.831  13.280
    1SBC   C0F6  132   7.658   1.839  13.388
    1SBC   N008  133   7.623   1.937  13.487
    1SBC   C0F7  134   7.511   2.030  13.471
    1SBC   C0FQ  135   7.492   2.124  13.575
    1SBC   H018  136   7.403   2.183  13.564
    1SBC   C0FP  137   7.567   2.135  13.687
    1SBC   H019  138   7.546   2.213  13.759
    1SBC   C0FO  139   7.664   2.040  13.711
    1SBC   H01A  140   7.724   2.045  13.800
    1SBC   C0F8  141   7.441   2.021  13.349
    1SBC   C0F9  142   7.697   1.944  13.611
    1SBC   C0FA  143   7.805   1.864  13.645
    1SBC   H015  144   7.853   1.863  13.742
    1SBC   C0FB  145   7.848   1.776  13.537
    1SBC   C0FD  146   7.778   1.761  13.417
    1SBC   C0FC  147   7.962   1.690  13.570
    1SBC   O00A  148   8.016   1.689  13.678
    1SBC   C0EV  149   8.004   1.532  13.249
    1SBC   C0EF  150   8.060   1.390  13.025
    1SBC   C0EI  151   7.933   1.420  12.788
    1SBC   C0DQ  152   7.890   1.453  12.654
    1SBC   C0CE  153   7.891   1.593  12.413
    1SBC   H00U  154   8.134   1.367  12.341
    1SBC   C0CA  155   8.235   1.557  12.168
    1SBC   C0C9  156   8.242   1.624  12.041
    1SBC   C0C8  157   8.367   1.619  11.969
    1SBC   C0C7  158   8.405   1.648  11.833
    1SBC   C0C6  159   8.537   1.642  11.807
    1SBC   C0C5  160   8.624   1.620  11.694
    1SBC   C0CQ  161   8.755   1.574  11.725
    1SBC   C0D1  162   8.777   1.507  11.847
    1SBC   C0D8  163   8.856   1.403  11.851
    1SBC   C0D7  164   8.914   1.415  11.724
    1SBC   C0D6  165   9.032   1.345  11.689
    1SBC   C0D5  166   9.096   1.371  11.568
    1SBC   C0D4  167   9.062   1.453  11.457
    1SBC   C0D3  168   9.101   1.390  11.334
    1SBC   C0CX  169   9.027   1.445  11.222
    1SBC   C0CW  170   8.906   1.512  11.274
    1SBC   C0CV  171   8.791   1.587  11.231
    1SBC   C0D2  172   8.774   1.626  11.092
    1SBC   C09D  173   8.849   1.578  10.983
    1SBC   C09C  174   8.821   1.624  10.853
    1SBC   C09B  175   8.894   1.598  10.736
    1SBC   C09A  176   9.010   1.519  10.755
    1SBC   C099  177   9.041   1.460  10.868
    1SBC   C098  178   9.176   1.422  10.869
    1SBC   C08Y  179   9.239   1.481  10.753
    1SBC   C08X  180   9.377   1.496  10.716
    1SBC   C08W  181   9.483   1.462  10.812
    1SBC   C08U  182   9.471   1.435  10.957
    1SBC   C08V  183   9.355   1.424  11.047
    1SBC   C0DC  184   9.402   1.376  11.170
    1SBC   H00W  185   9.333   1.363  11.252
    1SBC   C0DB  186   9.539   1.347  11.166
    1SBC   H00X  187   9.599   1.296  11.240
    1SBC   C08T  188   9.580   1.382  11.035
    1SBC   C08S  189   9.713   1.376  10.978
    1SBC   H00N  190   9.790   1.338  11.044
    1SBC   C08R  191   9.734   1.423  10.851
    1SBC   C08Q  192   9.859   1.427  10.791
    1SBC   H00O  193   9.936   1.384  10.853
    1SBC   C08P  194   9.894   1.475  10.661
    1SBC   C08O  195  10.026   1.479  10.605
    1SBC   H00P  196  10.112   1.442  10.659
    1SBC   C08N  197  10.042   1.534  10.472
    1SBC   C08M  198  10.173   1.530  10.422
    1SBC   O008  199  10.275   1.499  10.487
    1SBC   O007  200  10.186   1.583  10.295
    1SBC   C08H  201  10.084   1.647  10.224
    1SBC   C08G  202  10.100   1.718  10.100
    1SBC   C03V  203  10.220   1.741  10.030
    1SBC   H009  204  10.315   1.710  10.070
    1SBC   C03U  205  10.227   1.805   9.904
    1SBC   C03W  206  10.349   1.818   9.824
    1SBC   H00A  207  10.433   1.755   9.845
    1SBC   C03X  208  10.343   1.886   9.711
    1SBC   H00B  209  10.435   1.894   9.655
    1SBC   O005  210  10.238   1.965   9.673
    1SBC   C03O  211  10.120   1.938   9.737
    1SBC   C03N  212   9.999   2.004   9.698
    1SBC   O000  213  10.022   2.113   9.617
    1SBC   C019  214   9.923   2.200   9.595
    1SBC   C018  215   9.790   2.175   9.643
    1SBC   C017  216   9.770   2.061   9.723
    1SBC   C016  217   9.645   2.043   9.782
    1SBC   C015  218   9.546   2.128   9.741
    1SBC   C014  219   9.418   2.118   9.798
    1SBC   C013  220   9.387   2.023   9.897
    1SBC   C012  221   9.243   2.049   9.922
    1SBC   C011  222   9.205   2.147   9.825
    1SBC   C010  223   9.075   2.176   9.813
    1SBC   C00Z  224   9.020   2.271   9.732
    1SBC   C00Y  225   8.883   2.272   9.770
    1SBC   C01O  226   8.852   2.173   9.860
    1SBC   C01P  227   8.747   2.192   9.954
    1SBC   C02L  228   8.769   2.126  10.072
    1SBC   C02K  229   8.890   2.056  10.093
    1SBC   C01M  230   9.011   2.056  10.011
    1SBC   C02J  231   8.879   1.972  10.200
    1SBC   C02I  232   8.971   1.874  10.236
    1SBC   C02H  233   9.099   1.840  10.186
    1SBC   C01Q  234   9.182   1.903  10.097
    1SBC   C02G  235   9.314   1.841  10.100
    1SBC   C089  236   9.302   1.738  10.195
    1SBC   C088  237   9.427   1.713  10.249
    1SBC   C087  238   9.517   1.770  10.151
    1SBC   C086  239   9.654   1.744  10.148
    1SBC   C03S  240   9.747   1.791  10.054
    1SBC   N006  241   9.869   1.747  10.092
    1SBC   C08F  242   9.857   1.676  10.207
    1SBC   C01J  243   9.741   1.871   9.936
    1SBC   C03R  244   9.866   1.895   9.873
    1SBC   C03Q  245   9.990   1.836   9.918
    1SBC   C08E  246   9.729   1.678  10.248
    1SBC   C08D  247   9.695   1.623  10.375
    1SBC   C08K  248   9.801   1.572  10.451
    1SBC   C08C  249   9.574   1.624  10.440
    1SBC   C091  250   9.556   1.566  10.566
    1SBC   C092  251   9.661   1.520  10.644
    1SBC   C08B  252   9.448   1.666  10.392
    1SBC   C090  253   9.349   1.600  10.481
    1SBC   C094  254   9.203   1.598  10.455
    1SBC   C095  255   9.110   1.582  10.557
    1SBC   C09R  256   8.987   1.641  10.524
    1SBC   C097  257   9.004   1.714  10.407
    1SBC   C096  258   9.128   1.684  10.363
    1SBC   C01I  259   9.447   1.855  10.056
    1SBC   C08A  260   9.174   1.744  10.250
    1SBC   C09L  261   8.919   1.813  10.345
    1SBC   C09K  262   8.795   1.869  10.382
    1SBC   C09J  263   8.727   1.841  10.499
    1SBC   C09I  264   8.620   1.923  10.557
    1SBC   C09O  265   8.546   2.042  10.514
    1SBC   C09N  266   8.566   2.105  10.390
    1SBC   C09M  267   8.663   2.077  10.290
    1SBC   C06O  268   8.471   2.203  10.367
    1SBC   C05M  269   8.368   2.235  10.458
    1SBC   C06P  270   8.351   2.161  10.573
    1SBC   C042  271   8.285   2.346  10.444
    1SBC   C041  272   8.299   2.425  10.326
    1SBC   C040  273   8.233   2.547  10.316
    1SBC   C03Z  274   8.256   2.633  10.208
    1SBC   C03Y  275   8.344   2.592  10.105
    1SBC   C027  276   8.371   2.684  10.004
    1SBC   C026  277   8.451   2.648   9.896
    1SBC   C028  278   8.493   2.740   9.797
    1SBC   C029  279   8.456   2.872   9.807
    1SBC   C02B  280   8.513   2.964   9.719
    1SBC   C02C  281   8.496   3.098   9.746
    1SBC   C02X  282   8.552   3.191   9.660
    1SBC   C03E  283   8.529   3.325   9.690
    1SBC   C03G  284   8.462   3.373   9.796
    1SBC   C04Q  285   8.401   3.278   9.879
    1SBC   C04R  286   8.329   3.315   9.985
    1SBC   C04S  287   8.262   3.223  10.066
    1SBC   C04L  288   8.278   3.086  10.042
    1SBC   C04M  289   8.357   3.049   9.938
    1SBC   C04K  290   8.230   2.995  10.128
    1SBC   C04F  291   8.156   3.036  10.234
    1SBC   C04E  292   8.143   3.168  10.266
    1SBC   C04D  293   8.067   3.209  10.374
    1SBC   C050  294   8.059   3.344  10.406
    1SBC   C051  295   7.990   3.382  10.521
    1SBC   C05Q  296   7.972   3.521  10.545
    1SBC   C05V  297   7.896   3.561  10.659
    1SBC   N005  298   7.878   3.700  10.682
    1SBC   C07V  299   7.919   3.794  10.585
    1SBC   C082  300   7.901   3.930  10.612
    1SBC   C081  301   7.849   3.976  10.733
    1SBC   C07C  302   7.795   3.880  10.820
    1SBC   C07B  303   7.734   3.925  10.940
    1SBC   C080  304   7.726   4.059  10.971
    1SBC   C07Z  305   7.650   4.097  11.080
    1SBC   H00L  306   7.634   4.203  11.096
    1SBC   C079  307   7.579   4.010  11.156
    1SBC   C078  308   7.592   3.873  11.127
    1SBC   C077  309   7.510   3.783  11.191
    1SBC   C07X  310   7.429   3.826  11.300
    1SBC   H00I  311   7.368   3.765  11.365
    1SBC   C07Y  312   7.417   3.964  11.332
    1SBC   H00H  313   7.353   3.999  11.411
    1SBC   C076  314   7.527   3.650  11.163
    1SBC   C06C  315   7.431   3.560  11.206
    1SBC   H00C  316   7.340   3.577  11.263
    1SBC   C06F  317   7.623   3.607  11.074
    1SBC   C06E  318   7.644   3.474  11.048
    1SBC   C06G  319   7.724   3.417  10.948
    1SBC   C06H  320   7.786   3.507  10.865
    1SBC   C06I  321   7.770   3.647  10.887
    1SBC   C06L  322   7.729   3.280  10.918
    1SBC   C06M  323   7.654   3.186  10.999
    1SBC   C06K  324   7.799   3.234  10.807
    1SBC   C05S  325   7.861   3.330  10.727
    1SBC   C05U  326   7.801   3.097  10.771
    1SBC   C05X  327   7.752   3.001  10.871
    1SBC   C05G  328   7.797   2.869  10.839
    1SBC   C05F  329   7.857   2.844  10.718
    1SBC   C05E  330   7.891   2.706  10.707
    1SBC   C048  331   7.966   2.663  10.601
    1SBC   C056  332   8.020   2.539  10.615
    1SBC   C045  333   8.112   2.500  10.519
    1SBC   C047  334   7.999   2.758  10.504
    1SBC   C049  335   7.963   2.892  10.514
    1SBC   C04B  336   8.018   2.984  10.429
    1SBC   C046  337   8.092   2.714  10.408
    1SBC   C04H  338   8.131   2.805  10.310
    1SBC   C05D  339   7.859   2.637  10.823
    1SBC   C04A  340   7.897   2.936  10.626
    1SBC   C05T  341   7.871   3.064  10.656
    1SBC   C055  342   7.925   3.158  10.569
    1SBC   C06D  343   7.568   3.381  11.115
    1SBC   C07W  344   7.693   3.692  10.995
    1SBC   C085  345   7.489   4.055  11.258
    1SBC   H00M  346   7.463   4.156  11.282
    1SBC   C084  347   7.798   4.151  10.895
    1SBC   H00J  348   7.813   4.254  10.923
    1SBC   C07A  349   7.676   3.829  11.024
    1SBC   C083  350   7.844   4.111  10.774
    1SBC   H00K  351   7.892   4.182  10.709
    1SBC   O00K  352   7.937   4.016  10.513
    1SBC   C0GO  353   7.991   3.973  10.392
    1SBC   C0GN  354   8.029   4.065  10.290
    1SBC   H01L  355   7.999   4.168  10.292
    1SBC   C0GM  356   8.116   4.027  10.183
    1SBC   C0GL  357   8.166   4.126  10.105
    1SBC   H01M  358   8.137   4.229  10.112
    1SBC   O00J  359   8.256   4.091  10.005
    1SBC   C0GK  360   8.286   3.959   9.997
    1SBC   H01N  361   8.348   3.938   9.910
    1SBC   C05K  362   8.237   3.865  10.082
    1SBC   C05J  363   8.280   3.730  10.061
    1SBC   C04Y  364   8.376   3.682   9.965
    1SBC   C04X  365   8.376   3.551   9.930
    1SBC   O006  366   8.460   3.762   9.898
    1SBC   C053  367   8.515   3.735   9.775
    1SBC   C04O  368   8.515   3.606   9.737
    1SBC   C03C  369   8.585   3.551   9.624
    1SBC   C03B  370   8.666   3.603   9.514
    1SBC   C054  371   8.704   3.736   9.501
    1SBC   C0GR  372   8.776   3.784   9.390
    1SBC   C03M  373   8.845   3.720   9.275
    1SBC   C03I  374   8.872   3.581   9.259
    1SBC   C03J  375   8.967   3.543   9.158
    1SBC   N002  376   9.010   3.404   9.147
    1SBC   C02U  377   9.119   3.362   9.064
    1SBC   C02T  378   9.164   3.232   9.061
    1SBC   C02Z  379   9.266   3.202   8.976
    1SBC   N001  380   9.315   3.069   8.973
    1SBC   C02R  381   9.425   3.033   8.886
    1SBC   C032  382   9.468   3.126   8.788
    1SBC   C031  383   9.413   3.253   8.798
    1SBC   H007  384   9.451   3.317   8.720
    1SBC   C033  385   9.572   3.077   8.695
    1SBC   H003  386   9.599   3.144   8.615
    1SBC   O004  387   9.629   2.953   8.702
    1SBC   C034  388   9.575   2.867   8.797
    1SBC   C035  389   9.633   2.742   8.797
    1SBC   C036  390   9.577   2.640   8.873
    1SBC   H005  391   9.612   2.538   8.868
    1SBC   C037  392   9.473   2.678   8.962
    1SBC   H006  393   9.427   2.610   9.033
    1SBC   C00D  394   9.423   2.809   8.970
    1SBC   C00C  395   9.327   2.848   9.066
    1SBC   C00B  396   9.265   2.755   9.172
    1SBC   C00A  397   9.289   2.627   9.253
    1SBC   C009  398   9.162   2.600   9.323
    1SBC   C008  399   9.125   2.504   9.425
    1SBC   C007  400   9.233   2.439   9.482
    1SBC   C006  401   9.208   2.357   9.592
    1SBC   C005  402   9.319   2.288   9.643
    1SBC   C004  403   9.450   2.310   9.594
    1SBC   C003  404   9.474   2.411   9.505
    1SBC   C002  405   9.610   2.442   9.468
    1SBC   C01C  406   9.716   2.375   9.530
    1SBC   C01B  407   9.851   2.419   9.507
    1SBC   H000  408   9.893   2.505   9.457
    1SBC   C001  409   9.628   2.537   9.377
    1SBC   C000  410   9.522   2.608   9.320
    1SBC   C01U  411   9.585   2.696   9.230
    1SBC   H002  412   9.555   2.784   9.175
    1SBC   C01T  413   9.723   2.657   9.208
    1SBC   O002  414   9.799   2.679   9.119
    1SBC   O001  415   9.746   2.563   9.308
    1SBC   C01S  416   9.365   2.479   9.444
    1SBC   C00N  417   8.999   2.515   9.485
    1SBC   C00M  418   8.918   2.626   9.459
    1SBC   C00J  419   8.960   2.719   9.366
    1SBC   C00I  420   8.909   2.843   9.355
    1SBC   C00H  421   8.967   2.937   9.269
    1SBC   C00G  422   9.073   2.913   9.190
    1SBC   C00F  423   9.144   3.007   9.122
    1SBC   C01X  424   8.922   3.063   9.280
    1SBC   C01W  425   8.819   3.100   9.362
    1SBC   C01V  426   8.756   3.000   9.442
    1SBC   C020  427   8.656   3.027   9.535
    1SBC   C01Z  428   8.790   3.231   9.378
    1SBC   C02Y  429   8.700   3.250   9.478
    1SBC   C039  430   8.672   3.383   9.503
    1SBC   C02W  431   8.852   3.338   9.305
    1SBC   C01Y  432   8.987   3.163   9.202
    1SBC   C00U  433   8.800   2.872   9.431
    1SBC   C00S  434   8.737   2.768   9.508
    1SBC   C00T  435   8.636   2.800   9.601
    1SBC   C00R  436   8.801   2.646   9.523
    1SBC   C00Q  437   8.753   2.553   9.612
    1SBC   C00V  438   8.642   2.576   9.699
    1SBC   C024  439   8.602   2.486   9.796
    1SBC   C00X  440   8.674   2.370   9.813
    1SBC   C00P  441   8.837   2.447   9.641
    1SBC   C00O  442   8.966   2.429   9.578
    1SBC   C00K  443   9.073   2.693   9.286
    1SBC   N000  444   9.390   2.580   9.339
    1SBC   C00L  445   9.137   2.789   9.205
    1SBC   H004  446   9.720   2.711   8.741
    1SBC   C02Q  447   9.460   2.902   8.876
    1SBC   C00E  448   9.261   2.972   9.057
    1SBC   C030  449   9.312   3.295   8.881
    1SBC   O003  450   9.264   3.422   8.882
    1SBC   C02S  451   9.097   3.133   9.125
    1SBC   C038  452   9.170   3.456   8.971
    1SBC   C03L  453   9.117   3.587   8.968
    1SBC   H008  454   9.161   3.658   8.900
    1SBC   C02V  455   8.945   3.301   9.218
    1SBC   C03K  456   9.025   3.634   9.066
    1SBC   C0BK  457   8.975   3.765   9.075
    1SBC   H00T  458   9.016   3.835   9.004
    1SBC   C03H  459   8.817   3.473   9.333
    1SBC   C0BL  460   8.893   3.816   9.178
    1SBC   C0GU  461   8.876   3.961   9.192
    1SBC   H01O  462   8.924   4.019   9.115
    1SBC   C0GT  463   8.821   4.014   9.307
    1SBC   H01P  464   8.808   4.121   9.320
    1SBC   C0GS  465   8.778   3.929   9.404
    1SBC   C0GV  466   8.708   3.961   9.524
    1SBC   C0GW  467   8.679   4.088   9.585
    1SBC   H01Q  468   8.709   4.187   9.555
    1SBC   C0GX  469   8.606   4.085   9.698
    1SBC   H01R  470   8.583   4.176   9.752
    1SBC   O00L  471   8.548   3.973   9.757
    1SBC   C0GQ  472   8.662   3.844   9.584
    1SBC   C03A  473   8.723   3.496   9.439
    1SBC   C05L  474   8.582   3.848   9.707
    1SBC   C04W  475   8.223   3.630  10.143
    1SBC   C05I  476   8.148   3.667  10.256
    1SBC   C05O  477   8.113   3.800  10.273
    1SBC   C052  478   8.102   3.568  10.347
    1SBC   C04V  479   8.237   3.492  10.126
    1SBC   C04U  480   8.187   3.395  10.211
    1SBC   N009  481   8.152   3.897  10.177
    1SBC   C0GP  482   8.033   3.836  10.379
    1SBC   C05W  483   7.996   3.751  10.477
    1SBC   C07D  484   7.809   3.740  10.796
    1SBC   C06J  485   7.852   3.467  10.750
    1SBC   C05P  486   8.023   3.614  10.452
    1SBC   C05R  487   7.923   3.291  10.607
    1SBC   C04Z  488   8.120   3.434  10.324
    1SBC   C04C  489   7.998   3.120  10.456
    1SBC   C04G  490   8.100   2.943  10.321
    1SBC   C04J  491   8.261   2.859  10.119
    1SBC   C04T  492   8.200   3.263  10.182
    1SBC   N003  493   8.311   3.451  10.012
    1SBC   C04P  494   8.454   3.509   9.820
    1SBC   C03D  495   8.595   3.414   9.615
    1SBC   C021  496   8.634   3.159   9.555
    1SBC   C03F  497   8.419   3.140   9.854
    1SBC   C022  498   8.593   2.930   9.610
    1SBC   C02A  499   8.381   2.911   9.919
    1SBC   C023  500   8.592   2.704   9.698
    1SBC   C025  501   8.510   2.519   9.894
    1SBC   C02D  502   8.493   2.432  10.004
    1SBC   C02E  503   8.572   2.321  10.024
    1SBC   C02N  504   8.570   2.250  10.143
    1SBC   C04N  505   8.340   2.817  10.014
    1SBC   C02P  506   8.410   2.469  10.109
    1SBC   C04I  507   8.218   2.767  10.211
    1SBC   C044  508   8.146   2.587  10.417
    1SBC   C043  509   8.386   2.384  10.221
    1SBC   C05N  510   8.477   2.277  10.246
    1SBC   C09U  511   8.443   2.066  10.606
    1SBC   C09V  512   8.427   2.003  10.734
    1SBC   C09X  513   8.524   1.915  10.779
    1SBC   C09Y  514   8.538   1.854  10.903
    1SBC   C0A1  515   8.445   1.888  10.994
    1SBC   C0A2  516   8.340   1.975  10.958
    1SBC   C0A4  517   8.242   2.003  11.054
    1SBC   C071  518   8.143   2.100  11.024
    1SBC   C0A5  519   8.054   2.139  11.120
    1SBC   C0A9  520   8.049   2.063  11.239
    1SBC   C0A8  521   8.143   1.960  11.262
    1SBC   C0AP  522   8.146   1.898  11.382
    1SBC   C0BY  523   8.249   1.812  11.416
    1SBC   C0BX  524   8.356   1.784  11.333
    1SBC   C0C2  525   8.465   1.706  11.377
    1SBC   C0C3  526   8.574   1.697  11.286
    1SBC   C0CT  527   8.559   1.744  11.157
    1SBC   C0C1  528   8.480   1.662  11.506
    1SBC   C0C0  529   8.359   1.683  11.591
    1SBC   C0A7  530   8.351   1.849  11.209
    1SBC   C0BZ  531   8.252   1.750  11.537
    1SBC   C0BO  532   8.146   1.773  11.627
    1SBC   C0BN  533   8.053   1.874  11.606
    1SBC   C0BM  534   7.976   1.904  11.717
    1SBC   C0B9  535   7.894   2.018  11.699
    1SBC   C0B8  536   7.885   2.078  11.569
    1SBC   C0AD  537   7.964   2.033  11.460
    1SBC   C0AF  538   7.802   2.185  11.556
    1SBC   C0AG  539   7.735   2.242  11.666
    1SBC   C0B7  540   7.741   2.176  11.789
    1SBC   C0AE  541   7.798   2.237  11.431
    1SBC   C0AB  542   7.875   2.195  11.321
    1SBC   C0AA  543   7.874   2.265  11.198
    1SBC   C0AJ  544   7.730   2.357  11.417
    1SBC   C0AK  545   7.726   2.426  11.300
    1SBC   C06W  546   7.660   2.540  11.316
    1SBC   C0AI  547   7.662   2.427  11.519
    1SBC   C0BP  548   8.184   1.720  11.751
    1SBC   C0BQ  549   8.105   1.757  11.865
    1SBC   C0BW  550   8.051   1.929  11.479
    1SBC   C0AC  551   7.958   2.093  11.337
    1SBC   C0A6  552   8.245   1.934  11.175
    1SBC   C0A3  553   8.454   1.831  11.119
    1SBC   C09Z  554   8.640   1.761  10.937
    1SBC   C09W  555   8.334   2.032  10.832
    1SBC   C072  556   8.238   2.130  10.796
    1SBC   C09H  557   8.607   1.868  10.685
    1SBC   C09G  558   8.698   1.770  10.715
    1SBC   C09P  559   8.765   1.748  10.600
    1SBC   C02O  560   8.769   1.979  10.296
    1SBC   C02M  561   8.666   2.151  10.168
    1SBC   C02F  562   8.657   2.288   9.925
    1SBC   C00W  563   8.791   2.367   9.739
    1SBC   C01R  564   9.069   2.348   9.629
    1SBC   C01N  565   8.980   2.131   9.902
    1SBC   C01L  566   9.144   2.002  10.016
    1SBC   C01H  567   9.494   1.940   9.949
    1SBC   C01K  568   9.307   2.194   9.755
    1SBC   C01E  569   9.561   2.232   9.641
    1SBC   C01G  570   9.628   1.943   9.887
    1SBC   C01D  571   9.689   2.258   9.600
    1SBC   C01A  572   9.957   2.324   9.534
    1SBC   H001  573  10.060   2.354   9.520
    1SBC   C01F  574   9.876   1.982   9.762
    1SBC   C03P  575  10.113   1.854   9.853
    1SBC   C03T  576   9.992   1.770  10.038
    1SBC   C08I  577   9.956   1.624  10.279
    1SBC   C08J  578   9.934   1.574  10.403
    1SBC   C08L  579   9.784   1.526  10.584
    1SBC   C093  580   9.621   1.466  10.768
    1SBC   C08Z  581   9.417   1.550  10.594
    1SBC   C09T  582   9.209   1.440  11.006
    1SBC   C09S  583   9.129   1.526  10.678
    1SBC   C09Q  584   8.879   1.665  10.614
    1SBC   C09F  585   8.717   1.711  10.836
    1SBC   C09E  586   8.978   1.504  10.985
    1SBC   C0A0  587   8.660   1.711  11.063
    1SBC   C0CU  588   8.692   1.628  11.326
    1SBC   C0CR  589   8.707   1.596  11.460
    1SBC   C0CZ  590   8.829   1.532  11.503
    1SBC   C0DA  591   9.077   1.458  11.082
    1SBC   C0D9  592   9.136   1.252  11.373
    1SBC   H00V  593   9.140   1.170  11.302
    1SBC   C0CY  594   8.932   1.506  11.415
    1SBC   C0DF  595   9.147   1.248  11.519
    1SBC   C0DE  596   9.162   1.166  11.642
    1SBC   C0GI  597   9.235   1.054  11.676
    1SBC   H01K  598   9.306   1.006  11.611
    1SBC   C0GJ  599   9.215   1.001  11.798
    1SBC   H01J  600   9.262   0.905  11.815
    1SBC   O00I  601   9.126   1.049  11.894
    1SBC   C0GH  602   9.043   1.157  11.864
    1SBC   C0GG  603   8.947   1.191  11.965
    1SBC   O00G  604   8.942   1.109  12.076
    1SBC   C0G8  605   8.848   1.123  12.171
    1SBC   C0G9  606   8.853   1.031  12.276
    1SBC   H01G  607   8.930   0.955  12.270
    1SBC   C0GA  608   8.753   1.037  12.378
    1SBC   H01H  609   8.774   0.971  12.461
    1SBC   C0GB  610   8.645   1.129  12.374
    1SBC   C0EP  611   8.639   1.226  12.263
    1SBC   C0E8  612   8.524   1.318  12.266
    1SBC   C0CK  613   8.457   1.408  12.178
    1SBC   C0CL  614   8.526   1.466  12.075
    1SBC   C0E9  615   8.661   1.431  12.040
    1SBC   C0GE  616   8.757   1.319  12.055
    1SBC   C0E7  617   8.456   1.346  12.381
    1SBC   C0CJ  618   8.358   1.446  12.376
    1SBC   C0E6  619   8.298   1.492  12.496
    1SBC   H00Y  620   8.240   1.583  12.495
    1SBC   C0EO  621   8.326   1.414  12.610
    1SBC   H011  622   8.279   1.445  12.702
    1SBC   C0G6  623   8.404   1.287  12.606
    1SBC   C0G5  624   8.422   1.185  12.713
    1SBC   H01F  625   8.373   1.198  12.809
    1SBC   C0GD  626   8.497   1.076  12.692
    1SBC   H01I  627   8.513   1.001  12.767
    1SBC   O00H  628   8.563   1.045  12.575
    1SBC   C0EQ  629   8.477   1.259  12.491
    1SBC   C0GC  630   8.555   1.144  12.484
    1SBC   C0G7  631   8.745   1.228  12.162
    1SBC   C0DD  632   9.072   1.219  11.740
    1SBC   C0GF  633   8.864   1.309  11.959
    1SBC   C0CO  634   8.694   1.525  11.945
    1SBC   C0D0  635   8.834   1.503  11.639
    1SBC   C0C4  636   8.607   1.626  11.556
    1SBC   C0CN  637   8.592   1.616  11.932
    1SBC   C0CP  638   8.317   1.665  11.729
    1SBC   C0CM  639   8.494   1.595  12.029
    1SBC   C0CI  640   8.340   1.475  12.236
    1SBC   C0CD  641   7.915   1.679  12.304
    1SBC   C0BR  642   8.130   1.703  11.991
    1SBC   C0CS  643   7.999   1.844  11.838
    1SBC   C0B6  644   7.820   2.067  11.806
    1SBC   C0CG  645   7.839   1.860  12.164
    1SBC   C0CF  646   7.826   1.783  12.281
    1SBC   C0E5  647   7.811   1.632  12.513
    1SBC   C0DT  648   7.636   1.705  12.719
    1SBC   C0DL  649   7.556   1.961  12.465
    1SBC   C0DM  650   7.473   2.070  12.450
    1SBC   C0DY  651   7.382   2.042  12.671
    1SBC   C0DU  652   7.545   1.747  12.814
    1SBC   C0F0  653   7.505   1.748  13.050
    1SBC   C0F4  654   7.463   1.918  13.260
    1SBC   C0FG  655   7.219   2.033  13.005
    1SBC   O00B  656   7.354   2.131  13.327
    1SBC   C0FN  657   7.164   2.158  13.012
    1SBC   C0DZ  658   7.297   2.081  12.775
    1SBC   O00C  659   7.199   2.410  12.654
    1SBC   C0FR  660   7.215   2.498  12.553
    1SBC   O00D  661   7.160   2.607  12.579
    1SBC   C0E0  662   7.396   2.112  12.557
    1SBC   C0E3  663   7.282   2.449  12.434
    1SBC   C0AW  664   7.296   2.523  12.317
    1SBC   C0AV  665   7.236   2.646  12.297
    1SBC   H00Q  666   7.187   2.700  12.377
    1SBC   C0AU  667   7.251   2.719  12.180
    1SBC   H00R  668   7.219   2.822  12.170
    1SBC   C0AT  669   7.322   2.656  12.073
    1SBC   C0AS  670   7.366   2.695  11.939
    1SBC   C0AR  671   7.316   2.812  11.880
    1SBC   C0BE  672   7.375   2.537  12.094
    1SBC   C0DN  673   7.492   2.153  12.338
    1SBC   C0AX  674   7.365   2.463  12.215
    1SBC   C0BB  675   7.582   2.192  12.116
    1SBC   C0BD  676   7.451   2.498  11.988
    1SBC   C0B2  677   7.658   2.221  11.888
    1SBC   C0AH  678   7.657   2.363  11.648
    1SBC   C0BF  679   7.450   2.591  11.879
    1SBC   C0AL  680   7.621   2.549  11.453
    1SBC   C07U  681   7.438   2.794  11.654
    1SBC   C0AQ  682   7.363   2.857  11.749
    1SBC   C0BG  683   7.228   2.923  11.937
    1SBC   C0FY  684   7.082   3.190  11.753
    1SBC   C0BJ  685   7.085   2.921  11.960
    1SBC   H00S  686   7.034   2.833  11.996
    1SBC   C0FZ  687   6.946   3.195  11.777
    1SBC   C07S  688   7.134   3.216  11.625
    1SBC   C0G1  689   6.817   3.364  11.488
    1SBC   C07K  690   7.034   3.433  11.200
    1SBC   C07H  691   7.204   3.256  11.346
    1SBC   C06B  692   7.455   3.424  11.181
    1SBC   C06N  693   7.572   3.243  11.102
    1SBC   C066  694   7.381   3.074  11.392
    1SBC   C062  695   7.541   2.823  11.290
    1SBC   C05Y  696   7.679   3.041  10.989
    1SBC   C061  697   7.561   2.732  11.181
    1SBC   C05H  698   7.795   2.741  10.903
    1SBC   C06V  699   7.647   2.619  11.201
    1SBC   C06Y  700   7.800   2.380  11.181
    1SBC   C05C  701   7.909   2.502  10.839
    1SBC   C06Z  702   7.968   2.240  11.098
    1SBC   C070  703   8.143   2.164  10.898
    1SBC   C05B  704   8.000   2.464  10.735
    1SBC   C057  705   8.182   2.381  10.535
    1SBC   C059  706   8.249   2.201  10.669
    2SBC   C058  707   8.075   0.938  12.310
    2SBC   C05A  708   8.199   0.869  12.328
    2SBC   C06Q  709   8.280   0.836  12.211
    2SBC   C06R  710   8.406   0.774  12.229
    2SBC   C06S  711   8.455   0.747  12.356
    2SBC   C06T  712   8.575   0.669  12.365
    2SBC   C06U  713   8.662   0.634  12.479
    2SBC   C06X  714   8.645   0.650  12.619
    2SBC   C060  715   8.768   0.609  12.688
    2SBC   C05Z  716   8.785   0.546  12.821
    2SBC   C068  717   8.889   0.444  12.792
    2SBC   C067  718   8.972   0.368  12.880
    2SBC   C069  719   8.966   0.408  13.017
    2SBC   C06A  720   9.047   0.352  13.128
    2SBC   C073  721   9.074   0.219  13.168
    2SBC   C07P  722   9.028   0.178  13.295
    2SBC   C07O  723   8.928   0.230  13.372
    2SBC   H00D  724   8.862   0.302  13.324
    2SBC   C07N  725   8.912   0.196  13.507
    2SBC   H00E  726   8.844   0.255  13.566
    2SBC   C07M  727   9.000   0.100  13.561
    2SBC   H00F  728   8.987   0.094  13.668
    2SBC   C07L  729   9.080   0.026  13.476
    2SBC   C07Q  730   9.159  -0.092  13.523
    2SBC   H00G  731   9.158  -0.119  13.627
    2SBC   O00F  732   9.241  -0.168  13.441
    2SBC   C07J  733   9.247  -0.127  13.307
    2SBC   C07I  734   9.172  -0.019  13.252
    2SBC   N004  735   9.197   0.023  13.120
    2SBC   C07R  736   9.299  -0.044  13.048
    2SBC   C07T  737   9.356  -0.158  13.102
    2SBC   C0FX  738   9.424  -0.247  13.021
    2SBC   C0FW  739   9.459  -0.378  13.047
    2SBC   C0G0  740   9.434  -0.410  13.184
    2SBC   C0G2  741   9.477  -0.536  13.229
    2SBC   H01E  742   9.472  -0.562  13.334
    2SBC   C0G3  743   9.535  -0.629  13.140
    2SBC   H01C  744   9.573  -0.726  13.169
    2SBC   C0G4  745   9.551  -0.598  13.003
    2SBC   H01D  746   9.600  -0.673  12.943
    2SBC   O00E  747   9.392  -0.317  13.273
    2SBC   C0FV  748   9.510  -0.468  12.951
    2SBC   C0FU  749   9.519  -0.420  12.815
    2SBC   H01B  750   9.549  -0.479  12.729
    2SBC   C0FT  751   9.500  -0.284  12.784
    2SBC   C0FS  752   9.494  -0.197  12.664
    2SBC   C0BI  753   9.478  -0.065  12.718
    2SBC   C0BH  754   9.440   0.024  12.617
    2SBC   C07F  755   9.318   0.096  12.628
    2SBC   C07E  756   9.253   0.150  12.736
    2SBC   C07G  757   9.263   0.111  12.865
    2SBC   C074  758   9.162   0.177  12.937
    2SBC   C065  759   9.137   0.236  12.722
    2SBC   C064  760   9.101   0.259  12.586
    2SBC   C063  761   8.993   0.341  12.552
    2SBC   C075  762   9.002   0.338  12.398
    2SBC   C0AM  763   9.102   0.243  12.345
    2SBC   C0AN  764   9.144   0.210  12.206
    2SBC   C0AO  765   9.093   0.259  12.074
    2SBC   C0B1  766   9.139   0.208  11.950
    2SBC   C0B0  767   9.242   0.114  11.944
    2SBC   C0AZ  768   9.286   0.048  11.822
    2SBC   C0AY  769   9.369  -0.062  11.827
    2SBC   N007  770   9.404  -0.141  11.715
    2SBC   C0E2  771   9.479  -0.260  11.731
    2SBC   C0E1  772   9.504  -0.331  11.614
    2SBC   C0E4  773   9.581  -0.450  11.621
    2SBC   C0FF  774   9.619  -0.526  11.506
    2SBC   C0FJ  775   9.682  -0.656  11.491
    2SBC   C0FK  776   9.660  -0.768  11.576
    2SBC   H016  777   9.611  -0.759  11.671
    2SBC   C0FL  778   9.682  -0.885  11.483
    2SBC   H017  779   9.658  -0.989  11.497
    2SBC   C0FM  780   9.724  -0.838  11.350
    2SBC   C0FH  781   9.717  -0.866  11.201
    2SBC   C0FI  782   9.706  -0.737  11.150
    2SBC   C0F3  783   9.613  -0.715  11.044
    2SBC   C0F2  784   9.570  -0.590  11.031
    2SBC   C0DW  785   9.556  -0.498  11.139
    2SBC   C0FE  786   9.619  -0.525  11.259
    2SBC   C0DV  787   9.463  -0.396  11.137
    2SBC   C0DX  788   9.435  -0.325  11.254
    2SBC   C0DK  789   9.342  -0.221  11.253
    2SBC   C0DJ  790   9.268  -0.203  11.136
    2SBC   C0DI  791   9.179  -0.092  11.128
    2SBC   C0DH  792   9.174  -0.002  11.234
    2SBC   C0DG  793   9.241  -0.031  11.354
    2SBC   C0BV  794   9.209   0.045  11.466
    2SBC   C0BC  795   9.264   0.010  11.588
    2SBC   C0BA  796   9.128   0.160  11.457
    2SBC   C0B4  797   9.092   0.228  11.573
    2SBC   C0B3  798   9.144   0.191  11.698
    2SBC   C0B5  799   8.999   0.331  11.561
    2SBC   C0BU  800   8.949   0.374  11.433
    2SBC   C0BT  801   8.982   0.306  11.316
    2SBC   C0BS  802   8.921   0.335  11.194
    2SBC   C0CC  803   8.933   0.244  11.087
    2SBC   C0CB  804   8.861   0.261  10.972
    2SBC   C0CH  805   8.835   0.142  10.904
    2SBC   C0DO  806   8.919   0.033  10.911
    2SBC   C0DP  807   8.913  -0.064  10.811
    2SBC   C0EA  808   8.815  -0.055  10.701
    2SBC   H012  809   8.754   0.033  10.686
    2SBC   O009  810   8.815  -0.152  10.606
    2SBC   C0EH  811   8.897  -0.261  10.616
    2SBC   C0EG  812   8.884  -0.363  10.522
    2SBC   C0EJ  813   8.812  -0.380  10.399
    2SBC   H010  814   8.745  -0.306  10.358
    2SBC   C0EK  815   8.829  -0.515  10.349
    2SBC   H00Z  816   8.779  -0.560  10.265
    2SBC   C0EL  817   8.919  -0.568  10.446
    2SBC   C0EM  818   8.977  -0.700  10.452
    2SBC   C0EW  819   8.961  -0.805  10.358
    2SBC   H013  820   8.884  -0.796  10.284
    2SBC   C0EX  821   9.031  -0.935  10.376
    2SBC   H014  822   9.018  -1.016  10.307
    2SBC   C0F1  823   9.133  -0.942  10.483
    2SBC   C0EU  824   9.140  -0.843  10.579
    2SBC   C0ET  825   9.245  -0.827  10.669
    2SBC   C0ES  826   9.214  -0.697  10.731
    2SBC   C0EE  827   9.111  -0.632  10.660
    2SBC   C0ED  828   9.047  -0.508  10.653
    2SBC   C0EC  829   9.078  -0.393  10.735
    2SBC   C0EB  830   9.181  -0.388  10.835
    2SBC   C0EN  831   9.285  -0.488  10.836
    2SBC   C0ER  832   9.399  -0.459  10.915
    2SBC   C0DS  833   9.189  -0.282  10.923
    2SBC   C0DR  834   9.094  -0.182  10.923
    2SBC   C0EY  835   9.314  -0.621  10.785
    2SBC   C0EZ  836   9.428  -0.681  10.842
    2SBC   C0F5  837   9.487  -0.815  10.861
    2SBC   C0F6  838   9.455  -0.924  10.781
    2SBC   N008  839   9.531  -1.048  10.810
    2SBC   C0F7  840   9.622  -1.063  10.916
    2SBC   C0FQ  841   9.684  -1.192  10.940
    2SBC   H018  842   9.742  -1.196  11.030
    2SBC   C0FP  843   9.651  -1.305  10.863
    2SBC   H019  844   9.689  -1.400  10.897
    2SBC   C0FO  845   9.553  -1.286  10.769
    2SBC   H01A  846   9.513  -1.375  10.722
    2SBC   C0F8  847   9.632  -0.953  10.999
    2SBC   C0F9  848   9.494  -1.167  10.742
    2SBC   C0FA  849   9.395  -1.172  10.636
    2SBC   H015  850   9.374  -1.267  10.589
    2SBC   C0FB  851   9.318  -1.052  10.610
    2SBC   C0FD  852   9.345  -0.937  10.691
    2SBC   C0FC  853   9.211  -1.060  10.508
    2SBC   O00A  854   9.204  -1.160  10.436
    2SBC   C0EV  855   9.068  -0.721  10.560
    2SBC   C0EF  856   8.947  -0.477  10.548
    2SBC   C0EI  857   8.988  -0.279  10.729
    2SBC   C0DQ  858   9.000  -0.172  10.817
    2SBC   C0CE  859   9.010   0.028  11.010
    2SBC   H00U  860   8.748   0.143  10.840
    2SBC   C0CA  861   8.807   0.388  10.942
    2SBC   C0C9  862   8.783   0.484  11.045
    2SBC   C0C8  863   8.729   0.612  11.005
    2SBC   C0C7  864   8.656   0.717  11.072
    2SBC   C0C6  865   8.606   0.834  11.006
    2SBC   C0C5  866   8.488   0.919  11.020
    2SBC   C0CQ  867   8.431   0.963  10.895
    2SBC   C0D1  868   8.458   0.889  10.786
    2SBC   C0D8  869   8.350   0.876  10.704
    2SBC   C0D7  870   8.262   0.976  10.749
    2SBC   C0D6  871   8.135   1.008  10.702
    2SBC   C0D5  872   8.064   1.122  10.744
    2SBC   C0D4  873   8.080   1.212  10.854
    2SBC   C0D3  874   7.949   1.265  10.877
    2SBC   C0CX  875   7.937   1.272  11.019
    2SBC   C0CW  876   8.041   1.188  11.085
    2SBC   C0CV  877   8.080   1.130  11.219
    2SBC   C0D2  878   7.987   1.132  11.323
    2SBC   C09D  879   7.853   1.183  11.312
    2SBC   C09C  880   7.764   1.166  11.422
    2SBC   C09B  881   7.628   1.214  11.433
    2SBC   C09A  882   7.573   1.271  11.314
    2SBC   C099  883   7.643   1.268  11.201
    2SBC   C098  884   7.584   1.368  11.115
    2SBC   C08Y  885   7.488   1.447  11.189
    2SBC   C08X  886   7.418   1.575  11.162
    2SBC   C08W  887   7.461   1.653  11.042
    2SBC   C08U  888   7.572   1.624  10.953
    2SBC   C08V  889   7.682   1.530  10.954
    2SBC   C0DC  890   7.751   1.551  10.830
    2SBC   H00W  891   7.833   1.493  10.790
    2SBC   C0DB  892   7.692   1.654  10.755
    2SBC   H00X  893   7.720   1.700  10.661
    2SBC   C08T  894   7.582   1.697  10.832
    2SBC   C08S  895   7.500   1.803  10.800
    2SBC   H00N  896   7.507   1.856  10.706
    2SBC   C08R  897   7.402   1.848  10.892
    2SBC   C08Q  898   7.320   1.963  10.877
    2SBC   H00O  899   7.336   2.013  10.782
    2SBC   C08P  900   7.239   2.023  10.976
    2SBC   C08O  901   7.176   2.151  10.962
    2SBC   H00P  902   7.183   2.212  10.873
    2SBC   C08N  903   7.108   2.211  11.077
    2SBC   C08M  904   7.044   2.340  11.065
    2SBC   O008  905   7.046   2.404  10.961
    2SBC   O007  906   6.977   2.392  11.176
    2SBC   C08H  907   6.971   2.325  11.294
    2SBC   C08G  908   6.913   2.380  11.410
    2SBC   C03V  909   6.860   2.507  11.421
    2SBC   H009  910   6.856   2.569  11.333
    2SBC   C03U  911   6.808   2.557  11.540
    2SBC   C03W  912   6.728   2.675  11.555
    2SBC   H00A  913   6.689   2.732  11.472
    2SBC   C03X  914   6.697   2.722  11.674
    2SBC   H00B  915   6.627   2.804  11.672
    2SBC   O005  916   6.737   2.665  11.795
    2SBC   C03O  917   6.794   2.536  11.781
    2SBC   C03N  918   6.808   2.459  11.897
    2SBC   O000  919   6.778   2.524  12.015
    2SBC   C019  920   6.780   2.450  12.127
    2SBC   C018  921   6.832   2.320  12.128
    2SBC   C017  922   6.867   2.258  12.005
    2SBC   C016  923   6.909   2.126  12.004
    2SBC   C015  924   6.912   2.063  12.127
    2SBC   C014  925   6.963   1.931  12.132
    2SBC   C013  926   7.018   1.867  12.018
    2SBC   C012  927   7.073   1.747  12.075
    2SBC   C011  928   7.028   1.744  12.208
    2SBC   C010  929   7.064   1.646  12.288
    2SBC   C00Z  930   7.051   1.633  12.423
    2SBC   C00Y  931   7.128   1.526  12.461
    2SBC   C01O  932   7.179   1.464  12.353
    2SBC   C01P  933   7.307   1.405  12.353
    2SBC   C02L  934   7.365   1.377  12.232
    2SBC   C02K  935   7.310   1.445  12.121
    2SBC   C01M  936   7.202   1.542  12.120
    2SBC   C02J  937   7.361   1.392  12.004
    2SBC   C02I  938   7.324   1.419  11.871
    2SBC   C02H  939   7.244   1.524  11.822
    2SBC   C01Q  940   7.173   1.630  11.889
    2SBC   C02G  941   7.121   1.711  11.790
    2SBC   C089  942   7.135   1.648  11.668
    2SBC   C088  943   7.131   1.745  11.568
    2SBC   C087  944   7.078   1.865  11.638
    2SBC   C086  945   7.049   1.979  11.570
    2SBC   C03S  946   6.989   2.097  11.629
    2SBC   N006  947   6.972   2.185  11.523
    2SBC   C08F  948   7.024   2.130  11.410
    2SBC   C01J  949   6.949   2.141  11.760
    2SBC   C03R  950   6.893   2.271  11.765
    2SBC   C03Q  951   6.879   2.351  11.648
    2SBC   C08E  952   7.080   2.011  11.436
    2SBC   C08D  953   7.150   1.943  11.330
    2SBC   C08K  954   7.165   2.012  11.206
    2SBC   C08C  955   7.197   1.811  11.333
    2SBC   C091  956   7.268   1.761  11.222
    2SBC   C092  957   7.304   1.834  11.104
    2SBC   C08B  958   7.190   1.716  11.436
    2SBC   C090  959   7.262   1.598  11.382
    2SBC   C094  960   7.292   1.475  11.455
    2SBC   C095  961   7.397   1.385  11.422
    2SBC   C09R  962   7.445   1.317  11.533
    2SBC   C097  963   7.381   1.370  11.643
    2SBC   C096  964   7.286   1.461  11.599
    2SBC   C01I  965   7.063   1.843  11.785
    2SBC   C08A  966   7.223   1.543  11.685
    2SBC   C09L  967   7.396   1.346  11.781
    2SBC   C09K  968   7.481   1.267  11.861
    2SBC   C09J  969   7.577   1.179  11.807
    2SBC   C09I  970   7.691   1.133  11.879
    2SBC   C09O  971   7.741   1.128  12.017
    2SBC   C09N  972   7.668   1.180  12.128
    2SBC   C09M  973   7.547   1.261  12.119
    2SBC   C06O  974   7.718   1.154  12.257
    2SBC   C05M  975   7.839   1.078  12.270
    2SBC   C06P  976   7.914   1.045  12.162
    2SBC   C042  977   7.882   1.040  12.400
    2SBC   C041  978   7.810   1.069  12.513
    2SBC   C040  979   7.852   1.031  12.640
    2SBC   C03Z  980   7.784   1.074  12.756
    2SBC   C03Y  981   7.673   1.155  12.742
    2SBC   C027  982   7.615   1.210  12.860
    2SBC   C026  983   7.498   1.277  12.851
    2SBC   C028  984   7.436   1.333  12.963
    2SBC   C029  985   7.489   1.315  13.088
    2SBC   C02B  986   7.439   1.388  13.197
    2SBC   C02C  987   7.507   1.381  13.316
    2SBC   C02X  988   7.468   1.468  13.416
    2SBC   C03E  989   7.545   1.478  13.526
    2SBC   C03G  990   7.658   1.408  13.548
    2SBC   C04Q  991   7.699   1.320  13.449
    2SBC   C04R  992   7.819   1.250  13.460
    2SBC   C04S  993   7.868   1.171  13.354
    2SBC   C04L  994   7.791   1.160  13.237
    2SBC   C04M  995   7.673   1.235  13.227
    2SBC   C04K  996   7.844   1.101  13.126
    2SBC   C04F  997   7.963   1.030  13.136
    2SBC   C04E  998   8.037   1.035  13.256
    2SBC   C04D  999   8.160   0.975  13.266
    2SBC   C050 1000   8.243   0.996  13.371
    2SBC   C051 1001   8.366   0.927  13.378
    2SBC   C05Q 1002   8.444   0.940  13.490
    2SBC   C05V 1003   8.571   0.874  13.495
    2SBC   N005 1004   8.644   0.880  13.616
    2SBC   C07V 1005   8.591   0.960  13.719
    2SBC   C082 1006   8.663   0.970  13.841
    2SBC   C081 1007   8.778   0.892  13.869
    2SBC   C07C 1008   8.827   0.819  13.764
    2SBC   C07B 1009   8.948   0.745  13.778
    2SBC   C080 1010   9.017   0.744  13.895
    2SBC   C07Z 1011   9.136   0.667  13.903
    2SBC   H00L 1012   9.190   0.677  13.996
    2SBC   C079 1013   9.201   0.609  13.796
    2SBC   C078 1014   9.125   0.613  13.679
    2SBC   C077 1015   9.175   0.541  13.568
    2SBC   C07X 1016   9.312   0.493  13.569
    2SBC   H00I 1017   9.360   0.447  13.483
    2SBC   C07Y 1018   9.390   0.497  13.689
    2SBC   H00H 1019   9.490   0.457  13.692
    2SBC   C076 1020   9.100   0.531  13.451
    2SBC   C06C 1021   9.145   0.449  13.347
    2SBC   H00C 1022   9.229   0.382  13.344
    2SBC   C06F 1023   8.982   0.600  13.442
    2SBC   C06E 1024   8.906   0.600  13.325
    2SBC   C06G 1025   8.792   0.664  13.301
    2SBC   C06H 1026   8.739   0.734  13.411
    2SBC   C06I 1027   8.811   0.739  13.531
    2SBC   C06L 1028   8.723   0.655  13.179
    2SBC   C06M 1029   8.775   0.581  13.065
    2SBC   C06K 1030   8.599   0.720  13.167
    2SBC   C05S 1031   8.542   0.785  13.275
    2SBC   C05U 1032   8.529   0.724  13.048
    2SBC   C05X 1033   8.589   0.665  12.927
    2SBC   C05G 1034   8.504   0.686  12.815
    2SBC   C05F 1035   8.379   0.737  12.825
    2SBC   C05E 1036   8.326   0.758  12.701
    2SBC   C048 1037   8.214   0.840  12.687
    2SBC   C056 1038   8.173   0.872  12.560
    2SBC   C045 1039   8.051   0.936  12.546
    2SBC   C047 1040   8.146   0.877  12.798
    2SBC   C049 1041   8.197   0.852  12.923
    2SBC   C04B 1042   8.139   0.903  13.037
    2SBC   C046 1043   8.023   0.943  12.786
    2SBC   C04H 1044   7.959   0.987  12.898
    2SBC   C05D 1045   8.413   0.736  12.599
    2SBC   C04A 1046   8.319   0.785  12.938
    2SBC   C05T 1047   8.392   0.776  13.051
    2SBC   C055 1048   8.336   0.838  13.163
    2SBC   C06D 1049   8.958   0.528  13.220
    2SBC   C07W 1050   8.931   0.672  13.546
    2SBC   C085 1051   9.333   0.559  13.798
    2SBC   H00M 1052   9.387   0.567  13.892
    2SBC   C084 1053   8.968   0.816  14.010
    2SBC   H00J 1054   9.027   0.823  14.100
    2SBC   C07A 1055   9.002   0.677  13.668
    2SBC   C083 1056   8.851   0.889  13.993
    2SBC   H00K 1057   8.818   0.956  14.071
    2SBC   O00K 1058   8.628   1.060  13.941
    2SBC   C0GO 1059   8.520   1.147  13.920
    2SBC   C0GN 1060   8.497   1.241  14.013
    2SBC   H01L 1061   8.566   1.242  14.096
    2SBC   C0GM 1062   8.391   1.331  13.991
    2SBC   C0GL 1063   8.378   1.444  14.067
    2SBC   H01M 1064   8.464   1.476  14.124
    2SBC   O00J 1065   8.278   1.538  14.047
    2SBC   C0GK 1066   8.182   1.494  13.957
    2SBC   H01N 1067   8.099   1.561  13.941
    2SBC   C05K 1068   8.187   1.384  13.877
    2SBC   C05J 1069   8.088   1.347  13.781
    2SBC   C04Y 1070   7.955   1.397  13.774
    2SBC   C04X 1071   7.863   1.366  13.672
    2SBC   O006 1072   7.911   1.475  13.868
    2SBC   C053 1073   7.796   1.548  13.868
    2SBC   C04O 1074   7.702   1.523  13.760
    2SBC   C03C 1075   7.575   1.584  13.741
    2SBC   C03B 1076   7.510   1.700  13.796
    2SBC   C054 1077   7.551   1.771  13.911
    2SBC   C0GR 1078   7.488   1.891  13.958
    2SBC   C03M 1079   7.370   1.975  13.918
    2SBC   C03I 1080   7.281   1.951  13.803
    2SBC   C03J 1081   7.186   2.055  13.771
    2SBC   N002 1082   7.119   2.052  13.651
    2SBC   C02U 1083   7.029   2.158  13.613
    2SBC   C02T 1084   6.965   2.160  13.488
    2SBC   C02Z 1085   6.893   2.275  13.457
    2SBC   N001 1086   6.834   2.287  13.332
    2SBC   C02R 1087   6.762   2.403  13.294
    2SBC   C032 1088   6.757   2.513  13.380
    2SBC   C031 1089   6.827   2.503  13.510
    2SBC   H007 1090   6.816   2.587  13.577
    2SBC   C033 1091   6.678   2.626  13.330
    2SBC   H003 1092   6.672   2.717  13.388
    2SBC   O004 1093   6.634   2.642  13.203
    2SBC   C034 1094   6.638   2.528  13.129
    2SBC   C035 1095   6.580   2.542  12.994
    2SBC   C036 1096   6.574   2.424  12.917
    2SBC   H005 1097   6.536   2.421  12.816
    2SBC   C037 1098   6.633   2.306  12.963
    2SBC   H006 1099   6.627   2.221  12.897
    2SBC   C00D 1100   6.711   2.310  13.075
    2SBC   C00C 1101   6.788   2.196  13.102
    2SBC   C00B 1102   6.823   2.089  13.010
    2SBC   C00A 1103   6.809   2.050  12.863
    2SBC   C009 1104   6.861   1.918  12.857
    2SBC   C008 1105   6.916   1.852  12.744
    2SBC   C007 1106   6.898   1.917  12.622
    2SBC   C006 1107   6.940   1.847  12.507
    2SBC   C005 1108   6.931   1.919  12.386
    2SBC   C004 1109   6.884   2.051  12.373
    2SBC   C003 1110   6.856   2.117  12.493
    2SBC   C002 1111   6.823   2.252  12.489
    2SBC   C01C 1112   6.804   2.318  12.369
    2SBC   C01B 1113   6.735   2.444  12.362
    2SBC   H000 1114   6.689   2.492  12.448
    2SBC   C001 1115   6.829   2.325  12.607
    2SBC   C000 1116   6.849   2.258  12.731
    2SBC   C01U 1117   6.884   2.365  12.822
    2SBC   H002 1118   6.919   2.373  12.924
    2SBC   C01T 1119   6.859   2.492  12.745
    2SBC   O002 1120   6.873   2.606  12.789
    2SBC   O001 1121   6.830   2.461  12.616
    2SBC   C01S 1122   6.857   2.052  12.615
    2SBC   C00N 1123   6.992   1.738  12.771
    2SBC   C00M 1124   7.014   1.694  12.899
    2SBC   C00J 1125   6.971   1.764  13.011
    2SBC   C00I 1126   7.025   1.751  13.136
    2SBC   C00H 1127   6.995   1.845  13.226
    2SBC   C00G 1128   6.909   1.954  13.206
    2SBC   C00F 1129   6.910   2.066  13.281
    2SBC   C01X 1130   7.063   1.837  13.346
    2SBC   C01W 1131   7.164   1.742  13.367
    2SBC   C01V 1132   7.192   1.647  13.268
    2SBC   C020 1133   7.291   1.558  13.284
    2SBC   C01Z 1134   7.232   1.746  13.487
    2SBC   C02Y 1135   7.323   1.645  13.501
    2SBC   C039 1136   7.400   1.646  13.613
    2SBC   C02W 1137   7.218   1.847  13.584
    2SBC   C01Y 1138   7.054   1.945  13.436
    2SBC   C00U 1139   7.121   1.655  13.148
    2SBC   C00S 1140   7.160   1.572  13.045
    2SBC   C00T 1141   7.262   1.480  13.063
    2SBC   C00R 1142   7.109   1.594  12.922
    2SBC   C00Q 1143   7.160   1.518  12.815
    2SBC   C00V 1144   7.267   1.427  12.832
    2SBC   C024 1145   7.331   1.375  12.714
    2SBC   C00X 1146   7.284   1.405  12.590
    2SBC   C00P 1147   7.119   1.559  12.689
    2SBC   C00O 1148   7.035   1.669  12.661
    2SBC   C00K 1149   6.890   1.875  12.984
    2SBC   N000 1150   6.840   2.121  12.739
    2SBC   C00L 1151   6.860   1.968  13.076
    2SBC   H004 1152   6.539   2.636  12.960
    2SBC   C02Q 1153   6.706   2.413  13.170
    2SBC   C00E 1154   6.841   2.182  13.234
    2SBC   C030 1155   6.883   2.384  13.555
    2SBC   O003 1156   6.939   2.373  13.678
    2SBC   C02S 1157   6.976   2.056  13.401
    2SBC   C038 1158   7.014   2.261  13.703
    2SBC   C03L 1159   7.076   2.260  13.827
    2SBC   H008 1160   7.067   2.349  13.887
    2SBC   C02V 1161   7.130   1.947  13.554
    2SBC   C03K 1162   7.167   2.164  13.856
    2SBC   C0BK 1163   7.239   2.164  13.971
    2SBC   H00T 1164   7.211   2.242  14.040
    2SBC   C03H 1165   7.299   1.852  13.700
    2SBC   C0BL 1166   7.346   2.082  14.004
    2SBC   C0GU 1167   7.424   2.098  14.125
    2SBC   H01O 1168   7.399   2.176  14.196
    2SBC   C0GT 1169   7.541   2.033  14.164
    2SBC   H01P 1170   7.601   2.058  14.250
    2SBC   C0GS 1171   7.567   1.930  14.074
    2SBC   C0GV 1172   7.682   1.843  14.088
    2SBC   C0GW 1173   7.796   1.846  14.178
    2SBC   H01Q 1174   7.799   1.907  14.266
    2SBC   C0GX 1175   7.888   1.752  14.154
    2SBC   H01R 1176   7.969   1.740  14.224
    2SBC   O00L 1177   7.889   1.656  14.053
    2SBC   C0GQ 1178   7.669   1.745  13.987
    2SBC   C03A 1179   7.401   1.748  13.715
    2SBC   C05L 1180   7.778   1.653  13.968
    2SBC   C04W 1181   8.124   1.255  13.677
    2SBC   C05I 1182   8.245   1.187  13.685
    2SBC   C05O 1183   8.332   1.206  13.789
    2SBC   C052 1184   8.282   1.097  13.580
    2SBC   C04V 1185   8.033   1.217  13.575
    2SBC   C04U 1186   8.071   1.131  13.473
    2SBC   N009 1187   8.300   1.300  13.884
    2SBC   C0GP 1188   8.443   1.125  13.807
    2SBC   C05W 1189   8.483   1.040  13.702
    2SBC   C07D 1190   8.765   0.809  13.639
    2SBC   C06J 1191   8.616   0.792  13.393
    2SBC   C05P 1192   8.401   1.026  13.591
    2SBC   C05R 1193   8.417   0.854  13.271
    2SBC   C04Z 1194   8.202   1.076  13.473
    2SBC   C04C 1195   8.209   0.903  13.157
    2SBC   C04G 1196   8.020   0.974  13.025
    2SBC   C04J 1197   7.780   1.111  13.000
    2SBC   C04T 1198   7.988   1.104  13.367
    2SBC   N003 1199   7.903   1.272  13.573
    2SBC   C04P 1200   7.739   1.428  13.662
    2SBC   C03D 1201   7.497   1.558  13.633
    2SBC   C021 1202   7.359   1.553  13.402
    2SBC   C03F 1203   7.622   1.308  13.335
    2SBC   C022 1204   7.326   1.464  13.185
    2SBC   C02A 1205   7.610   1.246  13.104
    2SBC   C023 1206   7.319   1.411  12.953
    2SBC   C025 1207   7.449   1.305  12.722
    2SBC   C02D 1208   7.520   1.269  12.605
    2SBC   C02E 1209   7.474   1.302  12.481
    2SBC   C02N 1210   7.534   1.267  12.360
    2SBC   C04N 1211   7.671   1.190  12.988
    2SBC   C02P 1212   7.634   1.198  12.610
    2SBC   C04I 1213   7.838   1.053  12.886
    2SBC   C044 1214   7.972   0.968  12.659
    2SBC   C043 1215   7.700   1.150  12.498
    2SBC   C05N 1216   7.645   1.188  12.369
    2SBC   C09U 1217   7.872   1.075  12.033
    2SBC   C09V 1218   7.954   1.041  11.929
    2SBC   C09X 1219   7.916   1.066  11.801
    2SBC   C09Y 1220   7.996   1.050  11.691
    2SBC   C0A1 1221   8.122   1.003  11.707
    2SBC   C0A2 1222   8.160   0.963  11.833
    2SBC   C0A4 1223   8.280   0.897  11.852
    2SBC   C071 1224   8.316   0.848  11.973
    2SBC   C0A5 1225   8.432   0.778  11.990
    2SBC   C0A9 1226   8.505   0.745  11.879
    2SBC   C0A8 1227   8.470   0.790  11.755
    2SBC   C0AP 1228   8.544   0.757  11.648
    2SBC   C0BY 1229   8.506   0.813  11.529
    2SBC   C0BX 1230   8.398   0.895  11.506
    2SBC   C0C2 1231   8.364   0.939  11.376
    2SBC   C0C3 1232   8.247   1.017  11.359
    2SBC   C0CT 1233   8.161   1.032  11.468
    2SBC   C0C1 1234   8.439   0.903  11.268
    2SBC   C0C0 1235   8.545   0.794  11.282
    2SBC   C0A7 1236   8.325   0.927  11.614
    2SBC   C0BZ 1237   8.567   0.756  11.414
    2SBC   C0BO 1238   8.667   0.666  11.423
    2SBC   C0BN 1239   8.714   0.616  11.546
    2SBC   C0BM 1240   8.813   0.523  11.543
    2SBC   C0B9 1241   8.856   0.477  11.667
    2SBC   C0B8 1242   8.794   0.528  11.784
    2SBC   C0AD 1243   8.682   0.612  11.777
    2SBC   C0AF 1244   8.835   0.478  11.907
    2SBC   C0AG 1245   8.943   0.393  11.922
    2SBC   C0B7 1246   8.995   0.338  11.805
    2SBC   C0AE 1247   8.764   0.534  12.012
    2SBC   C0AB 1248   8.657   0.619  12.011
    2SBC   C0AA 1249   8.591   0.670  12.120
    2SBC   C0AJ 1250   8.810   0.498  12.135
    2SBC   C0AK 1251   8.748   0.547  12.247
    2SBC   C06W 1252   8.822   0.503  12.354
    2SBC   C0AI 1253   8.923   0.420  12.164
    2SBC   C0BP 1254   8.705   0.621  11.297
    2SBC   C0BQ 1255   8.804   0.513  11.297
    2SBC   C0BW 1256   8.649   0.664  11.657
    2SBC   C0AC 1257   8.620   0.661  11.886
    2SBC   C0A6 1258   8.358   0.870  11.738
    2SBC   C0A3 1259   8.204   0.992  11.594
    2SBC   C09Z 1260   7.948   1.083  11.562
    2SBC   C09W 1261   8.081   0.988  11.943
    2SBC   C072 1262   8.116   0.946  12.068
    2SBC   C09H 1263   7.784   1.094  11.779
    2SBC   C09G 1264   7.743   1.126  11.655
    2SBC   C09P 1265   7.617   1.178  11.664
    2SBC   C02O 1266   7.469   1.295  12.000
    2SBC   C02M 1267   7.482   1.306  12.237
    2SBC   C02F 1268   7.355   1.369  12.475
    2SBC   C00W 1269   7.176   1.491  12.584
    2SBC   C01R 1270   7.005   1.721  12.532
    2SBC   C01N 1271   7.147   1.544  12.250
    2SBC   C01L 1272   7.158   1.640  12.027
    2SBC   C01H 1273   7.012   1.928  11.888
    2SBC   C01K 1274   6.966   1.864  12.255
    2SBC   C01E 1275   6.876   2.118  12.250
    2SBC   C01G 1276   6.956   2.068  11.882
    2SBC   C01D 1277   6.836   2.251  12.251
    2SBC   C01A 1278   6.726   2.508  12.240
    2SBC   H001 1279   6.670   2.601  12.238
    2SBC   C01F 1280   6.858   2.330  11.886
    2SBC   C03P 1281   6.833   2.482  11.657
    2SBC   C03T 1282   6.916   2.308  11.525
    2SBC   C08I 1283   7.034   2.198  11.298
    2SBC   C08J 1284   7.103   2.140  11.192
    2SBC   C08L 1285   7.239   1.955  11.097
    2SBC   C093 1286   7.390   1.774  11.011
    2SBC   C08Z 1287   7.319   1.632  11.253
    2SBC   C09T 1288   7.695   1.411  11.041
    2SBC   C09S 1289   7.472   1.365  11.308
    2SBC   C09Q 1290   7.560   1.234  11.551
    2SBC   C09F 1291   7.822   1.129  11.540
    2SBC   C09E 1292   7.781   1.251  11.207
    2SBC   C0A0 1293   8.033   1.085  11.449
    2SBC   C0CU 1294   8.207   1.063  11.233
    2SBC   C0CR 1295   8.287   1.028  11.120
    2SBC   C0CZ 1296   8.238   1.062  10.991
    2SBC   C0DA 1297   7.814   1.320  11.087
    2SBC   C0D9 1298   7.855   1.181  10.805
    2SBC   H00V 1299   7.759   1.154  10.847
    2SBC   C0CY 1300   8.129   1.159  10.979
    2SBC   C0DF 1301   7.933   1.110  10.706
    2SBC   C0DE 1302   7.925   0.994  10.617
    2SBC   C0GI 1303   7.829   0.944  10.522
    2SBC   H01K 1304   7.728   0.982  10.515
    2SBC   C0GJ 1305   7.868   0.833  10.451
    2SBC   H01J 1306   7.791   0.777  10.400
    2SBC   O00I 1307   7.994   0.777  10.437
    2SBC   C0GH 1308   8.085   0.814  10.531
    2SBC   C0GG 1309   8.207   0.739  10.537
    2SBC   O00G 1310   8.215   0.641  10.447
    2SBC   C0G8 1311   8.318   0.559  10.435
    2SBC   C0G9 1312   8.310   0.474  10.323
    2SBC   H01G 1313   8.220   0.478  10.263
    2SBC   C0GA 1314   8.416   0.389  10.298
    2SBC   H01H 1315   8.420   0.330  10.208
    2SBC   C0GB 1316   8.527   0.373  10.384
    2SBC   C0EP 1317   8.521   0.451  10.505
    2SBC   C0E8 1318   8.611   0.417  10.613
    2SBC   C0CK 1319   8.635   0.459  10.750
    2SBC   C0CL 1320   8.633   0.599  10.770
    2SBC   C0E9 1321   8.541   0.686  10.702
    2SBC   C0GE 1322   8.430   0.668  10.609
    2SBC   C0E7 1323   8.722   0.339  10.582
    2SBC   C0CJ 1324   8.818   0.329  10.688
    2SBC   C0E6 1325   8.942   0.273  10.667
    2SBC   H00Y 1326   9.015   0.270  10.746
    2SBC   C0EO 1327   8.961   0.216  10.541
    2SBC   H011 1328   9.056   0.165  10.532
    2SBC   C0G6 1329   8.862   0.207  10.438
    2SBC   C0G5 1330   8.868   0.148  10.307
    2SBC   H01F 1331   8.964   0.109  10.275
    2SBC   C0GD 1332   8.765   0.155  10.217
    2SBC   H01I 1333   8.776   0.119  10.116
    2SBC   O00H 1334   8.642   0.207  10.245
    2SBC   C0EQ 1335   8.736   0.274  10.455
    2SBC   C0GC 1336   8.633   0.280  10.360
    2SBC   C0G7 1337   8.429   0.559  10.522
    2SBC   C0DD 1338   8.057   0.930  10.615
    2SBC   C0GF 1339   8.322   0.769  10.612
    2SBC   C0CO 1340   8.562   0.804  10.772
    2SBC   C0D0 1341   8.302   0.996  10.882
    2SBC   C0C4 1342   8.402   0.946  11.139
    2SBC   C0CN 1343   8.657   0.801  10.875
    2SBC   C0CP 1344   8.629   0.707  11.206
    2SBC   C0CM 1345   8.711   0.670  10.872
    2SBC   C0CI 1346   8.754   0.391  10.803
    2SBC   C0CD 1347   9.010   0.128  11.109
    2SBC   C0BR 1348   8.840   0.446  11.176
    2SBC   C0CS 1349   8.857   0.472  11.423
    2SBC   C0B6 1350   8.951   0.385  11.680
    2SBC   C0CG 1351   9.074   0.194  11.331
    2SBC   C0CF 1352   9.085   0.106  11.227
    2SBC   C0E5 1353   9.093  -0.082  11.023
    2SBC   C0DT 1354   9.277  -0.292  11.029
    2SBC   C0DL 1355   9.320  -0.143  11.365
    2SBC   C0DM 1356   9.381  -0.175  11.483
    2SBC   C0DY 1357   9.488  -0.364  11.376
    2SBC   C0DU 1358   9.382  -0.380  11.028
    2SBC   C0F0 1359   9.472  -0.576  10.927
    2SBC   C0F4 1360   9.577  -0.826  10.965
    2SBC   C0FG 1361   9.710  -0.641  11.255
    2SBC   O00B 1362   9.679  -0.976  11.124
    2SBC   C0FN 1363   9.747  -0.699  11.368
    2SBC   C0DZ 1364   9.573  -0.476  11.384
    2SBC   O00C 1365   9.618  -0.490  11.753
    2SBC   C0FR 1366   9.592  -0.427  11.867
    2SBC   O00D 1367   9.630  -0.488  11.967
    2SBC   C0E0 1368   9.456  -0.288  11.492
    2SBC   C0E3 1369   9.518  -0.305  11.855
    2SBC   C0AW 1370   9.493  -0.225  11.968
    2SBC   C0AV 1371   9.534  -0.255  12.102
    2SBC   H00Q 1372   9.595  -0.340  12.129
    2SBC   C0AU 1373   9.502  -0.172  12.210
    2SBC   H00R 1374   9.546  -0.200  12.304
    2SBC   C0AT 1375   9.407  -0.071  12.196
    2SBC   C0AS 1376   9.325   0.018  12.276
    2SBC   C0AR 1377   9.329   0.008  12.419
    2SBC   C0BE 1378   9.380  -0.038  12.060
    2SBC   C0DN 1379   9.353  -0.097  11.592
    2SBC   C0AX 1380   9.421  -0.107  11.948
    2SBC   C0BB 1381   9.236   0.086  11.701
    2SBC   C0BD 1382   9.291   0.064  12.061
    2SBC   C0B2 1383   9.096   0.250  11.821
    2SBC   C0AH 1384   8.987   0.356  12.049
    2SBC   C0BF 1385   9.243   0.102  12.189
    2SBC   C0AL 1386   8.923   0.410  12.308
    2SBC   C07U 1387   9.163   0.201  12.471
    2SBC   C0AQ 1388   9.263   0.105  12.497
    2SBC   C0BG 1389   9.440  -0.050  12.496
    2SBC   C0FY 1390   9.426  -0.074  12.850
    2SBC   C0BJ 1391   9.465  -0.191  12.525
    2SBC   H00S 1392   9.441  -0.279  12.467
    2SBC   C0FZ 1393   9.465  -0.198  12.892
    2SBC   C07S 1394   9.337   0.005  12.923
    2SBC   C0G1 1395   9.328  -0.200  13.225
    2SBC   C07K 1396   9.087   0.058  13.337
    2SBC   C07H 1397   9.137   0.141  13.071
    2SBC   C06B 1398   9.067   0.450  13.232
    2SBC   C06N 1399   8.889   0.502  13.096
    2SBC   C066 1400   9.085   0.272  12.854
    2SBC   C062 1401   8.923   0.438  12.646
    2SBC   C05Y 1402   8.715   0.599  12.939
    2SBC   C061 1403   8.853   0.552  12.593
    2SBC   C05H 1404   8.524   0.684  12.668
    2SBC   C06V 1405   8.781   0.557  12.476
    2SBC   C06Y 1406   8.631   0.628  12.246
    2SBC   C05C 1407   8.371   0.774  12.464
    2SBC   C06Z 1408   8.479   0.743  12.112
    2SBC   C070 1409   8.238   0.877  12.086
    2SBC   C05B 1410   8.245   0.836  12.449
    2SBC   C057 1411   8.003   0.972  12.420
    2SBC   C059 1412   8.036   0.973  12.182
    3SBC   C058 1413   1.570   4.989  12.581
    3SBC   C05A 1414   1.551   5.109  12.652
    3SBC   C06Q 1415   1.531   5.106  12.788
    3SBC   C06R 1416   1.525   5.226  12.862
    3SBC   C06S 1417   1.523   5.352  12.804
    3SBC   C06T 1418   1.515   5.468  12.880
    3SBC   C06U 1419   1.513   5.612  12.851
    3SBC   C06X 1420   1.537   5.681  12.733
    3SBC   C060 1421   1.508   5.821  12.752
    3SBC   C05Z 1422   1.575   5.940  12.698
    3SBC   C068 1423   1.577   6.045  12.809
    3SBC   C067 1424   1.587   6.194  12.804
    3SBC   C069 1425   1.596   6.263  12.675
    3SBC   C06A 1426   1.592   6.404  12.643
    3SBC   C073 1427   1.645   6.514  12.717
    3SBC   C07P 1428   1.727   6.606  12.645
    3SBC   C07O 1429   1.776   6.593  12.514
    3SBC   H00D 1430   1.755   6.500  12.465
    3SBC   C07N 1431   1.840   6.688  12.444
    3SBC   H00E 1432   1.876   6.674  12.344
    3SBC   C07M 1433   1.863   6.811  12.506
    3SBC   H00F 1434   1.910   6.883  12.441
    3SBC   C07L 1435   1.828   6.826  12.645
    3SBC   C07Q 1436   1.864   6.944  12.721
    3SBC   H00G 1437   1.921   7.017  12.665
    3SBC   O00F 1438   1.837   6.957  12.855
    3SBC   C07J 1439   1.763   6.860  12.914
    3SBC   C07I 1440   1.722   6.740  12.846
    3SBC   N004 1441   1.640   6.648  12.916
    3SBC   C07R 1442   1.591   6.683  13.044
    3SBC   C07T 1443   1.649   6.791  13.105
    3SBC   C0FX 1444   1.640   6.807  13.244
    3SBC   C0FW 1445   1.718   6.892  13.322
    3SBC   C0G0 1446   1.798   6.986  13.253
    3SBC   C0G2 1447   1.874   7.073  13.325
    3SBC   H01E 1448   1.933   7.145  13.271
    3SBC   C0G3 1449   1.879   7.069  13.463
    3SBC   H01C 1450   1.945   7.141  13.508
    3SBC   C0G4 1451   1.795   6.984  13.536
    3SBC   H01D 1452   1.799   6.987  13.644
    3SBC   O00E 1453   1.803   6.970  13.116
    3SBC   C0FV 1454   1.707   6.893  13.465
    3SBC   C0FU 1455   1.610   6.808  13.530
    3SBC   H01B 1456   1.610   6.801  13.638
    3SBC   C0FT 1457   1.519   6.735  13.441
    3SBC   C0FS 1458   1.426   6.626  13.460
    3SBC   C0BI 1459   1.374   6.581  13.338
    3SBC   C0BH 1460   1.354   6.441  13.348
    3SBC   C07F 1461   1.408   6.340  13.262
    3SBC   C07E 1462   1.459   6.355  13.134
    3SBC   C07G 1463   1.495   6.469  13.064
    3SBC   C074 1464   1.558   6.424  12.943
    3SBC   C065 1465   1.513   6.246  13.055
    3SBC   C064 1466   1.518   6.125  13.126
    3SBC   C063 1467   1.554   5.996  13.077
    3SBC   C075 1468   1.556   5.909  13.203
    3SBC   C0AM 1469   1.529   5.986  13.319
    3SBC   C0AN 1470   1.537   5.939  13.458
    3SBC   C0AO 1471   1.557   5.801  13.515
    3SBC   C0B1 1472   1.587   5.774  13.653
    3SBC   C0B0 1473   1.599   5.880  13.739
    3SBC   C0AZ 1474   1.627   5.874  13.877
    3SBC   C0AY 1475   1.623   5.990  13.959
    3SBC   N007 1476   1.667   5.981  14.090
    3SBC   C0E2 1477   1.678   6.100  14.166
    3SBC   C0E1 1478   1.747   6.085  14.284
    3SBC   C0E4 1479   1.772   6.205  14.362
    3SBC   C0FF 1480   1.833   6.204  14.491
    3SBC   C0FJ 1481   1.853   6.308  14.593
    3SBC   C0FK 1482   1.781   6.426  14.610
    3SBC   H016 1483   1.722   6.487  14.542
    3SBC   C0FL 1484   1.776   6.451  14.756
    3SBC   H017 1485   1.716   6.521  14.812
    3SBC   C0FM 1486   1.853   6.349  14.822
    3SBC   C0FH 1487   1.876   6.275  14.946
    3SBC   C0FI 1488   1.922   6.154  14.890
    3SBC   C0F3 1489   1.879   6.034  14.956
    3SBC   C0F2 1490   1.884   5.924  14.876
    3SBC   C0DW 1491   1.881   5.929  14.734
    3SBC   C0FE 1492   1.904   6.044  14.669
    3SBC   C0DV 1493   1.835   5.817  14.662
    3SBC   C0DX 1494   1.811   5.830  14.526
    3SBC   C0DK 1495   1.767   5.715  14.459
    3SBC   C0DJ 1496   1.744   5.596  14.528
    3SBC   C0DI 1497   1.721   5.482  14.462
    3SBC   C0DH 1498   1.705   5.488  14.326
    3SBC   C0DG 1499   1.716   5.610  14.256
    3SBC   C0BV 1500   1.691   5.618  14.119
    3SBC   C0BC 1501   1.674   5.742  14.063
    3SBC   C0BA 1502   1.670   5.501  14.050
    3SBC   C0B4 1503   1.647   5.513  13.912
    3SBC   C0B3 1504   1.631   5.635  13.848
    3SBC   C0B5 1505   1.628   5.397  13.838
    3SBC   C0BU 1506   1.633   5.267  13.901
    3SBC   C0BT 1507   1.653   5.252  14.038
    3SBC   C0BS 1508   1.669   5.129  14.102
    3SBC   C0CC 1509   1.693   5.131  14.240
    3SBC   C0CB 1510   1.720   5.008  14.301
    3SBC   C0CH 1511   1.699   5.009  14.443
    3SBC   C0DO 1512   1.690   5.126  14.519
    3SBC   C0DP 1513   1.672   5.124  14.661
    3SBC   C0EA 1514   1.637   5.004  14.737
    3SBC   H012 1515   1.631   4.911  14.682
    3SBC   O009 1516   1.597   5.010  14.868
    3SBC   C0EH 1517   1.601   5.123  14.930
    3SBC   C0EG 1518   1.569   5.121  15.065
    3SBC   C0EJ 1519   1.508   5.026  15.155
    3SBC   H010 1520   1.499   4.921  15.130
    3SBC   C0EK 1521   1.477   5.093  15.281
    3SBC   H00Z 1522   1.437   5.045  15.370
    3SBC   C0EL 1523   1.529   5.223  15.263
    3SBC   C0EM 1524   1.535   5.334  15.356
    3SBC   C0EW 1525   1.498   5.337  15.496
    3SBC   H013 1526   1.453   5.250  15.542
    3SBC   C0EX 1527   1.524   5.459  15.576
    3SBC   H014 1528   1.486   5.461  15.677
    3SBC   C0F1 1529   1.577   5.578  15.512
    3SBC   C0EU 1530   1.605   5.575  15.376
    3SBC   C0ET 1531   1.663   5.679  15.301
    3SBC   C0ES 1532   1.673   5.613  15.177
    3SBC   C0EE 1533   1.632   5.476  15.170
    3SBC   C0ED 1534   1.631   5.362  15.087
    3SBC   C0EC 1535   1.662   5.367  14.946
    3SBC   C0EB 1536   1.725   5.470  14.878
    3SBC   C0EN 1537   1.758   5.598  14.945
    3SBC   C0ER 1538   1.824   5.692  14.863
    3SBC   C0DS 1539   1.732   5.476  14.739
    3SBC   C0DR 1540   1.702   5.362  14.665
    3SBC   C0EY 1541   1.740   5.665  15.071
    3SBC   C0EZ 1542   1.790   5.796  15.072
    3SBC   C0F5 1543   1.788   5.921  15.155
    3SBC   C0F6 1544   1.737   5.924  15.287
    3SBC   N008 1545   1.758   6.046  15.354
    3SBC   C0F7 1546   1.801   6.167  15.295
    3SBC   C0FQ 1547   1.812   6.286  15.374
    3SBC   H018 1548   1.843   6.376  15.321
    3SBC   C0FP 1549   1.808   6.282  15.513
    3SBC   H019 1550   1.820   6.365  15.581
    3SBC   C0FO 1551   1.768   6.159  15.571
    3SBC   H01A 1552   1.763   6.158  15.679
    3SBC   C0F8 1553   1.820   6.162  15.152
    3SBC   C0F9 1554   1.740   6.046  15.494
    3SBC   C0FA 1555   1.688   5.939  15.571
    3SBC   H015 1556   1.678   5.947  15.678
    3SBC   C0FB 1557   1.653   5.816  15.500
    3SBC   C0FD 1558   1.680   5.811  15.361
    3SBC   C0FC 1559   1.598   5.703  15.575
    3SBC   O00A 1560   1.579   5.707  15.697
    3SBC   C0EV 1561   1.591   5.455  15.304
    3SBC   C0EF 1562   1.583   5.240  15.135
    3SBC   C0EI 1563   1.646   5.247  14.873
    3SBC   C0DQ 1564   1.667   5.244  14.734
    3SBC   C0CE 1565   1.704   5.247  14.451
    3SBC   H00U 1566   1.694   4.914  14.493
    3SBC   C0CA 1567   1.752   4.887  14.228
    3SBC   C0C9 1568   1.717   4.885  14.085
    3SBC   C0C8 1569   1.746   4.770  14.000
    3SBC   C0C7 1570   1.694   4.715  13.873
    3SBC   C0C6 1571   1.764   4.596  13.834
    3SBC   C0C5 1572   1.729   4.482  13.754
    3SBC   C0CQ 1573   1.776   4.356  13.790
    3SBC   C0D1 1574   1.842   4.341  13.910
    3SBC   C0D8 1575   1.794   4.235  13.975
    3SBC   C0D7 1576   1.709   4.166  13.884
    3SBC   C0D6 1577   1.673   4.026  13.897
    3SBC   C0D5 1578   1.628   3.960  13.774
    3SBC   C0D4 1579   1.553   3.990  13.660
    3SBC   C0D3 1580   1.597   3.898  13.558
    3SBC   C0CX 1581   1.598   3.962  13.429
    3SBC   C0CW 1582   1.570   4.105  13.456
    3SBC   C0CV 1583   1.546   4.228  13.380
    3SBC   C0D2 1584   1.514   4.234  13.241
    3SBC   C09D 1585   1.508   4.121  13.158
    3SBC   C09C 1586   1.502   4.133  13.015
    3SBC   C09B 1587   1.507   4.033  12.914
    3SBC   C09A 1588   1.520   3.898  12.958
    3SBC   C099 1589   1.517   3.879  13.091
    3SBC   C098 1590   1.555   3.748  13.114
    3SBC   C08Y 1591   1.611   3.697  12.989
    3SBC   C08X 1592   1.695   3.581  12.965
    3SBC   C08W 1593   1.742   3.502  13.072
    3SBC   C08U 1594   1.728   3.530  13.213
    3SBC   C08V 1595   1.671   3.633  13.294
    3SBC   C0DC 1596   1.668   3.586  13.424
    3SBC   H00W 1597   1.607   3.640  13.496
    3SBC   C0DB 1598   1.730   3.461  13.439
    3SBC   H00X 1599   1.748   3.408  13.531
    3SBC   C08T 1600   1.762   3.428  13.302
    3SBC   C08S 1601   1.829   3.315  13.264
    3SBC   H00N 1602   1.845   3.235  13.334
    3SBC   C08R 1603   1.864   3.291  13.131
    3SBC   C08Q 1604   1.932   3.178  13.085
    3SBC   H00O 1605   1.964   3.098  13.151
    3SBC   C08P 1606   1.977   3.154  12.953
    3SBC   C08O 1607   2.063   3.048  12.921
    3SBC   H00P 1608   2.091   2.992  13.009
    3SBC   C08N 1609   2.108   3.038  12.786
    3SBC   C08M 1610   2.198   2.928  12.758
    3SBC   O008 1611   2.238   2.848  12.839
    3SBC   O007 1612   2.249   2.920  12.628
    3SBC   C08H 1613   2.222   3.018  12.530
    3SBC   C08G 1614   2.289   3.021  12.398
    3SBC   C03V 1615   2.382   2.935  12.339
    3SBC   H009 1616   2.408   2.847  12.396
    3SBC   C03U 1617   2.442   2.951  12.212
    3SBC   C03W 1618   2.533   2.857  12.152
    3SBC   H00A 1619   2.541   2.765  12.208
    3SBC   C03X 1620   2.589   2.883  12.038
    3SBC   H00B 1621   2.647   2.798  12.004
    3SBC   O005 1622   2.577   3.004  11.969
    3SBC   C03O 1623   2.495   3.097  12.023
    3SBC   C03N 1624   2.465   3.218  11.965
    3SBC   O000 1625   2.538   3.249  11.848
    3SBC   C019 1626   2.522   3.371  11.790
    3SBC   C018 1627   2.431   3.463  11.835
    3SBC   C017 1628   2.350   3.434  11.950
    3SBC   C016 1629   2.253   3.525  11.991
    3SBC   C015 1630   2.245   3.643  11.907
    3SBC   C014 1631   2.132   3.721  11.931
    3SBC   C013 1632   2.051   3.717  12.046
    3SBC   C012 1633   1.974   3.842  12.041
    3SBC   C011 1634   2.007   3.903  11.918
    3SBC   C010 1635   1.949   4.018  11.882
    3SBC   C00Z 1636   1.987   4.108  11.778
    3SBC   C00Y 1637   1.916   4.225  11.812
    3SBC   C01O 1638   1.836   4.210  11.922
    3SBC   C01P 1639   1.821   4.323  12.007
    3SBC   C02L 1640   1.769   4.292  12.130
    3SBC   C02K 1641   1.772   4.157  12.169
    3SBC   C01M 1642   1.826   4.044  12.096
    3SBC   C02J 1643   1.717   4.132  12.294
    3SBC   C02I 1644   1.698   4.014  12.365
    3SBC   C02H 1645   1.741   3.883  12.340
    3SBC   C01Q 1646   1.831   3.838  12.239
    3SBC   C02G 1647   1.870   3.705  12.276
    3SBC   C089 1648   1.780   3.666  12.383
    3SBC   C088 1649   1.826   3.558  12.457
    3SBC   C087 1650   1.937   3.512  12.366
    3SBC   C086 1651   2.018   3.395  12.382
    3SBC   C03S 1652   2.122   3.338  12.298
    3SBC   N006 1653   2.168   3.225  12.356
    3SBC   C08F 1654   2.106   3.211  12.477
    3SBC   C01J 1655   2.191   3.380  12.179
    3SBC   C03R 1656   2.295   3.286  12.128
    3SBC   C03Q 1657   2.323   3.165  12.192
    3SBC   C08E 1658   2.017   3.316  12.502
    3SBC   C08D 1659   1.949   3.327  12.627
    3SBC   C08K 1660   1.986   3.234  12.727
    3SBC   C08C 1661   1.856   3.431  12.670
    3SBC   C091 1662   1.824   3.444  12.808
    3SBC   C092 1663   1.862   3.359  12.906
    3SBC   C08B 1664   1.800   3.537  12.603
    3SBC   C090 1665   1.715   3.604  12.700
    3SBC   C094 1666   1.635   3.718  12.666
    3SBC   C095 1667   1.582   3.805  12.759
    3SBC   C09R 1668   1.563   3.930  12.702
    3SBC   C097 1669   1.614   3.932  12.575
    3SBC   C096 1670   1.654   3.803  12.551
    3SBC   C01I 1671   1.962   3.598  12.249
    3SBC   C08A 1672   1.721   3.781  12.431
    3SBC   C09L 1673   1.634   4.041  12.488
    3SBC   C09K 1674   1.601   4.176  12.491
    3SBC   C09J 1675   1.576   4.247  12.609
    3SBC   C09I 1676   1.566   4.387  12.631
    3SBC   C09O 1677   1.596   4.507  12.559
    3SBC   C09N 1678   1.648   4.500  12.426
    3SBC   C09M 1679   1.675   4.383  12.342
    3SBC   C06O 1680   1.665   4.626  12.361
    3SBC   C05M 1681   1.633   4.746  12.437
    3SBC   C06P 1682   1.589   4.745  12.570
    3SBC   C042 1683   1.652   4.873  12.381
    3SBC   C041 1684   1.717   4.889  12.261
    3SBC   C040 1685   1.742   5.018  12.206
    3SBC   C03Z 1686   1.808   5.028  12.086
    3SBC   C03Y 1687   1.849   4.911  12.018
    3SBC   C027 1688   1.923   4.926  11.900
    3SBC   C026 1689   1.963   4.810  11.828
    3SBC   C028 1690   2.037   4.825  11.713
    3SBC   C029 1691   2.072   4.949  11.666
    3SBC   C02B 1692   2.155   4.959  11.559
    3SBC   C02C 1693   2.203   5.082  11.526
    3SBC   C02X 1694   2.291   5.091  11.421
    3SBC   C03E 1695   2.344   5.215  11.386
    3SBC   C03G 1696   2.316   5.327  11.453
    3SBC   C04Q 1697   2.225   5.320  11.558
    3SBC   C04R 1698   2.183   5.433  11.624
    3SBC   C04S 1699   2.096   5.422  11.728
    3SBC   C04L 1700   2.051   5.296  11.771
    3SBC   C04M 1701   2.084   5.182  11.699
    3SBC   C04K 1702   1.965   5.290  11.875
    3SBC   C04F 1703   1.922   5.406  11.938
    3SBC   C04E 1704   1.968   5.529  11.897
    3SBC   C04D 1705   1.930   5.644  11.966
    3SBC   C050 1706   1.975   5.766  11.922
    3SBC   C051 1707   1.932   5.880  11.997
    3SBC   C05Q 1708   1.954   6.004  11.941
    3SBC   C05V 1709   1.894   6.113  11.994
    3SBC   N005 1710   1.908   6.233  11.932
    3SBC   C07V 1711   1.991   6.244  11.821
    3SBC   C082 1712   2.001   6.368  11.754
    3SBC   C081 1713   1.927   6.482  11.793
    3SBC   C07C 1714   1.848   6.465  11.906
    3SBC   C07B 1715   1.765   6.574  11.953
    3SBC   C080 1716   1.757   6.694  11.878
    3SBC   C07Z 1717   1.671   6.794  11.923
    3SBC   H00L 1718   1.663   6.880  11.857
    3SBC   C079 1719   1.594   6.789  12.041
    3SBC   C078 1720   1.609   6.670  12.113
    3SBC   C077 1721   1.529   6.654  12.230
    3SBC   C07X 1722   1.438   6.751  12.272
    3SBC   H00I 1723   1.372   6.745  12.357
    3SBC   C07Y 1724   1.426   6.869  12.200
    3SBC   H00H 1725   1.353   6.939  12.238
    3SBC   C076 1726   1.542   6.538  12.302
    3SBC   C06C 1727   1.507   6.538  12.436
    3SBC   H00C 1728   1.472   6.626  12.488
    3SBC   C06F 1729   1.608   6.427  12.245
    3SBC   C06E 1730   1.610   6.305  12.313
    3SBC   C06G 1731   1.677   6.195  12.274
    3SBC   C06H 1732   1.751   6.205  12.158
    3SBC   C06I 1733   1.754   6.326  12.086
    3SBC   C06L 1734   1.678   6.080  12.355
    3SBC   C06M 1735   1.630   6.071  12.489
    3SBC   C06K 1736   1.728   5.968  12.290
    3SBC   C05S 1737   1.802   5.976  12.170
    3SBC   C05U 1738   1.701   5.843  12.349
    3SBC   C05X 1739   1.634   5.833  12.472
    3SBC   C05G 1740   1.600   5.694  12.492
    3SBC   C05F 1741   1.610   5.590  12.399
    3SBC   C05E 1742   1.583   5.465  12.451
    3SBC   C048 1743   1.625   5.349  12.391
    3SBC   C056 1744   1.608   5.236  12.460
    3SBC   C045 1745   1.634   5.119  12.390
    3SBC   C047 1746   1.689   5.365  12.273
    3SBC   C049 1747   1.725   5.493  12.226
    3SBC   C04B 1748   1.810   5.503  12.117
    3SBC   C046 1749   1.724   5.255  12.212
    3SBC   C04H 1750   1.807   5.267  12.101
    3SBC   C05D 1751   1.546   5.478  12.583
    3SBC   C04A 1752   1.690   5.604  12.292
    3SBC   C05T 1753   1.739   5.731  12.269
    3SBC   C055 1754   1.817   5.742  12.156
    3SBC   C06D 1755   1.583   6.305  12.451
    3SBC   C07W 1756   1.679   6.437  12.131
    3SBC   C085 1757   1.507   6.890  12.088
    3SBC   H00M 1758   1.502   6.980  12.028
    3SBC   C084 1759   1.834   6.700  11.758
    3SBC   H00J 1760   1.827   6.787  11.695
    3SBC   C07A 1761   1.683   6.562  12.064
    3SBC   C083 1762   1.918   6.599  11.727
    3SBC   H00K 1763   1.973   6.612  11.635
    3SBC   O00K 1764   2.092   6.381  11.650
    3SBC   C0GO 1765   2.156   6.271  11.600
    3SBC   C0GN 1766   2.252   6.286  11.499
    3SBC   H01L 1767   2.266   6.381  11.448
    3SBC   C0GM 1768   2.338   6.178  11.467
    3SBC   C0GL 1769   2.447   6.195  11.388
    3SBC   H01M 1770   2.454   6.295  11.349
    3SBC   O00J 1771   2.534   6.093  11.354
    3SBC   C0GK 1772   2.488   5.965  11.394
    3SBC   H01N 1773   2.568   5.892  11.391
    3SBC   C05K 1774   2.372   5.945  11.462
    3SBC   C05J 1775   2.334   5.810  11.502
    3SBC   C04Y 1776   2.387   5.688  11.445
    3SBC   C04X 1777   2.332   5.562  11.479
    3SBC   O006 1778   2.466   5.697  11.326
    3SBC   C053 1779   2.519   5.581  11.274
    3SBC   C04O 1780   2.481   5.451  11.319
    3SBC   C03C 1781   2.524   5.328  11.274
    3SBC   C03B 1782   2.641   5.278  11.205
    3SBC   C054 1783   2.710   5.355  11.119
    3SBC   C0GR 1784   2.819   5.305  11.040
    3SBC   C03M 1785   2.878   5.168  11.012
    3SBC   C03I 1786   2.817   5.042  11.048
    3SBC   C03J 1787   2.887   4.921  11.021
    3SBC   N002 1788   2.830   4.791  11.053
    3SBC   C02U 1789   2.909   4.669  11.040
    3SBC   C02T 1790   2.856   4.546  11.077
    3SBC   C02Z 1791   2.931   4.436  11.061
    3SBC   N001 1792   2.878   4.304  11.093
    3SBC   C02R 1793   2.951   4.188  11.061
    3SBC   C032 1794   3.080   4.205  11.008
    3SBC   C031 1795   3.132   4.329  10.989
    3SBC   H007 1796   3.232   4.334  10.947
    3SBC   C033 1797   3.149   4.085  10.972
    3SBC   H003 1798   3.252   4.088  10.938
    3SBC   O004 1799   3.090   3.957  10.977
    3SBC   C034 1800   2.960   3.955  11.025
    3SBC   C035 1801   2.900   3.831  11.023
    3SBC   C036 1802   2.763   3.814  11.060
    3SBC   H005 1803   2.711   3.721  11.048
    3SBC   C037 1804   2.700   3.924  11.115
    3SBC   H006 1805   2.595   3.916  11.139
    3SBC   C00D 1806   2.763   4.053  11.130
    3SBC   C00C 1807   2.701   4.165  11.190
    3SBC   C00B 1808   2.572   4.163  11.264
    3SBC   C00A 1809   2.477   4.074  11.341
    3SBC   C009 1810   2.365   4.154  11.370
    3SBC   C008 1811   2.267   4.134  11.473
    3SBC   C007 1812   2.276   4.020  11.546
    3SBC   C006 1813   2.184   3.997  11.659
    3SBC   C005 1814   2.193   3.874  11.732
    3SBC   C004 1815   2.300   3.782  11.708
    3SBC   C003 1816   2.397   3.815  11.610
    3SBC   C002 1817   2.504   3.726  11.584
    3SBC   C01C 1818   2.506   3.608  11.651
    3SBC   C01B 1819   2.602   3.511  11.610
    3SBC   H000 1820   2.670   3.521  11.527
    3SBC   C001 1821   2.609   3.767  11.498
    3SBC   C000 1822   2.601   3.897  11.450
    3SBC   C01U 1823   2.736   3.929  11.417
    3SBC   H002 1824   2.777   4.021  11.379
    3SBC   C01T 1825   2.815   3.807  11.441
    3SBC   O002 1826   2.936   3.784  11.425
    3SBC   O001 1827   2.738   3.718  11.496
    3SBC   C01S 1828   2.382   3.930  11.527
    3SBC   C00N 1829   2.190   4.242  11.502
    3SBC   C00M 1830   2.216   4.372  11.453
    3SBC   C00J 1831   2.315   4.391  11.358
    3SBC   C00I 1832   2.369   4.510  11.322
    3SBC   C00H 1833   2.482   4.518  11.242
    3SBC   C00G 1834   2.553   4.408  11.210
    3SBC   C00F 1835   2.681   4.410  11.162
    3SBC   C01X 1836   2.534   4.645  11.209
    3SBC   C01W 1837   2.466   4.757  11.257
    3SBC   C01V 1838   2.357   4.750  11.341
    3SBC   C020 1839   2.298   4.856  11.399
    3SBC   C01Z 1840   2.519   4.880  11.228
    3SBC   C02Y 1841   2.450   4.983  11.279
    3SBC   C039 1842   2.504   5.110  11.245
    3SBC   C02W 1843   2.637   4.900  11.149
    3SBC   C01Y 1844   2.655   4.651  11.149
    3SBC   C00U 1845   2.313   4.625  11.377
    3SBC   C00S 1846   2.211   4.611  11.477
    3SBC   C00T 1847   2.159   4.723  11.537
    3SBC   C00R 1848   2.166   4.486  11.515
    3SBC   C00Q 1849   2.080   4.475  11.618
    3SBC   C00V 1850   2.039   4.591  11.686
    3SBC   C024 1851   1.954   4.583  11.797
    3SBC   C00X 1852   1.917   4.461  11.841
    3SBC   C00P 1853   2.050   4.349  11.669
    3SBC   C00O 1854   2.106   4.234  11.616
    3SBC   C00K 1855   2.381   4.278  11.312
    3SBC   N000 1856   2.490   3.971  11.442
    3SBC   C00L 1857   2.501   4.285  11.253
    3SBC   H004 1858   2.961   3.747  10.993
    3SBC   C02Q 1859   2.890   4.069  11.070
    3SBC   C00E 1860   2.752   4.290  11.148
    3SBC   C030 1861   3.059   4.448  11.009
    3SBC   O003 1862   3.113   4.563  10.962
    3SBC   C02S 1863   2.727   4.536  11.127
    3SBC   C038 1864   3.040   4.678  10.984
    3SBC   C03L 1865   3.081   4.803  10.941
    3SBC   H008 1866   3.179   4.800  10.895
    3SBC   C02V 1867   2.705   4.779  11.116
    3SBC   C03K 1868   3.013   4.921  10.962
    3SBC   C0BK 1869   3.062   5.049  10.931
    3SBC   H00T 1870   3.162   5.053  10.891
    3SBC   C03H 1871   2.688   5.027  11.115
    3SBC   C0BL 1872   3.006   5.175  10.947
    3SBC   C0GU 1873   3.061   5.296  10.900
    3SBC   H01O 1874   3.156   5.300  10.850
    3SBC   C0GT 1875   2.998   5.419  10.908
    3SBC   H01P 1876   3.033   5.510  10.861
    3SBC   C0GS 1877   2.885   5.420  10.984
    3SBC   C0GV 1878   2.810   5.541  11.017
    3SBC   C0GW 1879   2.822   5.676  10.984
    3SBC   H01Q 1880   2.896   5.701  10.909
    3SBC   C0GX 1881   2.735   5.759  11.043
    3SBC   H01R 1882   2.733   5.864  11.016
    3SBC   O00L 1883   2.637   5.727  11.140
    3SBC   C0GQ 1884   2.702   5.501  11.103
    3SBC   C03A 1885   2.623   5.137  11.178
    3SBC   C05L 1886   2.616   5.594  11.168
    3SBC   C04W 1887   2.233   5.795  11.596
    3SBC   C05I 1888   2.177   5.905  11.656
    3SBC   C05O 1889   2.204   6.034  11.611
    3SBC   C052 1890   2.088   5.895  11.762
    3SBC   C04V 1891   2.193   5.673  11.644
    3SBC   C04U 1892   2.101   5.661  11.752
    3SBC   N009 1893   2.298   6.051  11.510
    3SBC   C0GP 1894   2.145   6.147  11.668
    3SBC   C05W 1895   2.060   6.134  11.775
    3SBC   C07D 1896   1.836   6.341  11.974
    3SBC   C06J 1897   1.818   6.100  12.108
    3SBC   C05P 1898   2.036   6.010  11.826
    3SBC   C05R 1899   1.852   5.865  12.108
    3SBC   C04Z 1900   2.053   5.773  11.812
    3SBC   C04C 1901   1.851   5.631  12.080
    3SBC   C04G 1902   1.846   5.393  12.050
    3SBC   C04J 1903   1.922   5.162  11.917
    3SBC   C04T 1904   2.056   5.537  11.795
    3SBC   N003 1905   2.237   5.558  11.582
    3SBC   C04P 1906   2.375   5.447  11.411
    3SBC   C03D 1907   2.451   5.218  11.298
    3SBC   C021 1908   2.343   4.978  11.366
    3SBC   C03F 1909   2.165   5.194  11.591
    3SBC   C022 1910   2.198   4.844  11.494
    3SBC   C02A 1911   2.036   5.059  11.733
    3SBC   C023 1912   2.072   4.714  11.640
    3SBC   C025 1913   1.924   4.691  11.875
    3SBC   C02D 1914   1.849   4.676  11.993
    3SBC   C02E 1915   1.819   4.552  12.042
    3SBC   C02N 1916   1.751   4.530  12.163
    3SBC   C04N 1917   1.962   5.050  11.852
    3SBC   C02P 1918   1.815   4.789  12.064
    3SBC   C04I 1919   1.849   5.152  12.035
    3SBC   C044 1920   1.697   5.132  12.270
    3SBC   C043 1921   1.755   4.773  12.189
    3SBC   C05N 1922   1.724   4.645  12.238
    3SBC   C09U 1923   1.580   4.623  12.637
    3SBC   C09V 1924   1.551   4.623  12.770
    3SBC   C09X 1925   1.521   4.505  12.837
    3SBC   C09Y 1926   1.512   4.497  12.976
    3SBC   C0A1 1927   1.526   4.611  13.050
    3SBC   C0A2 1928   1.525   4.733  12.985
    3SBC   C0A4 1929   1.520   4.851  13.057
    3SBC   C071 1930   1.522   4.973  12.992
    3SBC   C0A5 1931   1.517   5.092  13.064
    3SBC   C0A9 1932   1.511   5.083  13.205
    3SBC   C0A8 1933   1.515   4.961  13.266
    3SBC   C0AP 1934   1.508   4.951  13.404
    3SBC   C0BY 1935   1.496   4.831  13.462
    3SBC   C0BX 1936   1.508   4.710  13.396
    3SBC   C0C2 1937   1.539   4.590  13.459
    3SBC   C0C3 1938   1.541   4.471  13.389
    3SBC   C0CT 1939   1.529   4.479  13.252
    3SBC   C0C1 1940   1.576   4.593  13.593
    3SBC   C0C0 1941   1.557   4.716  13.673
    3SBC   C0A7 1942   1.513   4.716  13.256
    3SBC   C0BZ 1943   1.508   4.829  13.604
    3SBC   C0BO 1944   1.525   4.940  13.678
    3SBC   C0BN 1945   1.542   5.063  13.617
    3SBC   C0BM 1946   1.581   5.166  13.692
    3SBC   C0B9 1947   1.579   5.289  13.631
    3SBC   C0B8 1948   1.554   5.301  13.493
    3SBC   C0AD 1949   1.536   5.186  13.420
    3SBC   C0AF 1950   1.555   5.428  13.436
    3SBC   C0AG 1951   1.558   5.549  13.505
    3SBC   C0B7 1952   1.586   5.534  13.640
    3SBC   C0AE 1953   1.547   5.426  13.298
    3SBC   C0AB 1954   1.527   5.315  13.223
    3SBC   C0AA 1955   1.517   5.327  13.084
    3SBC   C0AJ 1956   1.545   5.553  13.241
    3SBC   C0AK 1957   1.524   5.562  13.104
    3SBC   C06W 1958   1.515   5.695  13.077
    3SBC   C0AI 1959   1.545   5.679  13.304
    3SBC   C0BP 1960   1.582   4.910  13.800
    3SBC   C0BQ 1961   1.617   5.022  13.889
    3SBC   C0BW 1962   1.527   5.067  13.482
    3SBC   C0AC 1963   1.523   5.192  13.284
    3SBC   C0A6 1964   1.512   4.844  13.193
    3SBC   C0A3 1965   1.523   4.600  13.186
    3SBC   C09Z 1966   1.508   4.374  13.040
    3SBC   C09W 1967   1.538   4.740  12.849
    3SBC   C072 1968   1.539   4.862  12.782
    3SBC   C09H 1969   1.520   4.394  12.762
    3SBC   C09G 1970   1.495   4.278  12.829
    3SBC   C09P 1971   1.532   4.184  12.731
    3SBC   C02O 1972   1.660   4.239  12.377
    3SBC   C02M 1973   1.729   4.402  12.211
    3SBC   C02F 1974   1.855   4.446  11.964
    3SBC   C00W 1975   1.954   4.351  11.767
    3SBC   C01R 1976   2.092   4.110  11.679
    3SBC   C01N 1977   1.863   4.085  11.972
    3SBC   C01L 1978   1.873   3.910  12.128
    3SBC   C01H 1979   2.063   3.602  12.139
    3SBC   C01K 1980   2.112   3.839  11.849
    3SBC   C01E 1981   2.324   3.673  11.794
    3SBC   C01G 1982   2.166   3.498  12.109
    3SBC   C01D 1983   2.421   3.583  11.761
    3SBC   C01A 1984   2.612   3.395  11.686
    3SBC   H001 1985   2.679   3.314  11.662
    3SBC   C01F 1986   2.367   3.311  12.009
    3SBC   C03P 1987   2.418   3.071  12.145
    3SBC   C03T 1988   2.258   3.131  12.312
    3SBC   C08I 1989   2.132   3.117  12.565
    3SBC   C08J 1990   2.078   3.130  12.692
    3SBC   C08L 1991   1.935   3.245  12.858
    3SBC   C093 1992   1.821   3.387  13.039
    3SBC   C08Z 1993   1.740   3.551  12.836
    3SBC   C09T 1994   1.599   3.748  13.253
    3SBC   C09S 1995   1.558   3.789  12.889
    3SBC   C09Q 1996   1.526   4.050  12.775
    3SBC   C09F 1997   1.495   4.262  12.969
    3SBC   C09E 1998   1.536   3.976  13.187
    3SBC   C0A0 1999   1.524   4.362  13.178
    3SBC   C0CU 2000   1.552   4.350  13.454
    3SBC   C0CR 2001   1.602   4.351  13.582
    3SBC   C0CZ 2002   1.617   4.236  13.656
    3SBC   C0DA 2003   1.577   3.898  13.303
    3SBC   C0D9 2004   1.712   3.829  13.611
    3SBC   H00V 2005   1.787   3.776  13.554
    3SBC   C0CY 2006   1.561   4.117  13.595
    3SBC   C0DF 2007   1.710   3.846  13.760
    3SBC   C0DE 2008   1.784   3.828  13.879
    3SBC   C0GI 2009   1.882   3.728  13.915
    3SBC   H01K 2010   1.904   3.646  13.848
    3SBC   C0GJ 2011   1.950   3.753  14.029
    3SBC   H01J 2012   2.026   3.678  14.046
    3SBC   O00I 2013   1.920   3.853  14.123
    3SBC   C0GH 2014   1.838   3.957  14.087
    3SBC   C0GG 2015   1.859   4.078  14.161
    3SBC   O00G 2016   1.917   4.069  14.280
    3SBC   C0G8 2017   1.932   4.180  14.359
    3SBC   C0G9 2018   1.963   4.151  14.493
    3SBC   H01G 2019   1.969   4.050  14.531
    3SBC   C0GA 2020   1.978   4.259  14.588
    3SBC   H01H 2021   1.996   4.225  14.689
    3SBC   C0GB 2022   1.967   4.398  14.549
    3SBC   C0EP 2023   1.919   4.416  14.417
    3SBC   C0E8 2024   1.882   4.555  14.387
    3SBC   C0CK 2025   1.817   4.631  14.281
    3SBC   C0CL 2026   1.847   4.588  14.152
    3SBC   C0E9 2027   1.869   4.451  14.115
    3SBC   C0GE 2028   1.870   4.324  14.185
    3SBC   C0E7 2029   1.925   4.658  14.469
    3SBC   C0CJ 2030   1.893   4.785  14.425
    3SBC   C0E6 2031   1.957   4.893  14.485
    3SBC   H00Y 2032   1.947   4.994  14.446
    3SBC   C0EO 2033   2.025   4.874  14.608
    3SBC   H011 2034   2.053   4.960  14.668
    3SBC   C0G6 2035   2.041   4.744  14.663
    3SBC   C0G5 2036   2.112   4.705  14.786
    3SBC   H01F 2037   2.162   4.777  14.850
    3SBC   C0GD 2038   2.109   4.575  14.824
    3SBC   H01I 2039   2.162   4.554  14.916
    3SBC   O00H 2040   2.063   4.469  14.754
    3SBC   C0EQ 2041   1.994   4.630  14.588
    3SBC   C0GC 2042   2.006   4.500  14.631
    3SBC   C0G7 2043   1.905   4.312  14.319
    3SBC   C0DD 2044   1.759   3.936  13.969
    3SBC   C0GF 2045   1.835   4.209  14.110
    3SBC   C0CO 2046   1.880   4.448  13.982
    3SBC   C0D0 2047   1.684   4.254  13.780
    3SBC   C0C4 2048   1.637   4.480  13.645
    3SBC   C0CN 2049   1.869   4.580  13.929
    3SBC   C0CP 2050   1.588   4.767  13.804
    3SBC   C0CM 2051   1.845   4.672  14.033
    3SBC   C0CI 2052   1.809   4.774  14.308
    3SBC   C0CD 2053   1.691   5.251  14.315
    3SBC   C0BR 2054   1.663   5.007  14.023
    3SBC   C0CS 2055   1.609   5.148  13.829
    3SBC   C0B6 2056   1.606   5.405  13.703
    3SBC   C0CG 2057   1.677   5.373  14.111
    3SBC   C0CF 2058   1.692   5.372  14.249
    3SBC   C0E5 2059   1.712   5.363  14.527
    3SBC   C0DT 2060   1.768   5.585  14.663
    3SBC   C0DL 2061   1.749   5.723  14.324
    3SBC   C0DM 2062   1.746   5.850  14.265
    3SBC   C0DY 2063   1.821   5.956  14.463
    3SBC   C0DU 2064   1.813   5.698  14.724
    3SBC   C0F0 2065   1.832   5.804  14.937
    3SBC   C0F4 2066   1.827   6.039  15.085
    3SBC   C0FG 2067   1.933   6.155  14.749
    3SBC   O00B 2068   1.831   6.279  15.078
    3SBC   C0FN 2069   1.911   6.281  14.714
    3SBC   C0DZ 2070   1.859   6.068  14.538
    3SBC   O00C 2071   1.722   6.327  14.315
    3SBC   C0FR 2072   1.651   6.341  14.194
    3SBC   O00D 2073   1.612   6.461  14.170
    3SBC   C0E0 2074   1.775   5.963  14.333
    3SBC   C0E3 2075   1.626   6.220  14.117
    3SBC   C0AW 2076   1.563   6.218  13.995
    3SBC   C0AV 2077   1.481   6.326  13.944
    3SBC   H00Q 2078   1.442   6.409  14.001
    3SBC   C0AU 2079   1.438   6.326  13.804
    3SBC   H00R 2080   1.369   6.404  13.775
    3SBC   C0AT 2081   1.464   6.214  13.719
    3SBC   C0AS 2082   1.460   6.174  13.576
    3SBC   C0AR 2083   1.415   6.259  13.473
    3SBC   C0BE 2084   1.527   6.110  13.782
    3SBC   C0DN 2085   1.696   5.854  14.142
    3SBC   C0AX 2086   1.573   6.109  13.918
    3SBC   C0BB 2087   1.646   5.751  13.930
    3SBC   C0BD 2088   1.555   6.005  13.697
    3SBC   C0B2 2089   1.604   5.647  13.710
    3SBC   C0AH 2090   1.555   5.677  13.449
    3SBC   C0BF 2091   1.516   6.036  13.563
    3SBC   C0AL 2092   1.549   5.768  13.195
    3SBC   C07U 2093   1.496   6.116  13.268
    3SBC   C0AQ 2094   1.444   6.231  13.336
    3SBC   C0BG 2095   1.379   6.398  13.480
    3SBC   C0FY 2096   1.444   6.644  13.237
    3SBC   C0BJ 2097   1.446   6.513  13.549
    3SBC   H00S 2098   1.512   6.506  13.633
    3SBC   C0FZ 2099   1.530   6.738  13.303
    3SBC   C07S 2100   1.503   6.600  13.109
    3SBC   C0G1 2101   1.741   6.873  13.047
    3SBC   C07K 2102   1.753   6.724  12.711
    3SBC   C07H 2103   1.612   6.521  12.852
    3SBC   C06B 2104   1.547   6.424  12.511
    3SBC   C06N 2105   1.598   6.201  12.539
    3SBC   C066 2106   1.558   6.284  12.923
    3SBC   C062 2107   1.546   5.962  12.931
    3SBC   C05Y 2108   1.618   5.948  12.557
    3SBC   C061 2109   1.475   5.849  12.886
    3SBC   C05H 2110   1.551   5.619  12.608
    3SBC   C06V 2111   1.501   5.718  12.943
    3SBC   C06Y 2112   1.519   5.447  13.022
    3SBC   C05C 2113   1.540   5.354  12.657
    3SBC   C06Z 2114   1.517   5.214  13.000
    3SBC   C070 2115   1.524   4.983  12.853
    3SBC   C05B 2116   1.572   5.234  12.591
    3SBC   C057 2117   1.614   4.992  12.450
    3SBC   C059 2118   1.571   4.867  12.643
    4SBC   C058 2119   9.279   8.264   6.314
    4SBC   C05A 2120   9.411   8.287   6.253
    4SBC   C06Q 2121   9.430   8.406   6.186
    4SBC   C06R 2122   9.549   8.431   6.117
    4SBC   C06S 2123   9.640   8.324   6.090
    4SBC   C06T 2124   9.741   8.351   5.996
    4SBC   C06U 2125   9.832   8.257   5.925
    4SBC   C06X 2126   9.841   8.114   5.928
    4SBC   C060 2127   9.936   8.067   5.828
    4SBC   C05Z 2128   9.922   7.961   5.733
    4SBC   C068 2129   9.972   8.021   5.604
    4SBC   C067 2130   9.975   7.972   5.467
    4SBC   C069 2131   9.933   7.837   5.440
    4SBC   C06A 2132   9.896   7.780   5.310
    4SBC   C073 2133   9.877   7.842   5.186
    4SBC   C07P 2134   9.760   7.805   5.113
    4SBC   C07O 2135   9.650   7.730   5.161
    4SBC   H00D 2136   9.646   7.703   5.266
    4SBC   C07N 2137   9.539   7.699   5.083
    4SBC   H00E 2138   9.457   7.649   5.133
    4SBC   C07M 2139   9.534   7.756   4.954
    4SBC   H00F 2140   9.453   7.716   4.894
    4SBC   C07L 2141   9.647   7.824   4.900
    4SBC   C07Q 2142   9.652   7.866   4.760
    4SBC   H00G 2143   9.566   7.851   4.695
    4SBC   O00F 2144   9.761   7.916   4.699
    4SBC   C07J 2145   9.857   7.957   4.787
    4SBC   C07I 2146   9.863   7.924   4.926
    4SBC   N004 2147   9.979   7.960   5.001
    4SBC   C07R 2148  10.086   8.037   4.944
    4SBC   C07T 2149  10.066   8.076   4.809
    4SBC   C0FX 2150  10.154   8.166   4.750
    4SBC   C0FW 2151  10.141   8.228   4.628
    4SBC   C0G0 2152  10.029   8.183   4.553
    4SBC   C0G2 2153  10.000   8.238   4.427
    4SBC   H01E 2154   9.908   8.203   4.381
    4SBC   C0G3 2155  10.090   8.334   4.373
    4SBC   H01C 2156  10.067   8.375   4.275
    4SBC   C0G4 2157  10.200   8.374   4.448
    4SBC   H01D 2158  10.256   8.456   4.404
    4SBC   O00E 2159   9.946   8.085   4.604
    4SBC   C0FV 2160  10.225   8.329   4.579
    4SBC   C0FU 2161  10.322   8.380   4.668
    4SBC   H01B 2162  10.382   8.466   4.641
    4SBC   C0FT 2163  10.349   8.313   4.787
    4SBC   C0FS 2164  10.422   8.339   4.910
    4SBC   C0BI 2165  10.408   8.227   4.995
    4SBC   C0BH 2166  10.414   8.284   5.128
    4SBC   C07F 2167  10.319   8.257   5.229
    4SBC   C07E 2168  10.235   8.148   5.253
    4SBC   C07G 2169  10.177   8.065   5.160
    4SBC   C074 2170  10.071   8.005   5.220
    4SBC   C065 2171  10.147   8.149   5.362
    4SBC   C064 2172  10.141   8.266   5.443
    4SBC   C063 2173  10.060   8.278   5.550
    4SBC   C075 2174  10.068   8.424   5.580
    4SBC   C0AM 2175  10.145   8.500   5.483
    4SBC   C0AN 2176  10.166   8.645   5.465
    4SBC   C0AO 2177  10.091   8.758   5.530
    4SBC   C0B1 2178  10.119   8.892   5.490
    4SBC   C0B0 2179  10.226   8.922   5.407
    4SBC   C0AZ 2180  10.256   9.046   5.352
    4SBC   C0AY 2181  10.368   9.063   5.267
    4SBC   N007 2182  10.392   9.189   5.210
    4SBC   C0E2 2183  10.500   9.202   5.120
    4SBC   C0E1 2184  10.517   9.327   5.063
    4SBC   C0E4 2185  10.615   9.342   4.964
    4SBC   C0FF 2186  10.634   9.452   4.886
    4SBC   C0FJ 2187  10.719   9.468   4.768
    4SBC   C0FK 2188  10.750   9.361   4.678
    4SBC   H016 2189  10.755   9.254   4.686
    4SBC   C0FL 2190  10.756   9.420   4.545
    4SBC   H017 2191  10.774   9.369   4.451
    4SBC   C0FM 2192  10.727   9.558   4.563
    4SBC   C0FH 2193  10.655   9.673   4.503
    4SBC   C0FI 2194  10.617   9.744   4.617
    4SBC   C0F3 2195  10.504   9.827   4.611
    4SBC   C0F2 2196  10.442   9.845   4.728
    4SBC   C0DW 2197  10.458   9.770   4.844
    4SBC   C0FE 2198  10.563   9.684   4.847
    4SBC   C0DV 2199  10.355   9.761   4.938
    4SBC   C0DX 2200  10.348   9.647   5.017
    4SBC   C0DK 2201  10.236   9.626   5.102
    4SBC   C0DJ 2202  10.129   9.716   5.102
    4SBC   C0DI 2203  10.012   9.688   5.168
    4SBC   C0DH 2204  10.002   9.574   5.249
    4SBC   C0DG 2205  10.107   9.484   5.254
    4SBC   C0BV 2206  10.095   9.368   5.333
    4SBC   C0BC 2207  10.190   9.270   5.320
    4SBC   C0BA 2208   9.981   9.347   5.412
    4SBC   C0B4 2209   9.969   9.231   5.484
    4SBC   C0B3 2210  10.057   9.126   5.469
    4SBC   C0B5 2211   9.862   9.220   5.577
    4SBC   C0BU 2212   9.765   9.319   5.589
    4SBC   C0BT 2213   9.772   9.429   5.502
    4SBC   C0BS 2214   9.666   9.526   5.503
    4SBC   C0CC 2215   9.673   9.626   5.407
    4SBC   C0CB 2216   9.564   9.713   5.383
    4SBC   C0CH 2217   9.559   9.781   5.264
    4SBC   C0DO 2218   9.672   9.816   5.191
    4SBC   C0DP 2219   9.666   9.924   5.101
    4SBC   C0EA 2220   9.553  10.001   5.077
    4SBC   H012 2221   9.459   9.986   5.129
    4SBC   O009 2222   9.551  10.116   5.008
    4SBC   C0EH 2223   9.653  10.125   4.913
    4SBC   C0EG 2224   9.633  10.201   4.793
    4SBC   C0EJ 2225   9.523  10.277   4.743
    4SBC   H010 2226   9.430  10.304   4.791
    4SBC   C0EK 2227   9.553  10.304   4.603
    4SBC   H00Z 2228   9.478  10.351   4.541
    4SBC   C0EL 2229   9.675  10.242   4.576
    4SBC   C0EM 2230   9.751  10.232   4.451
    4SBC   C0EW 2231   9.712  10.277   4.324
    4SBC   H013 2232   9.613  10.315   4.304
    4SBC   C0EX 2233   9.805  10.260   4.213
    4SBC   H014 2234   9.770  10.283   4.113
    4SBC   C0F1 2235   9.934  10.197   4.241
    4SBC   C0EU 2236   9.966  10.151   4.370
    4SBC   C0ET 2237  10.081  10.086   4.406
    4SBC   C0ES 2238  10.056  10.049   4.547
    4SBC   C0EE 2239   9.934  10.103   4.585
    4SBC   C0ED 2240   9.851  10.116   4.700
    4SBC   C0EC 2241   9.878  10.045   4.826
    4SBC   C0EB 2242  10.000   9.979   4.859
    4SBC   C0EN 2243  10.118   9.983   4.772
    4SBC   C0ER 2244  10.232   9.925   4.821
    4SBC   C0DS 2245  10.010   9.899   4.977
    4SBC   C0DR 2246   9.895   9.874   5.048
    4SBC   C0EY 2247  10.150  10.024   4.641
    4SBC   C0EZ 2248  10.277   9.976   4.597
    4SBC   C0F5 2249  10.349   9.945   4.472
    4SBC   C0F6 2250  10.303   9.989   4.346
    4SBC   N008 2251  10.383   9.953   4.232
    4SBC   C0F7 2252  10.486   9.855   4.246
    4SBC   C0FQ 2253  10.546   9.814   4.129
    4SBC   H018 2254  10.616   9.732   4.129
    4SBC   C0FP 2255  10.526   9.866   4.002
    4SBC   H019 2256  10.588   9.826   3.922
    4SBC   C0FO 2257  10.424   9.954   3.987
    4SBC   H01A 2258  10.390   9.981   3.887
    4SBC   C0F8 2259  10.516   9.804   4.372
    4SBC   C0F9 2260  10.350   9.991   4.100
    4SBC   C0FA 2261  10.247  10.081   4.080
    4SBC   H015 2262  10.220  10.127   3.986
    4SBC   C0FB 2263  10.156  10.112   4.185
    4SBC   C0FD 2264  10.187  10.064   4.317
    4SBC   C0FC 2265  10.035  10.185   4.144
    4SBC   O00A 2266  10.019  10.230   4.025
    4SBC   C0EV 2267   9.873  10.160   4.470
    4SBC   C0EF 2268   9.731  10.195   4.693
    4SBC   C0EI 2269   9.775  10.043   4.921
    4SBC   C0DQ 2270   9.779   9.951   5.027
    4SBC   C0CE 2271   9.783   9.737   5.215
    4SBC   H00U 2272   9.460   9.816   5.238
    4SBC   C0CA 2273   9.458   9.716   5.478
    4SBC   C0C9 2274   9.440   9.614   5.579
    4SBC   C0C8 2275   9.320   9.625   5.657
    4SBC   C0C7 2276   9.251   9.523   5.739
    4SBC   C0C6 2277   9.125   9.561   5.791
    4SBC   C0C5 2278   9.001   9.501   5.837
    4SBC   C0CQ 2279   8.887   9.578   5.821
    4SBC   C0D1 2280   8.888   9.683   5.735
    4SBC   C0D8 2281   8.777   9.697   5.667
    4SBC   C0D7 2282   8.681   9.616   5.735
    4SBC   C0D6 2283   8.556   9.586   5.686
    4SBC   C0D5 2284   8.459   9.519   5.766
    4SBC   C0D4 2285   8.470   9.424   5.872
    4SBC   C0D3 2286   8.359   9.340   5.863
    4SBC   C0CX 2287   8.409   9.212   5.917
    4SBC   C0CW 2288   8.556   9.221   5.929
    4SBC   C0CV 2289   8.671   9.130   5.962
    4SBC   C0D2 2290   8.651   8.997   5.997
    4SBC   C09D 2291   8.532   8.921   6.001
    4SBC   C09C 2292   8.529   8.782   6.036
    4SBC   C09B 2293   8.418   8.697   6.039
    4SBC   C09A 2294   8.300   8.769   6.011
    4SBC   C099 2295   8.288   8.895   5.958
    4SBC   C098 2296   8.159   8.941   5.994
    4SBC   C08Y 2297   8.085   8.847   6.073
    4SBC   C08X 2298   7.965   8.862   6.145
    4SBC   C08W 2299   7.901   8.993   6.155
    4SBC   C08U 2300   7.942   9.121   6.091
    4SBC   C08V 2301   8.060   9.165   6.032
    4SBC   C0DC 2302   8.047   9.305   5.996
    4SBC   H00W 2303   8.122   9.363   5.945
    4SBC   C0DB 2304   7.916   9.349   6.039
    4SBC   H00X 2305   7.872   9.447   6.029
    4SBC   C08T 2306   7.859   9.231   6.103
    4SBC   C08S 2307   7.740   9.235   6.172
    4SBC   H00N 2308   7.685   9.328   6.172
    4SBC   C08R 2309   7.695   9.120   6.240
    4SBC   C08Q 2310   7.583   9.120   6.319
    4SBC   H00O 2311   7.524   9.210   6.324
    4SBC   C08P 2312   7.530   9.009   6.389
    4SBC   C08O 2313   7.412   9.011   6.470
    4SBC   H00P 2314   7.351   9.100   6.475
    4SBC   C08N 2315   7.367   8.892   6.538
    4SBC   C08M 2316   7.240   8.895   6.608
    4SBC   O008 2317   7.170   8.995   6.615
    4SBC   O007 2318   7.200   8.781   6.667
    4SBC   C08H 2319   7.284   8.666   6.672
    4SBC   C08G 2320   7.239   8.543   6.740
    4SBC   C03V 2321   7.123   8.510   6.811
    4SBC   H009 2322   7.051   8.589   6.826
    4SBC   C03U 2323   7.100   8.389   6.878
    4SBC   C03W 2324   6.986   8.357   6.958
    4SBC   H00A 2325   6.910   8.434   6.970
    4SBC   C03X 2326   6.972   8.235   7.012
    4SBC   H00B 2327   6.877   8.210   7.056
    4SBC   O005 2328   7.062   8.131   6.993
    4SBC   C03O 2329   7.175   8.162   6.936
    4SBC   C03N 2330   7.277   8.064   6.930
    4SBC   O000 2331   7.257   7.939   6.982
    4SBC   C019 2332   7.352   7.839   6.983
    4SBC   C018 2333   7.479   7.874   6.937
    4SBC   C017 2334   7.498   7.995   6.866
    4SBC   C016 2335   7.625   8.024   6.816
    4SBC   C015 2336   7.722   7.929   6.839
    4SBC   C014 2337   7.849   7.964   6.801
    4SBC   C013 2338   7.877   8.058   6.699
    4SBC   C012 2339   8.020   8.045   6.683
    4SBC   C011 2340   8.060   7.955   6.783
    4SBC   C010 2341   8.191   7.940   6.826
    4SBC   C00Z 2342   8.245   7.830   6.890
    4SBC   C00Y 2343   8.383   7.847   6.861
    4SBC   C01O 2344   8.410   7.967   6.797
    4SBC   C01P 2345   8.519   7.979   6.711
    4SBC   C02L 2346   8.513   8.069   6.608
    4SBC   C02K 2347   8.383   8.114   6.570
    4SBC   C01M 2348   8.259   8.075   6.634
    4SBC   C02J 2349   8.386   8.183   6.442
    4SBC   C02I 2350   8.282   8.241   6.367
    4SBC   C02H 2351   8.145   8.242   6.395
    4SBC   C01Q 2352   8.072   8.182   6.499
    4SBC   C02G 2353   7.938   8.225   6.477
    4SBC   C089 2354   7.935   8.314   6.369
    4SBC   C088 2355   7.843   8.417   6.386
    4SBC   C087 2356   7.754   8.357   6.492
    4SBC   C086 2357   7.631   8.408   6.544
    4SBC   C03S 2358   7.539   8.342   6.632
    4SBC   N006 2359   7.436   8.433   6.646
    4SBC   C08F 2360   7.465   8.550   6.584
    4SBC   C01J 2361   7.536   8.227   6.715
    4SBC   C03R 2362   7.417   8.210   6.791
    4SBC   C03Q 2363   7.319   8.313   6.803
    4SBC   C08E 2364   7.583   8.540   6.520
    4SBC   C08D 2365   7.639   8.648   6.445
    4SBC   C08K 2366   7.565   8.771   6.454
    4SBC   C08C 2367   7.756   8.653   6.371
    4SBC   C091 2368   7.797   8.776   6.304
    4SBC   C092 2369   7.726   8.894   6.305
    4SBC   C08B 2370   7.852   8.555   6.335
    4SBC   C090 2371   7.945   8.613   6.236
    4SBC   C094 2372   8.056   8.540   6.180
    4SBC   C095 2373   8.160   8.603   6.113
    4SBC   C09R 2374   8.274   8.529   6.131
    4SBC   C097 2375   8.246   8.418   6.204
    4SBC   C096 2376   8.115   8.422   6.236
    4SBC   C01I 2377   7.816   8.237   6.555
    4SBC   C08A 2378   8.062   8.323   6.318
    4SBC   C09L 2379   8.335   8.322   6.264
    4SBC   C09K 2380   8.477   8.309   6.262
    4SBC   C09J 2381   8.571   8.396   6.204
    4SBC   C09I 2382   8.710   8.409   6.235
    4SBC   C09O 2383   8.811   8.341   6.306
    4SBC   C09N 2384   8.774   8.235   6.391
    4SBC   C09M 2385   8.640   8.189   6.433
    4SBC   C06O 2386   8.885   8.165   6.442
    4SBC   C05M 2387   9.016   8.198   6.405
    4SBC   C06P 2388   9.044   8.317   6.336
    4SBC   C042 2389   9.118   8.111   6.423
    4SBC   C041 2390   9.095   7.990   6.479
    4SBC   C040 2391   9.194   7.894   6.475
    4SBC   C03Z 2392   9.165   7.764   6.526
    4SBC   C03Y 2393   9.044   7.736   6.584
    4SBC   C027 2394   9.011   7.611   6.627
    4SBC   C026 2395   8.895   7.589   6.699
    4SBC   C028 2396   8.863   7.459   6.742
    4SBC   C029 2397   8.949   7.353   6.715
    4SBC   C02B 2398   8.910   7.225   6.748
    4SBC   C02C 2399   8.985   7.114   6.705
    4SBC   C02X 2400   8.932   6.984   6.718
    4SBC   C03E 2401   8.998   6.886   6.647
    4SBC   C03G 2402   9.103   6.898   6.564
    4SBC   C04Q 2403   9.160   7.025   6.556
    4SBC   C04R 2404   9.268   7.050   6.474
    4SBC   C04S 2405   9.310   7.176   6.451
    4SBC   C04L 2406   9.251   7.285   6.514
    4SBC   C04M 2407   9.141   7.267   6.592
    4SBC   C04K 2408   9.288   7.418   6.484
    4SBC   C04F 2409   9.392   7.434   6.393
    4SBC   C04E 2410   9.453   7.328   6.330
    4SBC   C04D 2411   9.557   7.349   6.235
    4SBC   C050 2412   9.606   7.242   6.162
    4SBC   C051 2413   9.684   7.266   6.052
    4SBC   C05Q 2414   9.721   7.159   5.972
    4SBC   C05V 2415   9.791   7.187   5.853
    4SBC   N005 2416   9.828   7.081   5.770
    4SBC   C07V 2417   9.824   6.946   5.820
    4SBC   C082 2418   9.867   6.843   5.736
    4SBC   C081 2419   9.899   6.868   5.604
    4SBC   C07C 2420   9.884   6.994   5.552
    4SBC   C07B 2421   9.900   7.017   5.415
    4SBC   C080 2422   9.915   6.906   5.320
    4SBC   C07Z 2423   9.922   6.941   5.186
    4SBC   H00L 2424   9.936   6.854   5.123
    4SBC   C079 2425   9.907   7.064   5.126
    4SBC   C078 2426   9.906   7.171   5.221
    4SBC   C077 2427   9.902   7.304   5.175
    4SBC   C07X 2428   9.892   7.324   5.037
    4SBC   H00I 2429   9.891   7.418   4.985
    4SBC   C07Y 2430   9.888   7.222   4.943
    4SBC   H00H 2431   9.884   7.237   4.836
    4SBC   C076 2432   9.903   7.408   5.268
    4SBC   C06C 2433   9.912   7.544   5.222
    4SBC   H00C 2434   9.930   7.579   5.121
    4SBC   C06F 2435   9.898   7.382   5.405
    4SBC   C06E 2436   9.882   7.481   5.501
    4SBC   C06G 2437   9.855   7.470   5.636
    4SBC   C06H 2438   9.844   7.341   5.681
    4SBC   C06I 2439   9.873   7.233   5.590
    4SBC   C06L 2440   9.851   7.584   5.718
    4SBC   C06M 2441   9.880   7.716   5.672
    4SBC   C06K 2442   9.807   7.554   5.849
    4SBC   C05S 2443   9.775   7.424   5.889
    4SBC   C05U 2444   9.783   7.664   5.934
    4SBC   C05X 2445   9.816   7.799   5.899
    4SBC   C05G 2446   9.771   7.897   6.000
    4SBC   C05F 2447   9.699   7.858   6.110
    4SBC   C05E 2448   9.644   7.968   6.183
    4SBC   C048 2449   9.540   7.950   6.273
    4SBC   C056 2450   9.466   8.063   6.300
    4SBC   C045 2451   9.349   8.046   6.375
    4SBC   C047 2452   9.508   7.819   6.303
    4SBC   C049 2453   9.567   7.712   6.238
    4SBC   C04B 2454   9.530   7.584   6.268
    4SBC   C046 2455   9.401   7.806   6.390
    4SBC   C04H 2456   9.364   7.676   6.419
    4SBC   C05D 2457   9.676   8.083   6.112
    4SBC   C04A 2458   9.659   7.729   6.139
    4SBC   C05T 2459   9.708   7.634   6.055
    4SBC   C055 2460   9.675   7.504   6.093
    4SBC   C06D 2461   9.887   7.613   5.457
    4SBC   C07W 2462   9.887   7.254   5.452
    4SBC   C085 2463   9.904   7.094   4.991
    4SBC   H00M 2464   9.918   7.022   4.911
    4SBC   C084 2465   9.932   6.777   5.375
    4SBC   H00J 2466   9.944   6.695   5.306
    4SBC   C07A 2467   9.897   7.149   5.365
    4SBC   C083 2468   9.918   6.760   5.510
    4SBC   H00K 2469   9.940   6.661   5.546
    4SBC   O00K 2470   9.848   6.714   5.775
    4SBC   C0GO 2471   9.788   6.689   5.898
    4SBC   C0GN 2472   9.766   6.561   5.943
    4SBC   H01L 2473   9.803   6.484   5.876
    4SBC   C0GM 2474   9.674   6.530   6.042
    4SBC   C0GL 2475   9.652   6.401   6.070
    4SBC   H01M 2476   9.714   6.322   6.030
    4SBC   O00J 2477   9.559   6.368   6.171
    4SBC   C0GK 2478   9.496   6.476   6.228
    4SBC   H01N 2479   9.418   6.449   6.298
    4SBC   C05K 2480   9.519   6.605   6.204
    4SBC   C05J 2481   9.450   6.716   6.272
    4SBC   C04Y 2482   9.336   6.704   6.359
    4SBC   C04X 2483   9.267   6.814   6.416
    4SBC   O006 2484   9.274   6.583   6.373
    4SBC   C053 2485   9.147   6.570   6.417
    4SBC   C04O 2486   9.092   6.661   6.505
    4SBC   C03C 2487   8.976   6.650   6.592
    4SBC   C03B 2488   8.875   6.547   6.610
    4SBC   C054 2489   8.856   6.459   6.501
    4SBC   C0GR 2490   8.736   6.385   6.490
    4SBC   C03M 2491   8.600   6.383   6.549
    4SBC   C03I 2492   8.552   6.483   6.638
    4SBC   C03J 2493   8.420   6.457   6.682
    4SBC   N002 2494   8.356   6.562   6.759
    4SBC   C02U 2495   8.216   6.552   6.790
    4SBC   C02T 2496   8.141   6.660   6.833
    4SBC   C02Z 2497   8.007   6.655   6.820
    4SBC   N001 2498   7.929   6.777   6.830
    4SBC   C02R 2499   7.796   6.772   6.789
    4SBC   C032 2500   7.742   6.654   6.734
    4SBC   C031 2501   7.819   6.541   6.733
    4SBC   H007 2502   7.776   6.458   6.679
    4SBC   C033 2503   7.608   6.665   6.690
    4SBC   H003 2504   7.554   6.584   6.642
    4SBC   O004 2505   7.532   6.776   6.696
    4SBC   C034 2506   7.590   6.889   6.741
    4SBC   C035 2507   7.520   7.010   6.742
    4SBC   C036 2508   7.580   7.128   6.788
    4SBC   H005 2509   7.530   7.224   6.797
    4SBC   C037 2510   7.710   7.126   6.832
    4SBC   H006 2511   7.747   7.224   6.859
    4SBC   C00D 2512   7.784   7.008   6.847
    4SBC   C00C 2513   7.913   7.001   6.907
    4SBC   C00B 2514   7.977   7.113   6.985
    4SBC   C00A 2515   7.967   7.264   6.987
    4SBC   C009 2516   8.092   7.318   7.028
    4SBC   C008 2517   8.129   7.450   6.995
    4SBC   C007 2518   8.026   7.542   6.967
    4SBC   C006 2519   8.057   7.671   6.936
    4SBC   C005 2520   7.952   7.761   6.909
    4SBC   C004 2521   7.816   7.721   6.931
    4SBC   C003 2522   7.784   7.595   6.986
    4SBC   C002 2523   7.655   7.565   7.029
    4SBC   C01C 2524   7.555   7.653   7.010
    4SBC   C01B 2525   7.417   7.618   7.043
    4SBC   H000 2526   7.381   7.522   7.078
    4SBC   C001 2527   7.639   7.437   7.081
    4SBC   C000 2528   7.741   7.335   7.068
    4SBC   C01U 2529   7.699   7.232   7.148
    4SBC   H002 2530   7.742   7.136   7.174
    4SBC   C01T 2531   7.567   7.270   7.202
    4SBC   O002 2532   7.479   7.204   7.258
    4SBC   O001 2533   7.540   7.395   7.159
    4SBC   C01S 2534   7.892   7.501   6.992
    4SBC   C00N 2535   8.264   7.469   6.970
    4SBC   C00M 2536   8.363   7.369   6.971
    4SBC   C00J 2537   8.323   7.239   6.991
    4SBC   C00I 2538   8.394   7.139   6.942
    4SBC   C00H 2539   8.335   7.013   6.932
    4SBC   C00G 2540   8.198   6.992   6.951
    4SBC   C00F 2541   8.127   6.885   6.907
    4SBC   C01X 2542   8.403   6.905   6.879
    4SBC   C01W 2543   8.537   6.922   6.842
    4SBC   C01V 2544   8.598   7.047   6.856
    4SBC   C020 2545   8.731   7.073   6.809
    4SBC   C01Z 2546   8.614   6.818   6.789
    4SBC   C02Y 2547   8.741   6.847   6.757
    4SBC   C039 2548   8.808   6.739   6.711
    4SBC   C02W 2549   8.552   6.698   6.759
    4SBC   C01Y 2550   8.343   6.783   6.851
    4SBC   C00U 2551   8.525   7.160   6.895
    4SBC   C00S 2552   8.572   7.288   6.883
    4SBC   C00T 2553   8.699   7.310   6.836
    4SBC   C00R 2554   8.492   7.394   6.923
    4SBC   C00Q 2555   8.526   7.519   6.879
    4SBC   C00V 2556   8.653   7.549   6.831
    4SBC   C024 2557   8.688   7.673   6.785
    4SBC   C00X 2558   8.596   7.772   6.790
    4SBC   C00P 2559   8.429   7.618   6.882
    4SBC   C00O 2560   8.298   7.594   6.935
    4SBC   C00K 2561   8.187   7.218   7.029
    4SBC   N000 2562   7.863   7.360   7.020
    4SBC   C00L 2563   8.119   7.093   7.007
    4SBC   H004 2564   7.417   7.008   6.709
    4SBC   C02Q 2565   7.724   6.890   6.794
    4SBC   C00E 2566   7.990   6.887   6.890
    4SBC   C030 2567   7.947   6.537   6.779
    4SBC   O003 2568   8.016   6.416   6.781
    4SBC   C02S 2569   8.203   6.772   6.868
    4SBC   C038 2570   8.153   6.432   6.768
    4SBC   C03L 2571   8.220   6.329   6.711
    4SBC   H008 2572   8.168   6.235   6.695
    4SBC   C02V 2573   8.415   6.685   6.788
    4SBC   C03K 2574   8.347   6.343   6.658
    4SBC   C0BK 2575   8.411   6.245   6.575
    4SBC   H00T 2576   8.355   6.155   6.553
    4SBC   C03H 2577   8.621   6.593   6.694
    4SBC   C0BL 2578   8.528   6.265   6.507
    4SBC   C0GU 2579   8.571   6.175   6.406
    4SBC   H01O 2580   8.519   6.087   6.373
    4SBC   C0GT 2581   8.685   6.190   6.336
    4SBC   H01P 2582   8.714   6.127   6.253
    4SBC   C0GS 2583   8.764   6.286   6.386
    4SBC   C0GV 2584   8.904   6.288   6.344
    4SBC   C0GW 2585   8.985   6.209   6.248
    4SBC   H01Q 2586   8.953   6.116   6.202
    4SBC   C0GX 2587   9.107   6.253   6.229
    4SBC   H01R 2588   9.184   6.209   6.167
    4SBC   O00L 2589   9.158   6.368   6.290
    4SBC   C0GQ 2590   8.955   6.402   6.408
    4SBC   C03A 2591   8.763   6.610   6.674
    4SBC   C05L 2592   9.086   6.446   6.382
    4SBC   C04W 2593   9.484   6.848   6.246
    4SBC   C05I 2594   9.577   6.875   6.148
    4SBC   C05O 2595   9.649   6.773   6.081
    4SBC   C052 2596   9.607   7.009   6.115
    4SBC   C04V 2597   9.427   6.962   6.311
    4SBC   C04U 2598   9.469   7.095   6.293
    4SBC   N009 2599   9.613   6.640   6.109
    4SBC   C0GP 2600   9.734   6.794   5.975
    4SBC   C05W 2601   9.752   6.924   5.936
    4SBC   C07D 2602   9.869   7.103   5.634
    4SBC   C06J 2603   9.808   7.317   5.809
    4SBC   C05P 2604   9.695   7.028   6.009
    4SBC   C05R 2605   9.717   7.398   6.012
    4SBC   C04Z 2606   9.558   7.115   6.187
    4SBC   C04C 2607   9.592   7.478   6.199
    4SBC   C04G 2608   9.429   7.564   6.359
    4SBC   C04J 2609   9.213   7.527   6.532
    4SBC   C04T 2610   9.414   7.201   6.359
    4SBC   N003 2611   9.321   6.944   6.400
    4SBC   C04P 2612   9.158   6.790   6.499
    4SBC   C03D 2613   8.932   6.762   6.655
    4SBC   C021 2614   8.806   6.964   6.765
    4SBC   C03F 2615   9.099   7.134   6.626
    4SBC   C022 2616   8.783   7.205   6.797
    4SBC   C02A 2617   9.066   7.375   6.643
    4SBC   C023 2618   8.742   7.440   6.811
    4SBC   C025 2619   8.810   7.698   6.718
    4SBC   C02D 2620   8.832   7.818   6.658
    4SBC   C02E 2621   8.733   7.913   6.658
    4SBC   C02N 2622   8.746   8.025   6.572
    4SBC   C04N 2623   9.098   7.506   6.607
    4SBC   C02P 2624   8.951   7.844   6.592
    4SBC   C04I 2625   9.248   7.656   6.497
    4SBC   C044 2626   9.319   7.919   6.417
    4SBC   C043 2627   8.972   7.968   6.539
    4SBC   C05N 2628   8.869   8.058   6.525
    4SBC   C09U 2629   8.942   8.393   6.295
    4SBC   C09V 2630   8.968   8.514   6.238
    4SBC   C09X 2631   8.871   8.593   6.187
    4SBC   C09Y 2632   8.880   8.723   6.135
    4SBC   C0A1 2633   9.007   8.766   6.120
    4SBC   C0A2 2634   9.109   8.685   6.147
    4SBC   C0A4 2635   9.238   8.723   6.118
    4SBC   C071 2636   9.349   8.630   6.132
    4SBC   C0A5 2637   9.471   8.654   6.073
    4SBC   C0A9 2638   9.486   8.781   6.004
    4SBC   C0A8 2639   9.382   8.876   6.006
    4SBC   C0AP 2640   9.392   8.996   5.936
    4SBC   C0BY 2641   9.279   9.080   5.924
    4SBC   C0BX 2642   9.155   9.053   5.963
    4SBC   C0C2 2643   9.048   9.141   5.939
    4SBC   C0C3 2644   8.920   9.101   5.970
    4SBC   C0CT 2645   8.901   8.973   6.019
    4SBC   C0C1 2646   9.075   9.269   5.885
    4SBC   C0C0 2647   9.210   9.295   5.833
    4SBC   C0A7 2648   9.142   8.929   6.022
    4SBC   C0BZ 2649   9.307   9.199   5.856
    4SBC   C0BO 2650   9.428   9.230   5.801
    4SBC   C0BN 2651   9.540   9.143   5.817
    4SBC   C0BM 2652   9.652   9.179   5.743
    4SBC   C0B9 2653   9.755   9.082   5.739
    4SBC   C0B8 2654   9.739   8.960   5.803
    4SBC   C0AD 2655   9.622   8.933   5.877
    4SBC   C0AF 2656   9.828   8.856   5.775
    4SBC   C0AG 2657   9.925   8.866   5.675
    4SBC   C0B7 2658   9.934   8.988   5.612
    4SBC   C0AE 2659   9.802   8.739   5.839
    4SBC   C0AB 2660   9.696   8.712   5.924
    4SBC   C0AA 2661   9.673   8.585   5.977
    4SBC   C0AJ 2662   9.887   8.634   5.808
    4SBC   C0AK 2663   9.868   8.509   5.867
    4SBC   C06W 2664   9.950   8.430   5.798
    4SBC   C0AI 2665   9.982   8.634   5.708
    4SBC   C0BP 2666   9.426   9.347   5.731
    4SBC   C0BQ 2667   9.548   9.394   5.669
    4SBC   C0BW 2668   9.519   9.024   5.879
    4SBC   C0AC 2669   9.602   8.811   5.935
    4SBC   C0A6 2670   9.253   8.843   6.049
    4SBC   C0A3 2671   9.013   8.891   6.058
    4SBC   C09Z 2672   8.765   8.794   6.089
    4SBC   C09W 2673   9.091   8.561   6.209
    4SBC   C072 2674   9.199   8.474   6.239
    4SBC   C09H 2675   8.750   8.531   6.175
    4SBC   C09G 2676   8.643   8.601   6.116
    4SBC   C09P 2677   8.532   8.520   6.137
    4SBC   C02O 2678   8.510   8.232   6.381
    4SBC   C02M 2679   8.635   8.098   6.538
    4SBC   C02F 2680   8.620   7.890   6.730
    4SBC   C00W 2681   8.470   7.741   6.841
    4SBC   C01R 2682   8.194   7.696   6.924
    4SBC   C01N 2683   8.285   8.006   6.755
    4SBC   C01L 2684   8.120   8.111   6.604
    4SBC   C01H 2685   7.776   8.149   6.658
    4SBC   C01K 2686   7.962   7.883   6.837
    4SBC   C01E 2687   7.706   7.811   6.909
    4SBC   C01G 2688   7.643   8.136   6.732
    4SBC   C01D 2689   7.581   7.779   6.952
    4SBC   C01A 2690   7.324   7.713   7.032
    4SBC   H001 2691   7.221   7.693   7.059
    4SBC   C01F 2692   7.401   8.094   6.867
    4SBC   C03P 2693   7.199   8.291   6.875
    4SBC   C03T 2694   7.323   8.430   6.732
    4SBC   C08I 2695   7.399   8.664   6.598
    4SBC   C08J 2696   7.445   8.775   6.531
    4SBC   C08L 2697   7.605   8.891   6.384
    4SBC   C093 2698   7.774   9.006   6.229
    4SBC   C08Z 2699   7.909   8.752   6.220
    4SBC   C09T 2700   8.181   9.081   6.006
    4SBC   C09S 2701   8.175   8.733   6.064
    4SBC   C09Q 2702   8.406   8.571   6.103
    4SBC   C09F 2703   8.644   8.736   6.083
    4SBC   C09E 2704   8.395   8.978   5.977
    4SBC   C0A0 2705   8.770   8.924   6.035
    4SBC   C0CU 2706   8.808   9.186   5.948
    4SBC   C0CR 2707   8.834   9.322   5.907
    4SBC   C0CZ 2708   8.728   9.407   5.881
    4SBC   C0DA 2709   8.325   9.103   5.970
    4SBC   C0D9 2710   8.294   9.368   5.737
    4SBC   H00V 2711   8.227   9.297   5.690
    4SBC   C0CY 2712   8.594   9.357   5.899
    4SBC   C0DF 2713   8.354   9.487   5.676
    4SBC   C0DE 2714   8.369   9.560   5.556
    4SBC   C0GI 2715   8.288   9.568   5.440
    4SBC   H01K 2716   8.198   9.508   5.433
    4SBC   C0GJ 2717   8.334   9.644   5.338
    4SBC   H01J 2718   8.265   9.657   5.255
    4SBC   O00I 2719   8.456   9.721   5.342
    4SBC   C0GH 2720   8.536   9.708   5.455
    4SBC   C0GG 2721   8.662   9.781   5.452
    4SBC   O00G 2722   8.679   9.871   5.349
    4SBC   C0G8 2723   8.785   9.953   5.337
    4SBC   C0G9 2724   8.774  10.072   5.260
    4SBC   H01G 2725   8.683  10.093   5.205
    4SBC   C0GA 2726   8.884  10.153   5.254
    4SBC   H01H 2727   8.873  10.247   5.200
    4SBC   C0GB 2728   9.019  10.121   5.292
    4SBC   C0EP 2729   9.025   9.995   5.361
    4SBC   C0E8 2730   9.157   9.936   5.379
    4SBC   C0CK 2731   9.214   9.818   5.447
    4SBC   C0CL 2732   9.156   9.784   5.558
    4SBC   C0E9 2733   9.016   9.785   5.574
    4SBC   C0GE 2734   8.895   9.824   5.502
    4SBC   C0E7 2735   9.273  10.016   5.371
    4SBC   C0CJ 2736   9.392   9.957   5.420
    4SBC   C0E6 2737   9.508  10.034   5.414
    4SBC   H00Y 2738   9.599  10.004   5.464
    4SBC   C0EO 2739   9.498  10.156   5.346
    4SBC   H011 2740   9.585  10.218   5.340
    4SBC   C0G6 2741   9.377  10.217   5.297
    4SBC   C0G5 2742   9.367  10.343   5.219
    4SBC   H01F 2743   9.462  10.389   5.201
    4SBC   C0GD 2744   9.241  10.381   5.179
    4SBC   H01I 2745   9.239  10.464   5.110
    4SBC   O00H 2746   9.122  10.318   5.203
    4SBC   C0EQ 2747   9.260  10.145   5.316
    4SBC   C0GC 2748   9.133  10.201   5.274
    4SBC   C0G7 2749   8.909   9.920   5.402
    4SBC   C0DD 2750   8.494   9.630   5.559
    4SBC   C0GF 2751   8.767   9.773   5.543
    4SBC   C0CO 2752   9.005   9.730   5.694
    4SBC   C0D0 2753   8.756   9.532   5.815
    4SBC   C0C4 2754   8.973   9.365   5.878
    4SBC   C0CN 2755   9.123   9.692   5.756
    4SBC   C0CP 2756   9.290   9.392   5.756
    4SBC   C0CM 2757   9.234   9.737   5.675
    4SBC   C0CI 2758   9.360   9.822   5.454
    4SBC   C0CD 2759   9.784   9.641   5.318
    4SBC   C0BR 2760   9.545   9.511   5.582
    4SBC   C0CS 2761   9.654   9.297   5.667
    4SBC   C0B6 2762   9.852   9.096   5.644
    4SBC   C0CG 2763   9.879   9.442   5.410
    4SBC   C0CF 2764   9.891   9.555   5.330
    4SBC   C0E5 2765   9.897   9.768   5.146
    4SBC   C0DT 2766  10.125   9.829   5.012
    4SBC   C0DL 2767  10.223   9.509   5.176
    4SBC   C0DM 2768  10.326   9.415   5.168
    4SBC   C0DY 2769  10.452   9.553   5.012
    4SBC   C0DU 2770  10.242   9.845   4.936
    4SBC   C0F0 2771  10.324   9.917   4.716
    4SBC   C0F4 2772  10.460   9.862   4.485
    4SBC   C0FG 2773  10.657   9.687   4.734
    4SBC   O00B 2774  10.601   9.699   4.379
    4SBC   C0FN 2775  10.741   9.586   4.704
    4SBC   C0DZ 2776  10.555   9.564   4.918
    4SBC   O00C 2777  10.693   9.234   4.930
    4SBC   C0FR 2778  10.678   9.115   4.976
    4SBC   O00D 2779  10.742   9.035   4.915
    4SBC   C0E0 2780  10.438   9.438   5.091
    4SBC   C0E3 2781  10.582   9.100   5.081
    4SBC   C0AW 2782  10.552   8.975   5.130
    4SBC   C0AV 2783  10.613   8.845   5.091
    4SBC   H00Q 2784  10.702   8.851   5.030
    4SBC   C0AU 2785  10.560   8.718   5.127
    4SBC   H00R 2786  10.599   8.631   5.077
    4SBC   C0AT 2787  10.462   8.713   5.226
    4SBC   C0AS 2788  10.372   8.612   5.286
    4SBC   C0AR 2789  10.369   8.478   5.238
    4SBC   C0BE 2790  10.413   8.834   5.274
    4SBC   C0DN 2791  10.305   9.296   5.240
    4SBC   C0AX 2792  10.452   8.961   5.226
    4SBC   C0BB 2793  10.166   9.149   5.379
    4SBC   C0BD 2794  10.307   8.814   5.364
    4SBC   C0B2 2795  10.040   9.002   5.528
    4SBC   C0AH 2796   9.999   8.752   5.635
    4SBC   C0BF 2797  10.273   8.678   5.376
    4SBC   C0AL 2798  10.026   8.495   5.699
    4SBC   C07U 2799  10.200   8.389   5.406
    4SBC   C0AQ 2800  10.293   8.378   5.300
    4SBC   C0BG 2801  10.449   8.426   5.125
    4SBC   C0FY 2802  10.295   8.152   4.948
    4SBC   C0BJ 2803  10.425   8.462   4.985
    4SBC   H00S 2804  10.402   8.563   4.954
    4SBC   C0FZ 2805  10.269   8.202   4.821
    4SBC   C07S 2806  10.194   8.074   5.020
    4SBC   C0G1 2807   9.952   8.038   4.732
    4SBC   C07K 2808   9.756   7.852   4.980
    4SBC   C07H 2809   9.979   7.931   5.141
    4SBC   C06B 2810   9.904   7.638   5.320
    4SBC   C06N 2811   9.899   7.725   5.531
    4SBC   C066 2812  10.059   8.037   5.361
    4SBC   C062 2813  10.007   8.164   5.633
    4SBC   C05Y 2814   9.876   7.826   5.767
    4SBC   C061 2815   9.987   8.181   5.767
    4SBC   C05H 2816   9.767   8.040   6.010
    4SBC   C06V 2817   9.923   8.296   5.823
    4SBC   C06Y 2818   9.759   8.480   5.949
    4SBC   C05C 2819   9.610   8.203   6.155
    4SBC   C06Z 2820   9.566   8.557   6.056
    4SBC   C070 2821   9.329   8.505   6.191
    4SBC   C05B 2822   9.503   8.182   6.240
    4SBC   C057 2823   9.251   8.140   6.374
    4SBC   C059 2824   9.178   8.349   6.303
    5SBC   C058 2825   7.111   6.914  11.633
    5SBC   C05A 2826   7.020   6.871  11.737
    5SBC   C06Q 2827   6.900   6.939  11.766
    5SBC   C06R 2828   6.811   6.897  11.867
    5SBC   C06S 2829   6.837   6.779  11.942
    5SBC   C06T 2830   6.735   6.735  12.036
    5SBC   C06U 2831   6.722   6.605  12.114
    5SBC   C06X 2832   6.816   6.501  12.133
    5SBC   C060 2833   6.758   6.405  12.230
    5SBC   C05Z 2834   6.818   6.328  12.336
    5SBC   C068 2835   6.711   6.336  12.447
    5SBC   C067 2836   6.701   6.254  12.564
    5SBC   C069 2837   6.771   6.129  12.563
    5SBC   C06A 2838   6.763   6.016  12.652
    5SBC   C073 2839   6.719   5.988  12.778
    5SBC   C07P 2840   6.784   5.891  12.854
    5SBC   C07O 2841   6.921   5.849  12.847
    5SBC   H00D 2842   6.993   5.892  12.779
    5SBC   C07N 2843   6.967   5.730  12.900
    5SBC   H00E 2844   7.066   5.689  12.889
    5SBC   C07M 2845   6.882   5.673  12.991
    5SBC   H00F 2846   6.924   5.583  13.034
    5SBC   C07L 2847   6.743   5.694  12.993
    5SBC   C07Q 2848   6.643   5.615  13.060
    5SBC   H00G 2849   6.676   5.527  13.112
    5SBC   O00F 2850   6.509   5.632  13.040
    5SBC   C07J 2851   6.473   5.764  13.013
    5SBC   C07I 2852   6.566   5.849  12.943
    5SBC   N004 2853   6.531   5.982  12.907
    5SBC   C07R 2854   6.414   6.031  12.964
    5SBC   C07T 2855   6.321   5.945  13.024
    5SBC   C0FX 2856   6.198   5.990  13.064
    5SBC   C0FW 2857   6.084   5.911  13.088
    5SBC   C0G0 2858   6.107   5.773  13.083
    5SBC   C0G2 2859   6.004   5.683  13.101
    5SBC   H01E 2860   6.028   5.578  13.100
    5SBC   C0G3 2861   5.872   5.731  13.122
    5SBC   H01C 2862   5.795   5.658  13.139
    5SBC   C0G4 2863   5.850   5.871  13.120
    5SBC   H01D 2864   5.751   5.907  13.146
    5SBC   O00E 2865   6.236   5.724  13.071
    5SBC   C0FV 2866   5.953   5.962  13.102
    5SBC   C0FU 2867   5.943   6.101  13.098
    5SBC   H01B 2868   5.848   6.152  13.090
    5SBC   C0FT 2869   6.057   6.184  13.095
    5SBC   C0FS 2870   6.093   6.315  13.056
    5SBC   C0BI 2871   6.234   6.342  13.059
    5SBC   C0BH 2872   6.265   6.460  12.978
    5SBC   C07F 2873   6.330   6.449  12.851
    5SBC   C07E 2874   6.429   6.364  12.805
    5SBC   C07G 2875   6.461   6.242  12.865
    5SBC   C074 2876   6.563   6.189  12.780
    5SBC   C065 2877   6.495   6.370  12.682
    5SBC   C064 2878   6.440   6.463  12.593
    5SBC   C063 2879   6.477   6.486  12.461
    5SBC   C075 2880   6.382   6.595  12.413
    5SBC   C0AM 2881   6.281   6.626  12.514
    5SBC   C0AN 2882   6.161   6.711  12.499
    5SBC   C0AO 2883   6.123   6.809  12.392
    5SBC   C0B1 2884   6.000   6.875  12.392
    5SBC   C0B0 2885   5.911   6.861  12.496
    5SBC   C0AZ 2886   5.787   6.927  12.515
    5SBC   C0AY 2887   5.707   6.917  12.632
    5SBC   N007 2888   5.589   6.982  12.645
    5SBC   C0E2 2889   5.507   6.962  12.765
    5SBC   C0E1 2890   5.397   7.039  12.780
    5SBC   C0E4 2891   5.314   7.029  12.895
    5SBC   C0FF 2892   5.208   7.119  12.922
    5SBC   C0FJ 2893   5.112   7.129  13.034
    5SBC   C0FK 2894   5.049   7.017  13.103
    5SBC   H016 2895   5.089   6.916  13.100
    5SBC   C0FL 2896   4.916   7.069  13.145
    5SBC   H017 2897   4.827   7.014  13.174
    5SBC   C0FM 2898   4.900   7.203  13.110
    5SBC   C0FH 2899   4.802   7.298  13.054
    5SBC   C0FI 2900   4.884   7.368  12.964
    5SBC   C0F3 2901   4.835   7.445  12.858
    5SBC   C0F2 2902   4.919   7.456  12.753
    5SBC   C0DW 2903   5.037   7.385  12.738
    5SBC   C0FE 2904   5.089   7.311  12.844
    5SBC   C0DV 2905   5.099   7.371  12.618
    5SBC   C0DX 2906   5.214   7.293  12.603
    5SBC   C0DK 2907   5.276   7.300  12.478
    5SBC   C0DJ 2908   5.226   7.383  12.378
    5SBC   C0DI 2909   5.305   7.396  12.269
    5SBC   C0DH 2910   5.424   7.324  12.250
    5SBC   C0DG 2911   5.464   7.234  12.346
    5SBC   C0BV 2912   5.584   7.170  12.331
    5SBC   C0BC 2913   5.628   7.083  12.430
    5SBC   C0BA 2914   5.662   7.194  12.220
    5SBC   C0B4 2915   5.789   7.138  12.221
    5SBC   C0B3 2916   5.833   7.040  12.314
    5SBC   C0B5 2917   5.877   7.185  12.124
    5SBC   C0BU 2918   5.831   7.270  12.020
    5SBC   C0BT 2919   5.700   7.316  12.013
    5SBC   C0BS 2920   5.655   7.395  11.910
    5SBC   C0CC 2921   5.532   7.451  11.918
    5SBC   C0CB 2922   5.486   7.534  11.817
    5SBC   C0CH 2923   5.377   7.624  11.860
    5SBC   C0DO 2924   5.292   7.595  11.970
    5SBC   C0DP 2925   5.170   7.663  11.988
    5SBC   C0EA 2926   5.123   7.760  11.884
    5SBC   H012 2927   5.193   7.789  11.807
    5SBC   O009 2928   4.999   7.822  11.885
    5SBC   C0EH 2929   4.921   7.776  11.990
    5SBC   C0EG 2930   4.791   7.827  11.990
    5SBC   C0EJ 2931   4.719   7.920  11.910
    5SBC   H010 2932   4.747   7.973  11.820
    5SBC   C0EK 2933   4.584   7.938  11.967
    5SBC   H00Z 2934   4.505   8.006  11.940
    5SBC   C0EL 2935   4.567   7.838  12.067
    5SBC   C0EM 2936   4.461   7.808  12.162
    5SBC   C0EW 2937   4.329   7.862  12.165
    5SBC   H013 2938   4.285   7.902  12.074
    5SBC   C0EX 2939   4.244   7.830  12.285
    5SBC   H014 2940   4.138   7.850  12.285
    5SBC   C0F1 2941   4.295   7.759  12.393
    5SBC   C0EU 2942   4.427   7.707  12.383
    5SBC   C0ET 2943   4.489   7.628  12.481
    5SBC   C0ES 2944   4.620   7.602  12.423
    5SBC   C0EE 2945   4.625   7.664  12.293
    5SBC   C0ED 2946   4.726   7.700  12.197
    5SBC   C0EC 2947   4.865   7.663  12.201
    5SBC   C0EB 2948   4.922   7.583  12.304
    5SBC   C0EN 2949   4.864   7.584  12.433
    5SBC   C0ER 2950   4.944   7.528  12.531
    5SBC   C0DS 2951   5.051   7.527  12.293
    5SBC   C0DR 2952   5.127   7.538  12.182
    5SBC   C0EY 2953   4.736   7.609  12.498
    5SBC   C0EZ 2954   4.738   7.563  12.631
    5SBC   C0F5 2955   4.640   7.526  12.738
    5SBC   C0F6 2956   4.501   7.560  12.728
    5SBC   N008 2957   4.431   7.538  12.850
    5SBC   C0F7 2958   4.491   7.467  12.964
    5SBC   C0FQ 2959   4.417   7.460  13.083
    5SBC   H018 2960   4.445   7.408  13.173
    5SBC   C0FP 2961   4.290   7.522  13.092
    5SBC   H019 2962   4.241   7.514  13.187
    5SBC   C0FO 2963   4.232   7.579  12.984
    5SBC   H01A 2964   4.128   7.607  12.992
    5SBC   C0F8 2965   4.619   7.419  12.950
    5SBC   C0F9 2966   4.299   7.588  12.859
    5SBC   C0FA 2967   4.234   7.656  12.749
    5SBC   H015 2968   4.136   7.695  12.771
    5SBC   C0FB 2969   4.305   7.681  12.626
    5SBC   C0FD 2970   4.439   7.624  12.618
    5SBC   C0FC 2971   4.232   7.744  12.518
    5SBC   O00A 2972   4.116   7.788  12.533
    5SBC   C0EV 2973   4.502   7.726  12.272
    5SBC   C0EF 2974   4.694   7.784  12.082
    5SBC   C0EI 2975   4.953   7.684  12.094
    5SBC   C0DQ 2976   5.080   7.627  12.089
    5SBC   C0CE 2977   5.335   7.502  12.059
    5SBC   H00U 2978   5.373   7.715  11.801
    5SBC   C0CA 2979   5.542   7.534  11.686
    5SBC   C0C9 2980   5.676   7.480  11.679
    5SBC   C0C8 2981   5.733   7.474  11.550
    5SBC   C0C7 2982   5.870   7.456  11.506
    5SBC   C0C6 2983   5.885   7.471  11.365
    5SBC   C0C5 2984   5.988   7.513  11.273
    5SBC   C0CQ 2985   5.945   7.571  11.152
    5SBC   C0D1 2986   5.816   7.610  11.139
    5SBC   C0D8 2987   5.799   7.724  11.062
    5SBC   C0D7 2988   5.926   7.765  11.024
    5SBC   C0D6 2989   5.955   7.851  10.914
    5SBC   C0D5 2990   6.078   7.821  10.842
    5SBC   C0D4 2991   6.207   7.774  10.871
    5SBC   C0D3 2992   6.266   7.717  10.754
    5SBC   C0CX 2993   6.363   7.610  10.790
    5SBC   C0CW 2994   6.358   7.601  10.937
    5SBC   C0CV 2995   6.427   7.550  11.054
    5SBC   C0D2 2996   6.560   7.515  11.048
    5SBC   C09D 2997   6.647   7.526  10.937
    5SBC   C09C 2998   6.786   7.510  10.952
    5SBC   C09B 2999   6.888   7.525  10.855
    5SBC   C09A 3000   6.837   7.564  10.729
    5SBC   C099 3001   6.707   7.605  10.718
    5SBC   C098 3002   6.683   7.619  10.587
    5SBC   C08Y 3003   6.794   7.570  10.509
    5SBC   C08X 3004   6.812   7.532  10.376
    5SBC   C08W 3005   6.703   7.551  10.284
    5SBC   C08U 3006   6.560   7.586  10.316
    5SBC   C08V 3007   6.491   7.610  10.439
    5SBC   C0DC 3008   6.379   7.690  10.402
    5SBC   H00W 3009   6.326   7.743  10.479
    5SBC   C0DB 3010   6.376   7.703  10.259
    5SBC   H00X 3011   6.300   7.745  10.195
    5SBC   C08T 3012   6.493   7.641  10.213
    5SBC   C08S 3013   6.526   7.624  10.080
    5SBC   H00N 3014   6.463   7.663  10.003
    5SBC   C08R 3015   6.640   7.559  10.043
    5SBC   C08Q 3016   6.670   7.515   9.911
    5SBC   H00O 3017   6.582   7.532   9.850
    5SBC   C08P 3018   6.783   7.442   9.869
    5SBC   C08O 3019   6.806   7.382   9.741
    5SBC   H00P 3020   6.726   7.391   9.668
    5SBC   C08N 3021   6.919   7.301   9.719
    5SBC   C08M 3022   6.928   7.233   9.597
    5SBC   O008 3023   6.846   7.242   9.502
    5SBC   O007 3024   7.042   7.154   9.581
    5SBC   C08H 3025   7.139   7.143   9.677
    5SBC   C08G 3026   7.261   7.074   9.649
    5SBC   C03V 3027   7.296   7.007   9.530
    5SBC   H009 3028   7.216   6.987   9.461
    5SBC   C03U 3029   7.431   6.965   9.501
    5SBC   C03W 3030   7.481   6.910   9.378
    5SBC   H00A 3031   7.414   6.894   9.294
    5SBC   C03X 3032   7.610   6.870   9.367
    5SBC   H00B 3033   7.642   6.832   9.271
    5SBC   O005 3034   7.703   6.877   9.466
    5SBC   C03O 3035   7.652   6.925   9.586
    5SBC   C03N 3036   7.735   6.915   9.696
    5SBC   O000 3037   7.858   6.865   9.675
    5SBC   C019 3038   7.930   6.821   9.780
    5SBC   C018 3039   7.897   6.859   9.915
    5SBC   C017 3040   7.781   6.940   9.930
    5SBC   C016 3041   7.748   6.994  10.057
    5SBC   C015 3042   7.845   6.960  10.160
    5SBC   C014 3043   7.817   7.009  10.288
    5SBC   C013 3044   7.708   7.098  10.313
    5SBC   C012 3045   7.713   7.114  10.458
    5SBC   C011 3046   7.829   7.045  10.503
    5SBC   C010 3047   7.861   7.033  10.636
    5SBC   C00Z 3048   7.958   6.950  10.688
    5SBC   C00Y 3049   7.914   6.942  10.823
    5SBC   C01O 3050   7.800   7.014  10.845
    5SBC   C01P 3051   7.717   6.998  10.955
    5SBC   C02L 3052   7.596   7.059  10.948
    5SBC   C02K 3053   7.562   7.123  10.822
    5SBC   C01M 3054   7.646   7.131  10.696
    5SBC   C02J 3055   7.445   7.193  10.837
    5SBC   C02I 3056   7.396   7.277  10.737
    5SBC   C02H 3057   7.434   7.309  10.606
    5SBC   C01Q 3058   7.528   7.260  10.525
    5SBC   C02G 3059   7.499   7.290  10.384
    5SBC   C089 3060   7.388   7.384  10.391
    5SBC   C088 3061   7.308   7.376  10.278
    5SBC   C087 3062   7.384   7.285  10.193
    5SBC   C086 3063   7.343   7.242  10.063
    5SBC   C03S 3064   7.414   7.149   9.978
    5SBC   N006 3065   7.341   7.141   9.864
    5SBC   C08F 3066   7.228   7.210   9.880
    5SBC   C01J 3067   7.540   7.084   9.972
    5SBC   C03R 3068   7.573   7.024   9.845
    5SBC   C03Q 3069   7.484   7.018   9.735
    5SBC   C08E 3070   7.227   7.287   9.996
    5SBC   C08D 3071   7.109   7.354  10.040
    5SBC   C08K 3072   7.005   7.362   9.939
    5SBC   C08C 3073   7.087   7.418  10.160
    5SBC   C091 3074   6.956   7.463  10.186
    5SBC   C092 3075   6.850   7.474  10.099
    5SBC   C08B 3076   7.165   7.432  10.269
    5SBC   C090 3077   7.076   7.492  10.368
    5SBC   C094 3078   7.114   7.499  10.509
    5SBC   C095 3079   7.027   7.517  10.616
    5SBC   C09R 3080   7.078   7.471  10.734
    5SBC   C097 3081   7.200   7.411  10.710
    5SBC   C096 3082   7.225   7.431  10.576
    5SBC   C01I 3083   7.510   7.233  10.256
    5SBC   C08A 3084   7.344   7.382  10.527
    5SBC   C09L 3085   7.280   7.331  10.793
    5SBC   C09K 3086   7.252   7.275  10.922
    5SBC   C09J 3087   7.158   7.319  11.017
    5SBC   C09I 3088   7.131   7.261  11.140
    5SBC   C09O 3089   7.184   7.161  11.231
    5SBC   C09N 3090   7.306   7.105  11.196
    5SBC   C09M 3091   7.392   7.116  11.080
    5SBC   C06O 3092   7.344   6.998  11.291
    5SBC   C05M 3093   7.267   6.967  11.407
    5SBC   C06P 3094   7.151   7.040  11.436
    5SBC   C042 3095   7.307   6.870  11.500
    5SBC   C041 3096   7.422   6.798  11.476
    5SBC   C040 3097   7.467   6.697  11.565
    5SBC   C03Z 3098   7.578   6.618  11.548
    5SBC   C03Y 3099   7.661   6.652  11.439
    5SBC   C027 3100   7.776   6.575  11.422
    5SBC   C026 3101   7.861   6.610  11.313
    5SBC   C028 3102   7.967   6.524  11.283
    5SBC   C029 3103   7.997   6.422  11.369
    5SBC   C02B 3104   8.104   6.344  11.336
    5SBC   C02C 3105   8.129   6.228  11.412
    5SBC   C02X 3106   8.220   6.140  11.368
    5SBC   C03E 3107   8.240   6.026  11.440
    5SBC   C03G 3108   8.169   5.989  11.549
    5SBC   C04Q 3109   8.071   6.075  11.595
    5SBC   C04R 3110   7.985   6.038  11.693
    5SBC   C04S 3111   7.876   6.118  11.727
    5SBC   C04L 3112   7.863   6.243  11.663
    5SBC   C04M 3113   7.946   6.283  11.562
    5SBC   C04K 3114   7.753   6.322  11.688
    5SBC   C04F 3115   7.659   6.284  11.780
    5SBC   C04E 3116   7.675   6.162  11.848
    5SBC   C04D 3117   7.579   6.118  11.940
    5SBC   C050 3118   7.589   5.992  11.997
    5SBC   C051 3119   7.490   5.950  12.088
    5SBC   C05Q 3120   7.492   5.822  12.139
    5SBC   C05V 3121   7.395   5.781  12.226
    5SBC   N005 3122   7.399   5.647  12.275
    5SBC   C07V 3123   7.503   5.564  12.238
    5SBC   C082 3124   7.507   5.440  12.294
    5SBC   C081 3125   7.416   5.396  12.386
    5SBC   C07C 3126   7.308   5.479  12.418
    5SBC   C07B 3127   7.199   5.431  12.501
    5SBC   C080 3128   7.205   5.302  12.554
    5SBC   C07Z 3129   7.090   5.258  12.625
    5SBC   H00L 3130   7.088   5.161  12.673
    5SBC   C079 3131   6.968   5.328  12.620
    5SBC   C078 3132   6.966   5.457  12.571
    5SBC   C077 3133   6.852   5.537  12.582
    5SBC   C07X 3134   6.727   5.476  12.612
    5SBC   H00I 3135   6.637   5.535  12.609
    5SBC   C07Y 3136   6.723   5.340  12.653
    5SBC   H00H 3137   6.622   5.306  12.675
    5SBC   C076 3138   6.861   5.671  12.548
    5SBC   C06C 3139   6.763   5.764  12.593
    5SBC   H00C 3140   6.680   5.734  12.655
    5SBC   C06F 3141   6.974   5.720  12.486
    5SBC   C06E 3142   6.990   5.853  12.449
    5SBC   C06G 3143   7.090   5.904  12.375
    5SBC   C06H 3144   7.186   5.817  12.341
    5SBC   C06I 3145   7.187   5.687  12.384
    5SBC   C06L 3146   7.076   6.045  12.335
    5SBC   C06M 3147   6.963   6.130  12.371
    5SBC   C06K 3148   7.182   6.089  12.251
    5SBC   C05S 3149   7.291   6.001  12.215
    5SBC   C05U 3150   7.168   6.218  12.193
    5SBC   C05X 3151   7.047   6.298  12.220
    5SBC   C05G 3152   7.042   6.414  12.130
    5SBC   C05F 3153   7.150   6.447  12.050
    5SBC   C05E 3154   7.123   6.555  11.967
    5SBC   C048 3155   7.212   6.595  11.868
    5SBC   C056 3156   7.176   6.698  11.787
    5SBC   C045 3157   7.266   6.736  11.692
    5SBC   C047 3158   7.329   6.515  11.855
    5SBC   C049 3159   7.352   6.402  11.930
    5SBC   C04B 3160   7.465   6.324  11.912
    5SBC   C046 3161   7.415   6.557  11.753
    5SBC   C04H 3162   7.523   6.478  11.733
    5SBC   C05D 3163   6.995   6.603  11.990
    5SBC   C04A 3164   7.262   6.364  12.029
    5SBC   C05T 3165   7.273   6.252  12.103
    5SBC   C055 3166   7.378   6.168  12.068
    5SBC   C06D 3167   6.896   5.946  12.499
    5SBC   C07W 3168   7.081   5.640  12.462
    5SBC   C085 3169   6.846   5.277  12.670
    5SBC   H00M 3170   6.843   5.175  12.707
    5SBC   C084 3171   7.318   5.226  12.526
    5SBC   H00J 3172   7.327   5.124  12.561
    5SBC   C07A 3173   7.082   5.505  12.513
    5SBC   C083 3174   7.422   5.272  12.451
    5SBC   H00K 3175   7.508   5.210  12.431
    5SBC   O00K 3176   7.609   5.358  12.264
    5SBC   C0GO 3177   7.706   5.393  12.172
    5SBC   C0GN 3178   7.814   5.305  12.145
    5SBC   H01L 3179   7.811   5.203  12.182
    5SBC   C0GM 3180   7.914   5.345  12.049
    5SBC   C0GL 3181   7.999   5.250  11.997
    5SBC   H01M 3182   7.989   5.145  12.018
    5SBC   O00J 3183   8.090   5.285  11.898
    5SBC   C0GK 3184   8.094   5.416  11.864
    5SBC   H01N 3185   8.151   5.435  11.774
    5SBC   C05K 3186   8.009   5.513  11.916
    5SBC   C05J 3187   8.011   5.646  11.857
    5SBC   C04Y 3188   8.111   5.699  11.772
    5SBC   C04X 3189   8.105   5.828  11.714
    5SBC   O006 3190   8.227   5.628  11.747
    5SBC   C053 3191   8.312   5.656  11.638
    5SBC   C04O 3192   8.289   5.773  11.564
    5SBC   C03C 3193   8.345   5.808  11.434
    5SBC   C03B 3194   8.443   5.742  11.348
    5SBC   C054 3195   8.545   5.666  11.403
    5SBC   C0GR 3196   8.645   5.616  11.319
    5SBC   C03M 3197   8.705   5.647  11.190
    5SBC   C03I 3198   8.667   5.761  11.107
    5SBC   C03J 3199   8.736   5.784  10.986
    5SBC   N002 3200   8.712   5.901  10.898
    5SBC   C02U 3201   8.765   5.916  10.769
    5SBC   C02T 3202   8.719   6.016  10.682
    5SBC   C02Z 3203   8.772   6.017  10.550
    5SBC   N001 3204   8.719   6.111  10.458
    5SBC   C02R 3205   8.771   6.109  10.325
    5SBC   C032 3206   8.869   6.018  10.288
    5SBC   C031 3207   8.917   5.924  10.378
    5SBC   H007 3208   9.002   5.867  10.344
    5SBC   C033 3209   8.903   6.026  10.149
    5SBC   H003 3210   8.980   5.958  10.116
    5SBC   O004 3211   8.856   6.111  10.058
    5SBC   C034 3212   8.767   6.204  10.107
    5SBC   C035 3213   8.710   6.293  10.013
    5SBC   C036 3214   8.633   6.394  10.058
    5SBC   H005 3215   8.596   6.461   9.981
    5SBC   C037 3216   8.597   6.407  10.194
    5SBC   H006 3217   8.543   6.491  10.234
    5SBC   C00D 3218   8.626   6.309  10.286
    5SBC   C00C 3219   8.575   6.308  10.414
    5SBC   C00B 3220   8.471   6.405  10.467
    5SBC   C00A 3221   8.383   6.527  10.429
    5SBC   C009 3222   8.344   6.581  10.553
    5SBC   C008 3223   8.234   6.665  10.581
    5SBC   C007 3224   8.171   6.722  10.473
    5SBC   C006 3225   8.076   6.826  10.496
    5SBC   C005 3226   8.008   6.878  10.383
    5SBC   C004 3227   8.025   6.829  10.255
    5SBC   C003 3228   8.115   6.722  10.236
    5SBC   C002 3229   8.145   6.676  10.106
    5SBC   C01C 3230   8.082   6.732   9.992
    5SBC   C01B 3231   8.119   6.702   9.858
    5SBC   H000 3232   8.206   6.646   9.829
    5SBC   C001 3233   8.228   6.562  10.093
    5SBC   C000 3234   8.281   6.501  10.203
    5SBC   C01U 3235   8.306   6.366  10.159
    5SBC   H002 3236   8.337   6.271  10.202
    5SBC   C01T 3237   8.310   6.368  10.012
    5SBC   O002 3238   8.348   6.283   9.940
    5SBC   O001 3239   8.247   6.485   9.978
    5SBC   C01S 3240   8.188   6.671  10.344
    5SBC   C00N 3241   8.196   6.683  10.711
    5SBC   C00M 3242   8.247   6.604  10.813
    5SBC   C00J 3243   8.342   6.508  10.787
    5SBC   C00I 3244   8.373   6.401  10.865
    5SBC   C00H 3245   8.456   6.300  10.818
    5SBC   C00G 3246   8.504   6.301  10.687
    5SBC   C00F 3247   8.581   6.202  10.636
    5SBC   C01X 3248   8.494   6.197  10.899
    5SBC   C01W 3249   8.438   6.182  11.025
    5SBC   C01V 3250   8.344   6.281  11.067
    5SBC   C020 3251   8.269   6.264  11.181
    5SBC   C01Z 3252   8.461   6.076  11.102
    5SBC   C02Y 3253   8.376   6.063  11.203
    5SBC   C039 3254   8.388   5.947  11.274
    5SBC   C02W 3255   8.551   5.973  11.061
    5SBC   C01Y 3256   8.581   6.105  10.855
    5SBC   C00U 3257   8.310   6.389  10.990
    5SBC   C00S 3258   8.211   6.481  11.022
    5SBC   C00T 3259   8.146   6.467  11.140
    5SBC   C00R 3260   8.182   6.587  10.936
    5SBC   C00Q 3261   8.087   6.672  10.966
    5SBC   C00V 3262   8.013   6.652  11.082
    5SBC   C024 3263   7.905   6.733  11.117
    5SBC   C00X 3264   7.873   6.839  11.028
    5SBC   C00P 3265   8.054   6.772  10.876
    5SBC   C00O 3266   8.106   6.776  10.743
    5SBC   C00K 3267   8.393   6.508  10.656
    5SBC   N000 3268   8.278   6.556  10.332
    5SBC   C00L 3269   8.466   6.402  10.607
    5SBC   H004 3270   8.743   6.288   9.910
    5SBC   C02Q 3271   8.717   6.206  10.240
    5SBC   C00E 3272   8.628   6.212  10.503
    5SBC   C030 3273   8.876   5.922  10.512
    5SBC   O003 3274   8.925   5.835  10.605
    5SBC   C02S 3275   8.626   6.105  10.725
    5SBC   C038 3276   8.860   5.823  10.725
    5SBC   C03L 3277   8.890   5.724  10.814
    5SBC   H008 3278   8.957   5.642  10.789
    5SBC   C02V 3279   8.618   5.997  10.939
    5SBC   C03K 3280   8.831   5.698  10.939
    5SBC   C0BK 3281   8.857   5.583  11.019
    5SBC   H00T 3282   8.929   5.510  10.985
    5SBC   C03H 3283   8.569   5.860  11.140
    5SBC   C0BL 3284   8.803   5.558  11.140
    5SBC   C0GU 3285   8.840   5.449  11.218
    5SBC   H01O 3286   8.915   5.386  11.172
    5SBC   C0GT 3287   8.786   5.418  11.341
    5SBC   H01P 3288   8.821   5.323  11.377
    5SBC   C0GS 3289   8.692   5.502  11.393
    5SBC   C0GV 3290   8.612   5.480  11.508
    5SBC   C0GW 3291   8.617   5.373  11.601
    5SBC   H01Q 3292   8.687   5.291  11.595
    5SBC   C0GX 3293   8.524   5.376  11.701
    5SBC   H01R 3294   8.523   5.282  11.754
    5SBC   O00L 3295   8.427   5.473  11.724
    5SBC   C0GQ 3296   8.519   5.579  11.521
    5SBC   C03A 3297   8.469   5.836  11.245
    5SBC   C05L 3298   8.419   5.566  11.623
    5SBC   C04W 3299   7.905   5.736  11.899
    5SBC   C05I 3300   7.806   5.696  11.988
    5SBC   C05O 3301   7.805   5.567  12.039
    5SBC   C052 3302   7.702   5.780  12.021
    5SBC   C04V 3303   7.900   5.867  11.849
    5SBC   C04U 3304   7.798   5.953  11.880
    5SBC   N009 3305   7.908   5.478  12.005
    5SBC   C0GP 3306   7.704   5.525  12.124
    5SBC   C05W 3307   7.600   5.608  12.153
    5SBC   C07D 3308   7.297   5.604  12.361
    5SBC   C06J 3309   7.294   5.866  12.264
    5SBC   C05P 3310   7.600   5.740  12.107
    5SBC   C05R 3311   7.385   6.042  12.124
    5SBC   C04Z 3312   7.697   5.907  11.964
    5SBC   C04C 3313   7.474   6.201  11.977
    5SBC   C04G 3314   7.553   6.368  11.812
    5SBC   C04J 3315   7.728   6.434  11.608
    5SBC   C04T 3316   7.784   6.078  11.819
    5SBC   N003 3317   7.996   5.911  11.750
    5SBC   C04P 3318   8.189   5.867  11.614
    5SBC   C03D 3319   8.310   5.928  11.380
    5SBC   C021 3320   8.291   6.156  11.256
    5SBC   C03F 3321   8.050   6.201  11.525
    5SBC   C022 3322   8.177   6.362  11.221
    5SBC   C02A 3323   7.917   6.390  11.478
    5SBC   C023 3324   8.044   6.551  11.170
    5SBC   C025 3325   7.830   6.713  11.227
    5SBC   C02D 3326   7.710   6.781  11.245
    5SBC   C02E 3327   7.670   6.884  11.157
    5SBC   C02N 3328   7.547   6.951  11.164
    5SBC   C04N 3329   7.805   6.467  11.501
    5SBC   C02P 3330   7.627   6.758  11.353
    5SBC   C04I 3331   7.611   6.509  11.630
    5SBC   C044 3332   7.383   6.660  11.669
    5SBC   C043 3333   7.503   6.824  11.366
    5SBC   C05N 3334   7.464   6.920  11.272
    5SBC   C09U 3335   7.105   7.132  11.348
    5SBC   C09V 3336   6.976   7.191  11.366
    5SBC   C09X 3337   6.921   7.279  11.276
    5SBC   C09Y 3338   6.797   7.337  11.277
    5SBC   C0A1 3339   6.722   7.307  11.387
    5SBC   C0A2 3340   6.775   7.229  11.493
    5SBC   C0A4 3341   6.696   7.195  11.598
    5SBC   C071 3342   6.739   7.106  11.693
    5SBC   C0A5 3343   6.650   7.066  11.788
    5SBC   C0A9 3344   6.529   7.132  11.805
    5SBC   C0A8 3345   6.489   7.228  11.713
    5SBC   C0AP 3346   6.366   7.287  11.727
    5SBC   C0BY 3347   6.323   7.364  11.621
    5SBC   C0BX 3348   6.388   7.382  11.505
    5SBC   C0C2 3349   6.332   7.443  11.394
    5SBC   C0C3 3350   6.403   7.465  11.279
    5SBC   C0CT 3351   6.538   7.433  11.280
    5SBC   C0C1 3352   6.195   7.473  11.396
    5SBC   C0C0 3353   6.118   7.468  11.527
    5SBC   C0A7 3354   6.517   7.334  11.500
    5SBC   C0BZ 3355   6.195   7.422  11.633
    5SBC   C0BO 3356   6.114   7.398  11.746
    5SBC   C0BN 3357   6.155   7.309  11.843
    5SBC   C0BM 3358   6.062   7.268  11.932
    5SBC   C0B9 3359   6.100   7.178  12.028
    5SBC   C0B8 3360   6.227   7.125  12.029
    5SBC   C0AD 3361   6.318   7.159  11.924
    5SBC   C0AF 3362   6.265   7.024  12.121
    5SBC   C0AG 3363   6.173   6.970  12.212
    5SBC   C0B7 3364   6.045   7.024  12.208
    5SBC   C0AE 3365   6.385   6.968  12.100
    5SBC   C0AB 3366   6.477   7.002  12.000
    5SBC   C0AA 3367   6.594   6.928  11.975
    5SBC   C0AJ 3368   6.414   6.851  12.165
    5SBC   C0AK 3369   6.524   6.771  12.137
    5SBC   C06W 3370   6.510   6.657  12.211
    5SBC   C0AI 3371   6.329   6.786  12.261
    5SBC   C0BP 3372   5.980   7.428  11.720
    5SBC   C0BQ 3373   5.876   7.385  11.813
    5SBC   C0BW 3374   6.281   7.255  11.834
    5SBC   C0AC 3375   6.442   7.098  11.908
    5SBC   C0A6 3376   6.569   7.256  11.604
    5SBC   C0A3 3377   6.594   7.359  11.391
    5SBC   C09Z 3378   6.743   7.411  11.173
    5SBC   C09W 3379   6.900   7.170  11.480
    5SBC   C072 3380   6.949   7.081  11.574
    5SBC   C09H 3381   7.008   7.322  11.181
    5SBC   C09G 3382   6.960   7.409  11.084
    5SBC   C09P 3383   7.050   7.399  10.978
    5SBC   C02O 3384   7.363   7.196  10.956
    5SBC   C02M 3385   7.511   7.045  11.066
    5SBC   C02F 3386   7.754   6.909  11.047
    5SBC   C00W 3387   7.957   6.856  10.922
    5SBC   C01R 3388   8.055   6.856  10.636
    5SBC   C01N 3389   7.766   7.072  10.727
    5SBC   C01L 3390   7.626   7.174  10.563
    5SBC   C01H 3391   7.609   7.137  10.214
    5SBC   C01K 3392   7.895   6.972  10.398
    5SBC   C01E 3393   7.945   6.867  10.147
    5SBC   C01G 3394   7.629   7.075  10.081
    5SBC   C01D 3395   7.975   6.816  10.017
    5SBC   C01A 3396   8.047   6.745   9.748
    5SBC   H001 3397   8.070   6.708   9.649
    5SBC   C01F 3398   7.692   6.955   9.826
    5SBC   C03P 3399   7.518   6.965   9.610
    5SBC   C03T 3400   7.364   7.075   9.745
    5SBC   C08I 3401   7.127   7.218   9.794
    5SBC   C08J 3402   7.018   7.293   9.821
    5SBC   C08L 3403   6.881   7.425   9.970
    5SBC   C093 3404   6.733   7.534  10.146
    5SBC   C08Z 3405   6.939   7.497  10.320
    5SBC   C09T 3406   6.541   7.607  10.574
    5SBC   C09S 3407   6.892   7.552  10.609
    5SBC   C09Q 3408   7.012   7.461  10.856
    5SBC   C09F 3409   6.825   7.443  11.068
    5SBC   C09E 3410   6.609   7.576  10.805
    5SBC   C0A0 3411   6.616   7.458  11.162
    5SBC   C0CU 3412   6.346   7.528  11.170
    5SBC   C0CR 3413   6.212   7.559  11.175
    5SBC   C0CZ 3414   6.159   7.642  11.078
    5SBC   C0DA 3415   6.493   7.594  10.721
    5SBC   C0D9 3416   6.156   7.711  10.651
    5SBC   H00V 3417   6.149   7.656  10.559
    5SBC   C0CY 3418   6.247   7.686  10.976
    5SBC   C0DF 3419   6.049   7.793  10.702
    5SBC   C0DE 3420   5.911   7.827  10.682
    5SBC   C0GI 3421   5.845   7.845  10.563
    5SBC   H01K 3422   5.890   7.845  10.465
    5SBC   C0GJ 3423   5.714   7.880  10.580
    5SBC   H01J 3424   5.663   7.912  10.490
    5SBC   O00I 3425   5.647   7.896  10.699
    5SBC   C0GH 3426   5.715   7.884  10.817
    5SBC   C0GG 3427   5.634   7.878  10.941
    5SBC   O00G 3428   5.506   7.934  10.946
    5SBC   C0G8 3429   5.422   7.914  11.054
    5SBC   C0G9 3430   5.300   7.984  11.044
    5SBC   H01G 3431   5.293   8.053  10.960
    5SBC   C0GA 3432   5.202   7.958  11.141
    5SBC   H01H 3433   5.111   8.010  11.117
    5SBC   C0GB 3434   5.225   7.869  11.254
    5SBC   C0EP 3435   5.359   7.812  11.271
    5SBC   C0E8 3436   5.379   7.734  11.397
    5SBC   C0CK 3437   5.486   7.664  11.462
    5SBC   C0CL 3438   5.592   7.614  11.394
    5SBC   C0E9 3439   5.622   7.664  11.257
    5SBC   C0GE 3440   5.582   7.766  11.156
    5SBC   C0E7 3441   5.272   7.704  11.477
    5SBC   C0CJ 3442   5.306   7.612  11.578
    5SBC   C0E6 3443   5.199   7.551  11.649
    5SBC   H00Y 3444   5.221   7.468  11.714
    5SBC   C0EO 3445   5.073   7.606  11.630
    5SBC   H011 3446   4.990   7.563  11.685
    5SBC   C0G6 3447   5.039   7.705  11.528
    5SBC   C0G5 3448   4.903   7.743  11.494
    5SBC   H01F 3449   4.824   7.692  11.547
    5SBC   C0GD 3450   4.887   7.828  11.389
    5SBC   H01I 3451   4.784   7.840  11.362
    5SBC   O00H 3452   4.988   7.893  11.320
    5SBC   C0EQ 3453   5.143   7.756  11.450
    5SBC   C0GC 3454   5.116   7.842  11.344
    5SBC   C0G7 3455   5.457   7.834  11.169
    5SBC   C0DD 3456   5.851   7.861  10.811
    5SBC   C0GF 3457   5.674   7.796  11.050
    5SBC   C0CO 3458   5.724   7.579  11.232
    5SBC   C0D0 3459   6.019   7.670  11.090
    5SBC   C0C4 3460   6.130   7.519  11.282
    5SBC   C0CN 3461   5.754   7.479  11.325
    5SBC   C0CP 3462   5.980   7.479  11.585
    5SBC   C0CM 3463   5.664   7.494  11.429
    5SBC   C0CI 3464   5.452   7.595  11.585
    5SBC   C0CD 3465   5.456   7.437  12.042
    5SBC   C0BR 3466   5.741   7.421  11.799
    5SBC   C0CS 3467   5.924   7.312  11.927
    5SBC   C0B6 3468   6.009   7.131  12.122
    5SBC   C0CG 3469   5.617   7.280  12.119
    5SBC   C0CF 3470   5.496   7.344  12.134
    5SBC   C0E5 3471   5.257   7.479  12.170
    5SBC   C0DT 3472   5.109   7.450  12.390
    5SBC   C0DL 3473   5.391   7.225  12.464
    5SBC   C0DM 3474   5.429   7.137  12.563
    5SBC   C0DY 3475   5.254   7.213  12.706
    5SBC   C0DU 3476   5.053   7.443  12.513
    5SBC   C0F0 3477   4.870   7.517  12.645
    5SBC   C0F4 3478   4.699   7.466  12.845
    5SBC   C0FG 3479   5.018   7.326  12.961
    5SBC   O00B 3480   4.664   7.331  13.052
    5SBC   C0FN 3481   5.035   7.240  13.066
    5SBC   C0DZ 3482   5.188   7.215  12.829
    5SBC   O00C 3483   5.347   6.929  12.985
    5SBC   C0FR 3484   5.470   6.867  12.990
    5SBC   O00D 3485   5.491   6.804  13.090
    5SBC   C0E0 3486   5.363   7.130  12.684
    5SBC   C0E3 3487   5.552   6.881  12.869
    5SBC   C0AW 3488   5.673   6.813  12.855
    5SBC   C0AV 3489   5.736   6.737  12.959
    5SBC   H00Q 3490   5.690   6.732  13.057
    5SBC   C0AU 3491   5.871   6.692  12.936
    5SBC   H00R 3492   5.930   6.648  13.015
    5SBC   C0AT 3493   5.935   6.702  12.805
    5SBC   C0AS 3494   6.060   6.660  12.743
    5SBC   C0AR 3495   6.149   6.574  12.810
    5SBC   C0BE 3496   5.861   6.766  12.712
    5SBC   C0DN 3497   5.544   7.062  12.541
    5SBC   C0AX 3498   5.738   6.832  12.736
    5SBC   C0BB 3499   5.751   7.016  12.419
    5SBC   C0BD 3500   5.942   6.772  12.600
    5SBC   C0B2 3501   5.958   6.973  12.303
    5SBC   C0AH 3502   6.207   6.858  12.294
    5SBC   C0BF 3503   6.072   6.715  12.613
    5SBC   C0AL 3504   6.391   6.664  12.289
    5SBC   C07U 3505   6.329   6.548  12.626
    5SBC   C0AQ 3506   6.273   6.535  12.754
    5SBC   C0BG 3507   6.140   6.519  12.944
    5SBC   C0FY 3508   6.292   6.217  13.056
    5SBC   C0BJ 3509   6.035   6.430  12.987
    5SBC   H00S 3510   5.933   6.443  12.953
    5SBC   C0FZ 3511   6.185   6.127  13.078
    5SBC   C07S 3512   6.389   6.172  12.961
    5SBC   C0G1 3513   6.343   5.808  13.038
    5SBC   C07K 3514   6.700   5.810  12.929
    5SBC   C07H 3515   6.615   6.061  12.825
    5SBC   C06B 3516   6.795   5.898  12.577
    5SBC   C06N 3517   6.881   6.076  12.476
    5SBC   C066 3518   6.599   6.273  12.668
    5SBC   C062 3519   6.599   6.424  12.398
    5SBC   C05Y 3520   6.943   6.255  12.309
    5SBC   C061 3521   6.626   6.445  12.262
    5SBC   C05H 3522   6.944   6.518  12.096
    5SBC   C06V 3523   6.614   6.571  12.200
    5SBC   C06Y 3524   6.623   6.816  12.052
    5SBC   C05C 3525   6.954   6.712  11.912
    5SBC   C06Z 3526   6.687   6.965  11.880
    5SBC   C070 3527   6.867   7.044  11.679
    5SBC   C05B 3528   7.050   6.762  11.815
    5SBC   C057 3529   7.229   6.842  11.608
    5SBC   C059 3530   7.070   7.015  11.547
    6SBC   C058 3531   9.350   5.174   7.710
    6SBC   C05A 3532   9.408   5.048   7.691
    6SBC   C06Q 3533   9.543   5.043   7.675
    6SBC   C06R 3534   9.605   4.915   7.665
    6SBC   C06S 3535   9.532   4.792   7.676
    6SBC   C06T 3536   9.603   4.665   7.659
    6SBC   C06U 3537   9.550   4.524   7.671
    6SBC   C06X 3538   9.426   4.471   7.719
    6SBC   C060 3539   9.430   4.327   7.705
    6SBC   C05Z 3540   9.369   4.223   7.791
    6SBC   C068 3541   9.470   4.112   7.768
    6SBC   C067 3542   9.448   3.972   7.786
    6SBC   C069 3543   9.327   3.920   7.844
    6SBC   C06A 3544   9.284   3.782   7.846
    6SBC   C073 3545   9.286   3.685   7.744
    6SBC   C07P 3546   9.170   3.631   7.690
    6SBC   C07O 3547   9.039   3.670   7.725
    6SBC   H00D 3548   9.024   3.755   7.791
    6SBC   C07N 3549   8.924   3.614   7.679
    6SBC   H00E 3550   8.824   3.642   7.710
    6SBC   C07M 3551   8.938   3.509   7.592
    6SBC   H00F 3552   8.846   3.477   7.546
    6SBC   C07L 3553   9.064   3.458   7.558
    6SBC   C07Q 3554   9.085   3.338   7.482
    6SBC   H00G 3555   8.996   3.285   7.453
    6SBC   O00F 3556   9.205   3.289   7.440
    6SBC   C07J 3557   9.312   3.361   7.478
    6SBC   C07I 3558   9.304   3.474   7.568
    6SBC   N004 3559   9.418   3.536   7.619
    6SBC   C07R 3560   9.548   3.477   7.584
    6SBC   C07T 3561   9.551   3.373   7.486
    6SBC   C0FX 3562   9.671   3.331   7.434
    6SBC   C0FW 3563   9.688   3.248   7.329
    6SBC   C0G0 3564   9.569   3.194   7.277
    6SBC   C0G2 3565   9.570   3.102   7.168
    6SBC   H01E 3566   9.477   3.056   7.136
    6SBC   C0G3 3567   9.688   3.069   7.108
    6SBC   H01C 3568   9.681   2.999   7.026
    6SBC   C0G4 3569   9.808   3.123   7.157
    6SBC   H01D 3570   9.902   3.094   7.114
    6SBC   O00E 3571   9.445   3.219   7.334
    6SBC   C0FV 3572   9.810   3.218   7.262
    6SBC   C0FU 3573   9.931   3.288   7.311
    6SBC   H01B 3574  10.030   3.273   7.271
    6SBC   C0FT 3575   9.920   3.369   7.436
    6SBC   C0FS 3576   9.997   3.464   7.515
    6SBC   C0BI 3577   9.922   3.492   7.633
    6SBC   C0BH 3578   9.970   3.614   7.695
    6SBC   C07F 3579   9.892   3.734   7.697
    6SBC   C07E 3580   9.754   3.754   7.705
    6SBC   C07G 3581   9.654   3.656   7.688
    6SBC   C074 3582   9.535   3.721   7.720
    6SBC   C065 3583   9.695   3.879   7.726
    6SBC   C064 3584   9.782   3.989   7.710
    6SBC   C063 3585   9.742   4.123   7.708
    6SBC   C075 3586   9.873   4.197   7.671
    6SBC   C0AM 3587   9.987   4.109   7.658
    6SBC   C0AN 3588  10.131   4.146   7.632
    6SBC   C0AO 3589  10.202   4.283   7.635
    6SBC   C0B1 3590  10.343   4.290   7.630
    6SBC   C0B0 3591  10.420   4.179   7.603
    6SBC   C0AZ 3592  10.557   4.175   7.591
    6SBC   C0AY 3593  10.627   4.057   7.554
    6SBC   N007 3594  10.761   4.051   7.545
    6SBC   C0E2 3595  10.824   3.929   7.505
    6SBC   C0E1 3596  10.963   3.927   7.505
    6SBC   C0E4 3597  11.038   3.810   7.462
    6SBC   C0FF 3598  11.175   3.794   7.467
    6SBC   C0FJ 3599  11.269   3.688   7.428
    6SBC   C0FK 3600  11.267   3.597   7.316
    6SBC   H016 3601  11.184   3.581   7.249
    6SBC   C0FL 3602  11.403   3.562   7.284
    6SBC   H017 3603  11.433   3.507   7.196
    6SBC   C0FM 3604  11.489   3.637   7.371
    6SBC   C0FH 3605  11.620   3.700   7.403
    6SBC   C0FI 3606  11.590   3.791   7.504
    6SBC   C0F3 3607  11.659   3.913   7.512
    6SBC   C0F2 3608  11.589   4.022   7.566
    6SBC   C0DW 3609  11.451   4.025   7.570
    6SBC   C0FE 3610  11.383   3.914   7.539
    6SBC   C0DV 3611  11.378   4.139   7.586
    6SBC   C0DX 3612  11.241   4.144   7.579
    6SBC   C0DK 3613  11.176   4.267   7.600
    6SBC   C0DJ 3614  11.252   4.388   7.601
    6SBC   C0DI 3615  11.186   4.512   7.599
    6SBC   C0DH 3616  11.052   4.515   7.614
    6SBC   C0DG 3617  10.975   4.399   7.611
    6SBC   C0BV 3618  10.837   4.403   7.610
    6SBC   C0BC 3619  10.765   4.284   7.599
    6SBC   C0BA 3620  10.772   4.522   7.628
    6SBC   C0B4 3621  10.632   4.526   7.630
    6SBC   C0B3 3622  10.561   4.408   7.622
    6SBC   C0B5 3623  10.570   4.650   7.647
    6SBC   C0BU 3624  10.645   4.767   7.653
    6SBC   C0BT 3625  10.782   4.768   7.653
    6SBC   C0BS 3626  10.857   4.891   7.672
    6SBC   C0CC 3627  10.997   4.878   7.662
    6SBC   C0CB 3628  11.074   4.995   7.646
    6SBC   C0CH 3629  11.196   4.981   7.582
    6SBC   C0DO 3630  11.272   4.862   7.579
    6SBC   C0DP 3631  11.406   4.854   7.539
    6SBC   C0EA 3632  11.478   4.978   7.513
    6SBC   H012 3633  11.429   5.075   7.510
    6SBC   O009 3634  11.613   4.983   7.494
    6SBC   C0EH 3635  11.677   4.861   7.493
    6SBC   C0EG 3636  11.816   4.865   7.498
    6SBC   C0EJ 3637  11.914   4.969   7.493
    6SBC   H010 3638  11.885   5.073   7.501
    6SBC   C0EK 3639  12.049   4.909   7.474
    6SBC   H00Z 3640  12.143   4.957   7.453
    6SBC   C0EL 3641  12.024   4.769   7.474
    6SBC   C0EM 3642  12.107   4.660   7.441
    6SBC   C0EW 3643  12.252   4.663   7.425
    6SBC   H013 3644  12.316   4.750   7.426
    6SBC   C0EX 3645  12.315   4.538   7.381
    6SBC   H014 3646  12.421   4.535   7.359
    6SBC   C0F1 3647  12.238   4.411   7.367
    6SBC   C0EU 3648  12.101   4.412   7.396
    6SBC   C0ET 3649  12.010   4.305   7.399
    6SBC   C0ES 3650  11.884   4.363   7.429
    6SBC   C0EE 3651  11.903   4.503   7.451
    6SBC   C0ED 3652  11.833   4.614   7.497
    6SBC   C0EC 3653  11.688   4.611   7.519
    6SBC   C0EB 3654  11.612   4.498   7.545
    6SBC   C0EN 3655  11.671   4.365   7.549
    6SBC   C0ER 3656  11.584   4.258   7.578
    6SBC   C0DS 3657  11.469   4.503   7.574
    6SBC   C0DR 3658  11.403   4.620   7.575
    6SBC   C0EY 3659  11.794   4.303   7.506
    6SBC   C0EZ 3660  11.783   4.164   7.506
    6SBC   C0F5 3661  11.853   4.044   7.449
    6SBC   C0F6 3662  11.982   4.050   7.394
    6SBC   N008 3663  12.039   3.919   7.351
    6SBC   C0F7 3664  11.959   3.805   7.332
    6SBC   C0FQ 3665  12.023   3.696   7.267
    6SBC   H018 3666  11.962   3.608   7.252
    6SBC   C0FP 3667  12.158   3.686   7.244
    6SBC   H019 3668  12.194   3.586   7.226
    6SBC   C0FO 3669  12.231   3.798   7.264
    6SBC   H01A 3670  12.337   3.788   7.244
    6SBC   C0F8 3671  11.828   3.812   7.378
    6SBC   C0F9 3672  12.173   3.921   7.309
    6SBC   C0FA 3673  12.252   4.045   7.314
    6SBC   H015 3674  12.354   4.036   7.279
    6SBC   C0FB 3675  12.198   4.166   7.345
    6SBC   C0FD 3676  12.061   4.166   7.378
    6SBC   C0FC 3677  12.295   4.278   7.338
    6SBC   O00A 3678  12.415   4.259   7.319
    6SBC   C0EV 3679  12.039   4.534   7.429
    6SBC   C0EF 3680  11.888   4.746   7.490
    6SBC   C0EI 3681  11.616   4.731   7.513
    6SBC   C0DQ 3682  11.474   4.736   7.543
    6SBC   C0CE 3683  11.194   4.751   7.604
    6SBC   H00U 3684  11.241   5.073   7.549
    6SBC   C0CA 3685  11.025   5.116   7.694
    6SBC   C0C9 3686  10.884   5.134   7.720
    6SBC   C0C8 3687  10.834   5.259   7.781
    6SBC   C0C7 3688  10.700   5.313   7.794
    6SBC   C0C6 3689  10.699   5.443   7.857
    6SBC   C0C5 3690  10.611   5.564   7.852
    6SBC   C0CQ 3691  10.676   5.687   7.877
    6SBC   C0D1 3692  10.815   5.692   7.877
    6SBC   C0D8 3693  10.851   5.808   7.804
    6SBC   C0D7 3694  10.735   5.895   7.812
    6SBC   C0D6 3695  10.723   6.022   7.761
    6SBC   C0D5 3696  10.611   6.107   7.777
    6SBC   C0D4 3697  10.487   6.079   7.827
    6SBC   C0D3 3698  10.396   6.177   7.780
    6SBC   C0CX 3699  10.268   6.118   7.775
    6SBC   C0CW 3700  10.291   5.970   7.777
    6SBC   C0CV 3701  10.210   5.854   7.757
    6SBC   C0D2 3702  10.072   5.861   7.729
    6SBC   C09D 3703   9.994   5.981   7.713
    6SBC   C09C 3704   9.859   5.981   7.673
    6SBC   C09B 3705   9.778   6.094   7.665
    6SBC   C09A 3706   9.840   6.219   7.699
    6SBC   C099 3707   9.970   6.231   7.704
    6SBC   C098 3708   9.992   6.352   7.785
    6SBC   C08Y 3709   9.868   6.399   7.841
    6SBC   C08X 3710   9.838   6.485   7.953
    6SBC   C08W 3711   9.946   6.530   8.044
    6SBC   C08U 3712  10.085   6.484   8.049
    6SBC   C08V 3713  10.160   6.383   7.972
    6SBC   C0DC 3714  10.292   6.377   8.030
    6SBC   H00W 3715  10.361   6.308   7.984
    6SBC   C0DB 3716  10.305   6.475   8.134
    6SBC   H00X 3717  10.393   6.493   8.193
    6SBC   C08T 3718  10.174   6.531   8.150
    6SBC   C08S 3719  10.140   6.634   8.233
    6SBC   H00N 3720  10.218   6.681   8.291
    6SBC   C08R 3721  10.010   6.676   8.240
    6SBC   C08Q 3722   9.966   6.775   8.334
    6SBC   H00O 3723  10.046   6.803   8.401
    6SBC   C08P 3724   9.835   6.821   8.355
    6SBC   C08O 3725   9.795   6.909   8.459
    6SBC   H00P 3726   9.876   6.953   8.514
    6SBC   C08N 3727   9.657   6.936   8.480
    6SBC   C08M 3728   9.624   7.037   8.572
    6SBC   O008 3729   9.713   7.099   8.635
    6SBC   O007 3730   9.494   7.054   8.597
    6SBC   C08H 3731   9.396   6.992   8.525
    6SBC   C08G 3732   9.247   7.012   8.544
    6SBC   C03V 3733   9.188   7.098   8.633
    6SBC   H009 3734   9.253   7.161   8.692
    6SBC   C03U 3735   9.051   7.103   8.650
    6SBC   C03W 3736   8.981   7.181   8.748
    6SBC   H00A 3737   9.039   7.245   8.814
    6SBC   C03X 3738   8.848   7.172   8.755
    6SBC   H00B 3739   8.794   7.239   8.819
    6SBC   O005 3740   8.770   7.100   8.673
    6SBC   C03O 3741   8.837   7.027   8.580
    6SBC   C03N 3742   8.757   6.937   8.507
    6SBC   O000 3743   8.623   6.937   8.540
    6SBC   C019 3744   8.541   6.842   8.486
    6SBC   C018 3745   8.591   6.737   8.405
    6SBC   C017 3746   8.728   6.736   8.369
    6SBC   C016 3747   8.780   6.640   8.282
    6SBC   C015 3748   8.691   6.549   8.235
    6SBC   C014 3749   8.734   6.453   8.143
    6SBC   C013 3750   8.868   6.448   8.096
    6SBC   C012 3751   8.867   6.333   8.007
    6SBC   C011 3752   8.729   6.301   7.991
    6SBC   C010 3753   8.690   6.208   7.898
    6SBC   C00Z 3754   8.566   6.151   7.886
    6SBC   C00Y 3755   8.594   6.028   7.806
    6SBC   C01O 3756   8.727   6.028   7.768
    6SBC   C01P 3757   8.800   5.906   7.763
    6SBC   C02L 3758   8.936   5.919   7.759
    6SBC   C02K 3759   8.993   6.039   7.794
    6SBC   C01M 3760   8.921   6.152   7.848
    6SBC   C02J 3761   9.134   6.048   7.762
    6SBC   C02I 3762   9.209   6.160   7.773
    6SBC   C02H 3763   9.195   6.284   7.835
    6SBC   C01Q 3764   9.086   6.329   7.913
    6SBC   C02G 3765   9.128   6.448   7.976
    6SBC   C089 3766   9.259   6.482   7.922
    6SBC   C088 3767   9.329   6.559   8.013
    6SBC   C087 3768   9.225   6.599   8.114
    6SBC   C086 3769   9.245   6.686   8.223
    6SBC   C03S 3770   9.143   6.745   8.301
    6SBC   N006 3771   9.203   6.839   8.383
    6SBC   C08F 3772   9.342   6.823   8.366
    6SBC   C01J 3773   9.003   6.742   8.309
    6SBC   C03R 3774   8.947   6.842   8.395
    6SBC   C03Q 3775   9.022   6.934   8.476
    6SBC   C08E 3776   9.370   6.734   8.264
    6SBC   C08D 3777   9.506   6.718   8.219
    6SBC   C08K 3778   9.604   6.789   8.298
    6SBC   C08C 3779   9.550   6.637   8.112
    6SBC   C091 3780   9.684   6.616   8.092
    6SBC   C092 3781   9.784   6.666   8.178
    6SBC   C08B 3782   9.477   6.561   8.016
    6SBC   C090 3783   9.574   6.494   7.932
    6SBC   C094 3784   9.551   6.408   7.819
    6SBC   C095 3785   9.643   6.321   7.754
    6SBC   C09R 3786   9.573   6.211   7.704
    6SBC   C097 3787   9.441   6.223   7.730
    6SBC   C096 3788   9.427   6.341   7.792
    6SBC   C01I 3789   9.094   6.535   8.084
    6SBC   C08A 3790   9.300   6.373   7.842
    6SBC   C09L 3791   9.332   6.130   7.716
    6SBC   C09K 3792   9.325   5.993   7.668
    6SBC   C09J 3793   9.439   5.916   7.636
    6SBC   C09I 3794   9.450   5.775   7.661
    6SBC   C09O 3795   9.364   5.663   7.681
    6SBC   C09N 3796   9.223   5.676   7.701
    6SBC   C09M 3797   9.149   5.802   7.711
    6SBC   C06O 3798   9.150   5.555   7.726
    6SBC   C05M 3799   9.215   5.427   7.723
    6SBC   C06P 3800   9.355   5.417   7.707
    6SBC   C042 3801   9.144   5.306   7.739
    6SBC   C041 3802   9.008   5.312   7.762
    6SBC   C040 3803   8.936   5.196   7.785
    6SBC   C03Z 3804   8.798   5.195   7.818
    6SBC   C03Y 3805   8.728   5.316   7.812
    6SBC   C027 3806   8.590   5.318   7.847
    6SBC   C026 3807   8.522   5.437   7.847
    6SBC   C028 3808   8.392   5.443   7.896
    6SBC   C029 3809   8.326   5.329   7.942
    6SBC   C02B 3810   8.201   5.336   8.000
    6SBC   C02C 3811   8.139   5.220   8.045
    6SBC   C02X 3812   8.013   5.227   8.093
    6SBC   C03E 3813   7.954   5.111   8.141
    6SBC   C03G 3814   8.027   4.995   8.160
    6SBC   C04Q 3815   8.153   4.985   8.106
    6SBC   C04R 3816   8.226   4.866   8.112
    6SBC   C04S 3817   8.351   4.860   8.055
    6SBC   C04L 3818   8.404   4.976   8.002
    6SBC   C04M 3819   8.336   5.098   7.995
    6SBC   C04K 3820   8.534   4.969   7.948
    6SBC   C04F 3821   8.604   4.849   7.949
    6SBC   C04E 3822   8.556   4.736   8.013
    6SBC   C04D 3823   8.632   4.618   8.025
    6SBC   C050 3824   8.573   4.504   8.083
    6SBC   C051 3825   8.654   4.388   8.102
    6SBC   C05Q 3826   8.606   4.283   8.172
    6SBC   C05V 3827   8.685   4.168   8.190
    6SBC   N005 3828   8.629   4.063   8.264
    6SBC   C07V 3829   8.509   4.083   8.325
    6SBC   C082 3830   8.461   3.981   8.408
    6SBC   C081 3831   8.524   3.850   8.423
    6SBC   C07C 3832   8.644   3.832   8.352
    6SBC   C07B 3833   8.711   3.711   8.359
    6SBC   C080 3834   8.659   3.607   8.435
    6SBC   C07Z 3835   8.721   3.482   8.411
    6SBC   H00L 3836   8.677   3.404   8.472
    6SBC   C079 3837   8.831   3.456   8.339
    6SBC   C078 3838   8.882   3.565   8.266
    6SBC   C077 3839   9.002   3.554   8.191
    6SBC   C07X 3840   9.071   3.435   8.206
    6SBC   H00I 3841   9.173   3.419   8.173
    6SBC   C07Y 3842   9.018   3.325   8.274
    6SBC   H00H 3843   9.081   3.238   8.288
    6SBC   C076 3844   9.052   3.660   8.117
    6SBC   C06C 3845   9.156   3.640   8.021
    6SBC   H00C 3846   9.193   3.542   7.995
    6SBC   C06F 3847   8.992   3.786   8.133
    6SBC   C06E 3848   9.053   3.899   8.080
    6SBC   C06G 3849   8.997   4.028   8.074
    6SBC   C06H 3850   8.880   4.038   8.144
    6SBC   C06I 3851   8.824   3.930   8.216
    6SBC   C06L 3852   9.061   4.134   8.005
    6SBC   C06M 3853   9.189   4.121   7.936
    6SBC   C06K 3854   8.990   4.252   8.002
    6SBC   C05S 3855   8.863   4.262   8.067
    6SBC   C05U 3856   9.038   4.363   7.929
    6SBC   C05X 3857   9.167   4.357   7.867
    6SBC   C05G 3858   9.206   4.486   7.821
    6SBC   C05F 3859   9.118   4.595   7.826
    6SBC   C05E 3860   9.185   4.716   7.781
    6SBC   C048 3861   9.125   4.841   7.793
    6SBC   C056 3862   9.199   4.949   7.752
    6SBC   C045 3863   9.134   5.073   7.760
    6SBC   C047 3864   8.991   4.840   7.824
    6SBC   C049 3865   8.934   4.721   7.871
    6SBC   C04B 3866   8.805   4.727   7.912
    6SBC   C046 3867   8.931   4.962   7.823
    6SBC   C04H 3868   8.796   4.958   7.857
    6SBC   C05D 3869   9.315   4.690   7.745
    6SBC   C04A 3870   9.000   4.599   7.877
    6SBC   C05T 3871   8.957   4.479   7.932
    6SBC   C055 3872   8.834   4.488   7.987
    6SBC   C06D 3873   9.161   3.881   7.993
    6SBC   C07W 3874   8.881   3.805   8.212
    6SBC   C085 3875   8.900   3.337   8.334
    6SBC   H00M 3876   8.872   3.259   8.404
    6SBC   C084 3877   8.549   3.631   8.523
    6SBC   H00J 3878   8.520   3.548   8.585
    6SBC   C07A 3879   8.823   3.691   8.280
    6SBC   C083 3880   8.479   3.753   8.509
    6SBC   H00K 3881   8.389   3.773   8.565
    6SBC   O00K 3882   8.345   3.992   8.481
    6SBC   C0GO 3883   8.270   4.104   8.455
    6SBC   C0GN 3884   8.144   4.099   8.508
    6SBC   H01L 3885   8.107   4.008   8.552
    6SBC   C0GM 3886   8.061   4.213   8.497
    6SBC   C0GL 3887   7.938   4.205   8.546
    6SBC   H01M 3888   7.901   4.112   8.587
    6SBC   O00J 3889   7.850   4.318   8.541
    6SBC   C0GK 3890   7.902   4.421   8.466
    6SBC   H01N 3891   7.828   4.499   8.455
    6SBC   C05K 3892   8.028   4.429   8.415
    6SBC   C05J 3893   8.075   4.550   8.350
    6SBC   C04Y 3894   8.006   4.674   8.326
    6SBC   C04X 3895   8.052   4.779   8.252
    6SBC   O006 3896   7.877   4.683   8.372
    6SBC   C053 3897   7.807   4.803   8.386
    6SBC   C04O 3898   7.844   4.906   8.304
    6SBC   C03C 3899   7.777   5.031   8.287
    6SBC   C03B 3900   7.688   5.104   8.372
    6SBC   C054 3901   7.625   5.052   8.479
    6SBC   C0GR 3902   7.533   5.128   8.563
    6SBC   C03M 3903   7.483   5.267   8.565
    6SBC   C03I 3904   7.534   5.377   8.492
    6SBC   C03J 3905   7.484   5.511   8.520
    6SBC   N002 3906   7.536   5.631   8.453
    6SBC   C02U 3907   7.490   5.760   8.490
    6SBC   C02T 3908   7.553   5.877   8.439
    6SBC   C02Z 3909   7.514   6.004   8.484
    6SBC   N001 3910   7.585   6.117   8.445
    6SBC   C02R 3911   7.552   6.243   8.503
    6SBC   C032 3912   7.449   6.252   8.595
    6SBC   C031 3913   7.375   6.136   8.627
    6SBC   H007 3914   7.304   6.135   8.709
    6SBC   C033 3915   7.446   6.386   8.660
    6SBC   H003 3916   7.371   6.398   8.737
    6SBC   O004 3917   7.531   6.489   8.625
    6SBC   C034 3918   7.617   6.474   8.526
    6SBC   C035 3919   7.698   6.585   8.493
    6SBC   C036 3920   7.780   6.586   8.383
    6SBC   H005 3921   7.816   6.682   8.350
    6SBC   C037 3922   7.802   6.464   8.320
    6SBC   H006 3923   7.872   6.456   8.238
    6SBC   C00D 3924   7.741   6.346   8.375
    6SBC   C00C 3925   7.771   6.218   8.322
    6SBC   C00B 3926   7.888   6.195   8.239
    6SBC   C00A 3927   8.009   6.268   8.192
    6SBC   C009 3928   8.062   6.177   8.097
    6SBC   C008 3929   8.202   6.165   8.062
    6SBC   C007 3930   8.283   6.266   8.105
    6SBC   C006 3931   8.416   6.265   8.057
    6SBC   C005 3932   8.505   6.364   8.108
    6SBC   C004 3933   8.458   6.456   8.206
    6SBC   C003 3934   8.330   6.447   8.257
    6SBC   C002 3935   8.290   6.527   8.365
    6SBC   C01C 3936   8.378   6.628   8.406
    6SBC   C01B 3937   8.332   6.736   8.484
    6SBC   H000 3938   8.233   6.737   8.526
    6SBC   C001 3939   8.173   6.497   8.436
    6SBC   C000 3940   8.094   6.393   8.382
    6SBC   C01U 3941   8.023   6.348   8.496
    6SBC   H002 3942   7.948   6.270   8.504
    6SBC   C01T 3943   8.053   6.440   8.613
    6SBC   O002 3944   7.992   6.458   8.715
    6SBC   O001 3945   8.147   6.525   8.564
    6SBC   C01S 3946   8.247   6.346   8.212
    6SBC   C00N 3947   8.243   6.047   7.997
    6SBC   C00M 3948   8.167   5.934   7.997
    6SBC   C00J 3949   8.039   5.936   8.044
    6SBC   C00I 3950   7.964   5.827   8.084
    6SBC   C00H 3951   7.851   5.835   8.166
    6SBC   C00G 3952   7.807   5.956   8.211
    6SBC   C00F 3953   7.715   5.976   8.309
    6SBC   C01X 3954   7.792   5.726   8.220
    6SBC   C01W 3955   7.838   5.598   8.182
    6SBC   C01V 3956   7.954   5.585   8.104
    6SBC   C020 3957   8.007   5.465   8.072
    6SBC   C01Z 3958   7.780   5.483   8.226
    6SBC   C02Y 3959   7.833   5.366   8.180
    6SBC   C039 3960   7.771   5.250   8.228
    6SBC   C02W 3961   7.678   5.485   8.323
    6SBC   C01Y 3962   7.694   5.737   8.316
    6SBC   C00U 3963   8.018   5.702   8.055
    6SBC   C00S 3964   8.144   5.697   7.996
    6SBC   C00T 3965   8.201   5.574   7.976
    6SBC   C00R 3966   8.217   5.811   7.965
    6SBC   C00Q 3967   8.341   5.806   7.916
    6SBC   C00V 3968   8.399   5.685   7.891
    6SBC   C024 3969   8.524   5.676   7.827
    6SBC   C00X 3970   8.590   5.789   7.799
    6SBC   C00P 3971   8.412   5.921   7.895
    6SBC   C00O 3972   8.367   6.049   7.943
    6SBC   C00K 3973   7.992   6.059   8.095
    6SBC   N000 3974   8.118   6.323   8.267
    6SBC   C00L 3975   7.884   6.071   8.176
    6SBC   H004 3976   7.673   6.679   8.540
    6SBC   C02Q 3977   7.639   6.347   8.470
    6SBC   C00E 3978   7.688   6.105   8.348
    6SBC   C030 3979   7.408   6.012   8.575
    6SBC   O003 3980   7.335   5.896   8.609
    6SBC   C02S 3981   7.657   5.862   8.356
    6SBC   C038 3982   7.384   5.773   8.574
    6SBC   C03L 3983   7.334   5.662   8.640
    6SBC   H008 3984   7.256   5.667   8.714
    6SBC   C02V 3985   7.639   5.615   8.364
    6SBC   C03K 3986   7.386   5.533   8.613
    6SBC   C0BK 3987   7.340   5.422   8.680
    6SBC   H00T 3988   7.267   5.433   8.759
    6SBC   C03H 3989   7.628   5.371   8.386
    6SBC   C0BL 3990   7.383   5.292   8.663
    6SBC   C0GU 3991   7.331   5.183   8.743
    6SBC   H01O 3992   7.266   5.208   8.825
    6SBC   C0GT 3993   7.373   5.048   8.730
    6SBC   H01P 3994   7.325   4.974   8.792
    6SBC   C0GS 3995   7.478   5.032   8.649
    6SBC   C0GV 3996   7.538   4.903   8.627
    6SBC   C0GW 3997   7.503   4.774   8.683
    6SBC   H01Q 3998   7.427   4.759   8.758
    6SBC   C0GX 3999   7.579   4.675   8.638
    6SBC   H01R 4000   7.563   4.582   8.691
    6SBC   O00L 4001   7.688   4.689   8.556
    6SBC   C0GQ 4002   7.630   4.917   8.524
    6SBC   C03A 4003   7.686   5.244   8.335
    6SBC   C05L 4004   7.702   4.807   8.485
    6SBC   C04W 4005   8.195   4.544   8.280
    6SBC   C05I 4006   8.276   4.429   8.284
    6SBC   C05O 4007   8.237   4.324   8.364
    6SBC   C052 4008   8.399   4.412   8.215
    6SBC   C04V 4009   8.246   4.645   8.198
    6SBC   C04U 4010   8.373   4.634   8.134
    6SBC   N009 4011   8.116   4.323   8.425
    6SBC   C0GP 4012   8.311   4.211   8.374
    6SBC   C05W 4013   8.438   4.203   8.314
    6SBC   C07D 4014   8.702   3.939   8.283
    6SBC   C06J 4015   8.810   4.153   8.135
    6SBC   C05P 4016   8.483   4.301   8.232
    6SBC   C05R 4017   8.784   4.379   8.054
    6SBC   C04Z 4018   8.448   4.516   8.143
    6SBC   C04C 4019   8.758   4.610   7.975
    6SBC   C04G 4020   8.733   4.842   7.900
    6SBC   C04J 4021   8.590   5.081   7.896
    6SBC   C04T 4022   8.427   4.741   8.064
    6SBC   N003 4023   8.177   4.765   8.188
    6SBC   C04P 4024   7.969   4.892   8.231
    6SBC   C03D 4025   7.835   5.125   8.210
    6SBC   C021 4026   7.950   5.351   8.113
    6SBC   C03F 4027   8.204   5.099   8.042
    6SBC   C022 4028   8.133   5.460   8.007
    6SBC   C02A 4029   8.396   5.211   7.937
    6SBC   C023 4030   8.331   5.569   7.922
    6SBC   C025 4031   8.595   5.557   7.822
    6SBC   C02D 4032   8.730   5.551   7.785
    6SBC   C02E 4033   8.800   5.671   7.760
    6SBC   C02N 4034   8.939   5.677   7.740
    6SBC   C04N 4035   8.526   5.203   7.889
    6SBC   C02P 4036   8.798   5.436   7.780
    6SBC   C04I 4037   8.728   5.081   7.854
    6SBC   C044 4038   9.000   5.077   7.786
    6SBC   C043 4039   8.939   5.433   7.757
    6SBC   C05N 4040   9.009   5.556   7.745
    6SBC   C09U 4041   9.430   5.535   7.692
    6SBC   C09V 4042   9.571   5.517   7.681
    6SBC   C09X 4043   9.651   5.625   7.683
    6SBC   C09Y 4044   9.791   5.624   7.687
    6SBC   C0A1 4045   9.850   5.500   7.692
    6SBC   C0A2 4046   9.773   5.388   7.687
    6SBC   C0A4 4047   9.834   5.268   7.681
    6SBC   C071 4048   9.759   5.155   7.671
    6SBC   C0A5 4049   9.819   5.029   7.662
    6SBC   C0A9 4050   9.959   5.026   7.655
    6SBC   C0A8 4051  10.036   5.139   7.671
    6SBC   C0AP 4052  10.167   5.131   7.669
    6SBC   C0BY 4053  10.237   5.249   7.689
    6SBC   C0BX 4054  10.189   5.373   7.705
    6SBC   C0C2 4055  10.265   5.486   7.740
    6SBC   C0C3 4056  10.205   5.614   7.745
    6SBC   C0CT 4057  10.067   5.615   7.724
    6SBC   C0C1 4058  10.401   5.472   7.761
    6SBC   C0C0 4059  10.460   5.345   7.716
    6SBC   C0A7 4060  10.049   5.377   7.698
    6SBC   C0BZ 4061  10.375   5.238   7.695
    6SBC   C0BO 4062  10.434   5.116   7.688
    6SBC   C0BN 4063  10.367   4.997   7.677
    6SBC   C0BM 4064  10.442   4.884   7.666
    6SBC   C0B9 4065  10.368   4.768   7.657
    6SBC   C0B8 4066  10.230   4.771   7.653
    6SBC   C0AD 4067  10.163   4.891   7.647
    6SBC   C0AF 4068  10.152   4.658   7.652
    6SBC   C0AG 4069  10.217   4.531   7.653
    6SBC   C0B7 4070  10.355   4.529   7.652
    6SBC   C0AE 4071  10.021   4.671   7.638
    6SBC   C0AB 4072   9.946   4.788   7.644
    6SBC   C0AA 4073   9.807   4.789   7.646
    6SBC   C0AJ 4074   9.946   4.552   7.627
    6SBC   C0AK 4075   9.809   4.553   7.626
    6SBC   C06W 4076   9.765   4.424   7.635
    6SBC   C0AI 4077   9.995   4.418   7.628
    6SBC   C0BP 4078  10.572   5.133   7.699
    6SBC   C0BQ 4079  10.652   5.011   7.695
    6SBC   C0BW 4080  10.231   5.008   7.659
    6SBC   C0AC 4081  10.024   4.900   7.648
    6SBC   C0A6 4082   9.976   5.263   7.680
    6SBC   C0A3 4083   9.989   5.495   7.706
    6SBC   C09Z 4084   9.871   5.738   7.685
    6SBC   C09W 4085   9.632   5.394   7.686
    6SBC   C072 4086   9.559   5.280   7.683
    6SBC   C09H 4087   9.590   5.743   7.661
    6SBC   C09G 4088   9.665   5.860   7.643
    6SBC   C09P 4089   9.573   5.961   7.649
    6SBC   C02O 4090   9.208   5.934   7.714
    6SBC   C02M 4091   9.008   5.802   7.733
    6SBC   C02F 4092   8.726   5.788   7.769
    6SBC   C00W 4093   8.528   5.907   7.822
    6SBC   C01R 4094   8.448   6.166   7.959
    6SBC   C01N 4095   8.782   6.133   7.835
    6SBC   C01L 4096   8.964   6.262   7.929
    6SBC   C01H 4097   8.966   6.543   8.145
    6SBC   C01K 4098   8.647   6.364   8.081
    6SBC   C01E 4099   8.550   6.545   8.260
    6SBC   C01G 4100   8.920   6.644   8.242
    6SBC   C01D 4101   8.505   6.638   8.356
    6SBC   C01A 4102   8.412   6.843   8.526
    6SBC   H001 4103   8.366   6.916   8.591
    6SBC   C01F 4104   8.810   6.838   8.420
    6SBC   C03P 4105   8.971   7.027   8.563
    6SBC   C03T 4106   9.156   6.933   8.468
    6SBC   C08I 4107   9.429   6.897   8.432
    6SBC   C08J 4108   9.564   6.872   8.403
    6SBC   C08L 4109   9.740   6.761   8.276
    6SBC   C093 4110   9.915   6.626   8.153
    6SBC   C08Z 4111   9.706   6.526   7.986
    6SBC   C09T 4112  10.110   6.310   7.857
    6SBC   C09S 4113   9.776   6.328   7.765
    6SBC   C09Q 4114   9.633   6.088   7.667
    6SBC   C09F 4115   9.803   5.862   7.667
    6SBC   C09E 4116  10.031   6.113   7.748
    6SBC   C0A0 4117  10.003   5.739   7.708
    6SBC   C0CU 4118  10.279   5.729   7.764
    6SBC   C0CR 4119  10.416   5.711   7.800
    6SBC   C0CZ 4120  10.489   5.825   7.818
    6SBC   C0DA 4121  10.142   6.173   7.812
    6SBC   C0D9 4122  10.462   6.249   7.672
    6SBC   H00V 4123  10.417   6.307   7.593
    6SBC   C0CY 4124  10.430   5.953   7.805
    6SBC   C0DF 4125  10.601   6.205   7.680
    6SBC   C0DE 4126  10.729   6.204   7.608
    6SBC   C0GI 4127  10.792   6.296   7.521
    6SBC   H01K 4128  10.752   6.389   7.483
    6SBC   C0GJ 4129  10.911   6.261   7.479
    6SBC   H01J 4130  10.961   6.324   7.407
    6SBC   O00I 4131  10.983   6.152   7.517
    6SBC   C0GH 4132  10.927   6.054   7.599
    6SBC   C0GG 4133  11.003   5.932   7.631
    6SBC   O00G 4134  11.129   5.929   7.577
    6SBC   C0G8 4135  11.208   5.820   7.592
    6SBC   C0G9 4136  11.342   5.847   7.567
    6SBC   H01G 4137  11.382   5.940   7.530
    6SBC   C0GA 4138  11.432   5.748   7.592
    6SBC   H01H 4139  11.534   5.775   7.568
    6SBC   C0GB 4140  11.397   5.617   7.641
    6SBC   C0EP 4141  11.257   5.590   7.649
    6SBC   C0E8 4142  11.217   5.447   7.667
    6SBC   C0CK 4143  11.093   5.373   7.679
    6SBC   C0CL 4144  11.002   5.431   7.767
    6SBC   C0E9 4145  10.981   5.571   7.779
    6SBC   C0GE 4146  11.033   5.693   7.707
    6SBC   C0E7 4147  11.314   5.354   7.693
    6SBC   C0CJ 4148  11.262   5.223   7.722
    6SBC   C0E6 4149  11.350   5.127   7.766
    6SBC   H00Y 4150  11.314   5.028   7.792
    6SBC   C0EO 4151  11.483   5.157   7.775
    6SBC   H011 4152  11.553   5.075   7.790
    6SBC   C0G6 4153  11.538   5.283   7.751
    6SBC   C0G5 4154  11.678   5.319   7.758
    6SBC   H01F 4155  11.748   5.247   7.798
    6SBC   C0GD 4156  11.715   5.445   7.722
    6SBC   H01I 4157  11.822   5.465   7.724
    6SBC   O00H 4158  11.630   5.548   7.679
    6SBC   C0EQ 4159  11.451   5.390   7.710
    6SBC   C0GC 4160  11.498   5.518   7.683
    6SBC   C0G7 4161  11.161   5.693   7.645
    6SBC   C0DD 4162  10.802   6.086   7.656
    6SBC   C0GF 4163  10.963   5.819   7.713
    6SBC   C0CO 4164  10.884   5.579   7.874
    6SBC   C0D0 4165  10.626   5.808   7.832
    6SBC   C0C4 4166  10.478   5.583   7.802
    6SBC   C0CN 4167  10.833   5.451   7.915
    6SBC   C0CP 4168  10.592   5.277   7.711
    6SBC   C0CM 4169  10.915   5.351   7.854
    6SBC   C0CI 4170  11.120   5.230   7.696
    6SBC   C0CD 4171  11.058   4.756   7.629
    6SBC   C0BR 4172  10.792   5.018   7.698
    6SBC   C0CS 4173  10.579   4.888   7.668
    6SBC   C0B6 4174  10.430   4.648   7.655
    6SBC   C0CG 4175  10.846   4.640   7.640
    6SBC   C0CF 4176  10.986   4.635   7.629
    6SBC   C0E5 4177  11.259   4.629   7.594
    6SBC   C0DT 4178  11.392   4.387   7.592
    6SBC   C0DL 4179  11.040   4.277   7.595
    6SBC   C0DM 4180  10.972   4.162   7.566
    6SBC   C0DY 4181  11.173   4.032   7.543
    6SBC   C0DU 4182  11.448   4.261   7.595
    6SBC   C0F0 4183  11.657   4.144   7.555
    6SBC   C0F4 4184  11.781   3.924   7.451
    6SBC   C0FG 4185  11.454   3.793   7.527
    6SBC   O00B 4186  11.740   3.713   7.332
    6SBC   C0FN 4187  11.401   3.684   7.473
    6SBC   C0DZ 4188  11.243   3.911   7.516
    6SBC   O00C 4189  10.959   3.702   7.426
    6SBC   C0FR 4190  10.829   3.692   7.429
    6SBC   O00D 4191  10.782   3.595   7.374
    6SBC   C0E0 4192  11.035   4.042   7.544
    6SBC   C0E3 4193  10.752   3.810   7.473
    6SBC   C0AW 4194  10.618   3.816   7.488
    6SBC   C0AV 4195  10.535   3.694   7.488
    6SBC   H00Q 4196  10.583   3.598   7.475
    6SBC   C0AU 4197  10.398   3.706   7.524
    6SBC   H00R 4198  10.346   3.612   7.538
    6SBC   C0AT 4199  10.343   3.834   7.555
    6SBC   C0AS 4200  10.210   3.887   7.581
    6SBC   C0AR 4201  10.099   3.794   7.620
    6SBC   C0BE 4202  10.428   3.943   7.557
    6SBC   C0DN 4203  10.833   4.166   7.574
    6SBC   C0AX 4204  10.566   3.936   7.535
    6SBC   C0BB 4205  10.627   4.292   7.603
    6SBC   C0BD 4206  10.355   4.059   7.592
    6SBC   C0B2 4207  10.419   4.406   7.638
    6SBC   C0AH 4208  10.140   4.414   7.649
    6SBC   C0BF 4209  10.222   4.034   7.601
    6SBC   C0AL 4210   9.878   4.334   7.631
    6SBC   C07U 4211   9.926   3.978   7.675
    6SBC   C0AQ 4212   9.976   3.843   7.673
    6SBC   C0BG 4213  10.085   3.650   7.621
    6SBC   C0FY 4214   9.787   3.459   7.609
    6SBC   C0BJ 4215  10.103   3.559   7.511
    6SBC   H00S 4216  10.169   3.563   7.426
    6SBC   C0FZ 4217   9.787   3.381   7.495
    6SBC   C07S 4218   9.667   3.528   7.637
    6SBC   C0G1 4219   9.435   3.318   7.434
    6SBC   C07K 4220   9.179   3.520   7.607
    6SBC   C07H 4221   9.413   3.654   7.696
    6SBC   C06B 4222   9.205   3.756   7.959
    6SBC   C06N 4223   9.232   3.984   7.933
    6SBC   C066 4224   9.550   3.866   7.746
    6SBC   C062 4225   9.596   4.165   7.716
    6SBC   C05Y 4226   9.245   4.234   7.871
    6SBC   C061 4227   9.553   4.289   7.662
    6SBC   C05H 4228   9.323   4.548   7.764
    6SBC   C06V 4229   9.627   4.408   7.654
    6SBC   C06Y 4230   9.734   4.673   7.634
    6SBC   C05C 4231   9.395   4.803   7.709
    6SBC   C06Z 4232   9.748   4.913   7.660
    6SBC   C070 4233   9.624   5.160   7.681
    6SBC   C05B 4234   9.336   4.931   7.714
    6SBC   C057 4235   9.212   5.183   7.739
    6SBC   C059 4236   9.425   5.294   7.702
    7SBC   C058 4237   9.079   2.076  10.731
    7SBC   C05A 4238   9.202   2.009  10.759
    7SBC   C06Q 4239   9.307   2.016  10.668
    7SBC   C06R 4240   9.429   1.947  10.696
    7SBC   C06S 4241   9.454   1.882  10.820
    7SBC   C06T 4242   9.581   1.838  10.852
    7SBC   C06U 4243   9.640   1.789  10.984
    7SBC   C06X 4244   9.583   1.752  11.104
    7SBC   C060 4245   9.683   1.727  11.212
    7SBC   C05Z 4246   9.683   1.603  11.292
    7SBC   C068 4247   9.813   1.539  11.271
    7SBC   C067 4248   9.860   1.409  11.326
    7SBC   C069 4249   9.781   1.336  11.427
    7SBC   C06A 4250   9.796   1.201  11.480
    7SBC   C073 4251   9.864   1.096  11.431
    7SBC   C07P 4252   9.798   0.973  11.434
    7SBC   C07O 4253   9.655   0.953  11.450
    7SBC   H00D 4254   9.587   1.036  11.457
    7SBC   C07N 4255   9.601   0.827  11.469
    7SBC   H00E 4256   9.497   0.804  11.484
    7SBC   C07M 4257   9.691   0.721  11.470
    7SBC   H00F 4258   9.650   0.624  11.493
    7SBC   C07L 4259   9.828   0.734  11.432
    7SBC   C07Q 4260   9.918   0.624  11.415
    7SBC   H00G 4261   9.878   0.524  11.414
    7SBC   O00F 4262  10.050   0.636  11.388
    7SBC   C07J 4263  10.099   0.763  11.381
    7SBC   C07I 4264  10.015   0.875  11.399
    7SBC   N004 4265  10.078   1.004  11.393
    7SBC   C07R 4266  10.223   1.018  11.380
    7SBC   C07T 4267  10.301   0.900  11.363
    7SBC   C0FX 4268  10.434   0.903  11.326
    7SBC   C0FW 4269  10.513   0.793  11.292
    7SBC   C0G0 4270  10.441   0.664  11.301
    7SBC   C0G2 4271  10.509   0.549  11.256
    7SBC   H01E 4272  10.451   0.459  11.241
    7SBC   C0G3 4273  10.632   0.568  11.196
    7SBC   H01C 4274  10.674   0.480  11.149
    7SBC   C0G4 4275  10.697   0.691  11.187
    7SBC   H01D 4276  10.794   0.695  11.141
    7SBC   O00E 4277  10.315   0.656  11.340
    7SBC   C0FV 4278  10.639   0.807  11.239
    7SBC   C0FU 4279  10.686   0.941  11.210
    7SBC   H01B 4280  10.777   0.962  11.155
    7SBC   C0FT 4281  10.613   1.049  11.258
    7SBC   C0FS 4282  10.609   1.193  11.237
    7SBC   C0BI 4283  10.511   1.254  11.329
    7SBC   C0BH 4284  10.488   1.386  11.288
    7SBC   C07F 4285  10.353   1.422  11.241
    7SBC   C07E 4286  10.230   1.381  11.300
    7SBC   C07G 4287  10.199   1.254  11.350
    7SBC   C074 4288  10.063   1.245  11.369
    7SBC   C065 4289  10.114   1.437  11.259
    7SBC   C064 4290  10.125   1.526  11.153
    7SBC   C063 4291  10.014   1.591  11.096
    7SBC   C075 4292  10.063   1.651  10.970
    7SBC   C0AM 4293  10.207   1.620  10.951
    7SBC   C0AN 4294  10.300   1.653  10.838
    7SBC   C0AO 4295  10.272   1.720  10.707
    7SBC   C0B1 4296  10.372   1.738  10.604
    7SBC   C0B0 4297  10.501   1.679  10.619
    7SBC   C0AZ 4298  10.607   1.695  10.528
    7SBC   C0AY 4299  10.731   1.648  10.562
    7SBC   N007 4300  10.842   1.673  10.475
    7SBC   C0E2 4301  10.971   1.632  10.509
    7SBC   C0E1 4302  11.076   1.662  10.422
    7SBC   C0E4 4303  11.203   1.614  10.456
    7SBC   C0FF 4304  11.311   1.638  10.368
    7SBC   C0FJ 4305  11.446   1.580  10.363
    7SBC   C0FK 4306  11.467   1.433  10.386
    7SBC   H016 4307  11.394   1.367  10.431
    7SBC   C0FL 4308  11.582   1.401  10.298
    7SBC   H017 4309  11.607   1.302  10.261
    7SBC   C0FM 4310  11.633   1.514  10.234
    7SBC   C0FH 4311  11.669   1.550  10.095
    7SBC   C0FI 4312  11.595   1.667  10.065
    7SBC   C0F3 4313  11.564   1.709   9.933
    7SBC   C0F2 4314  11.453   1.791   9.932
    7SBC   C0DW 4315  11.361   1.806  10.036
    7SBC   C0FE 4316  11.384   1.752  10.162
    7SBC   C0DV 4317  11.232   1.840  10.006
    7SBC   C0DX 4318  11.129   1.829  10.097
    7SBC   C0DK 4319  11.000   1.861  10.064
    7SBC   C0DJ 4320  10.972   1.909   9.934
    7SBC   C0DI 4321  10.845   1.951   9.906
    7SBC   C0DH 4322  10.751   1.956  10.004
    7SBC   C0DG 4323  10.772   1.898  10.128
    7SBC   C0BV 4324  10.674   1.879  10.221
    7SBC   C0BC 4325  10.692   1.795  10.332
    7SBC   C0BA 4326  10.546   1.930  10.192
    7SBC   C0B4 4327  10.440   1.905  10.282
    7SBC   C0B3 4328  10.462   1.827  10.394
    7SBC   C0B5 4329  10.319   1.959  10.252
    7SBC   C0BU 4330  10.302   2.041  10.141
    7SBC   C0BT 4331  10.408   2.061  10.050
    7SBC   C0BS 4332  10.391   2.140   9.936
    7SBC   C0CC 4333  10.482   2.132   9.831
    7SBC   C0CB 4334  10.465   2.205   9.712
    7SBC   C0CH 4335  10.539   2.160   9.602
    7SBC   C0DO 4336  10.658   2.081   9.620
    7SBC   C0DP 4337  10.742   2.049   9.515
    7SBC   C0EA 4338  10.698   2.057   9.377
    7SBC   H012 4339  10.599   2.089   9.348
    7SBC   O009 4340  10.783   2.029   9.276
    7SBC   C0EH 4341  10.901   1.976   9.304
    7SBC   C0EG 4342  10.972   1.933   9.196
    7SBC   C0EJ 4343  10.951   1.910   9.054
    7SBC   H010 4344  10.861   1.930   8.998
    7SBC   C0EK 4345  11.073   1.857   8.997
    7SBC   H00Z 4346  11.082   1.824   8.894
    7SBC   C0EL 4347  11.156   1.829   9.108
    7SBC   C0EM 4348  11.281   1.761   9.116
    7SBC   C0EW 4349  11.351   1.696   9.005
    7SBC   H013 4350  11.307   1.692   8.907
    7SBC   C0EX 4351  11.484   1.634   9.032
    7SBC   H014 4352  11.532   1.574   8.956
    7SBC   C0F1 4353  11.541   1.630   9.161
    7SBC   C0EU 4354  11.468   1.695   9.259
    7SBC   C0ET 4355  11.499   1.697   9.394
    7SBC   C0ES 4356  11.386   1.758   9.454
    7SBC   C0EE 4357  11.291   1.795   9.360
    7SBC   C0ED 4358  11.165   1.867   9.347
    7SBC   C0EC 4359  11.086   1.910   9.457
    7SBC   C0EB 4360  11.125   1.911   9.593
    7SBC   C0EN 4361  11.257   1.865   9.639
    7SBC   C0ER 4362  11.289   1.876   9.776
    7SBC   C0DS 4363  11.040   1.941   9.705
    7SBC   C0DR 4364  10.912   1.977   9.671
    7SBC   C0EY 4365  11.380   1.809   9.582
    7SBC   C0EZ 4366  11.473   1.772   9.684
    7SBC   C0F5 4367  11.581   1.672   9.694
    7SBC   C0F6 4368  11.644   1.608   9.581
    7SBC   N008 4369  11.756   1.520   9.618
    7SBC   C0F7 4370  11.785   1.480   9.755
    7SBC   C0FQ 4371  11.893   1.394   9.778
    7SBC   H018 4372  11.916   1.364   9.879
    7SBC   C0FP 4373  11.978   1.357   9.677
    7SBC   H019 4374  12.057   1.287   9.701
    7SBC   C0FO 4375  11.958   1.403   9.551
    7SBC   H01A 4376  12.028   1.385   9.470
    7SBC   C0F8 4377  11.703   1.534   9.860
    7SBC   C0F9 4378  11.839   1.469   9.515
    7SBC   C0FA 4379  11.814   1.494   9.377
    7SBC   H015 4380  11.883   1.464   9.300
    7SBC   C0FB 4381  11.700   1.571   9.340
    7SBC   C0FD 4382  11.617   1.625   9.441
    7SBC   C0FC 4383  11.663   1.571   9.195
    7SBC   O00A 4384  11.742   1.522   9.110
    7SBC   C0EV 4385  11.347   1.756   9.242
    7SBC   C0EF 4386  11.095   1.876   9.224
    7SBC   C0EI 4387  10.961   1.966   9.437
    7SBC   C0DQ 4388  10.873   2.003   9.542
    7SBC   C0CE 4389  10.689   2.038   9.747
    7SBC   H00U 4390  10.517   2.203   9.505
    7SBC   C0CA 4391  10.381   2.318   9.717
    7SBC   C0C9 4392  10.279   2.320   9.822
    7SBC   C0C8 4393  10.191   2.431   9.835
    7SBC   C0C7 4394  10.055   2.443   9.878
    7SBC   C0C6 4395   9.996   2.573   9.870
    7SBC   C0C5 4396   9.865   2.625   9.850
    7SBC   C0CQ 4397   9.865   2.754   9.799
    7SBC   C0D1 4398   9.978   2.805   9.727
    7SBC   C0D8 4399   9.945   2.862   9.608
    7SBC   C0D7 4400   9.807   2.892   9.623
    7SBC   C0D6 4401   9.729   2.951   9.522
    7SBC   C0D5 4402   9.592   2.975   9.537
    7SBC   C0D4 4403   9.500   2.930   9.639
    7SBC   C0D3 4404   9.376   2.931   9.575
    7SBC   C0CX 4405   9.291   2.831   9.646
    7SBC   C0CW 4406   9.380   2.754   9.733
    7SBC   C0CV 4407   9.370   2.647   9.833
    7SBC   C0D2 4408   9.244   2.600   9.879
    7SBC   C09D 4409   9.114   2.656   9.856
    7SBC   C09C 4410   9.003   2.618   9.934
    7SBC   C09B 4411   8.881   2.695   9.946
    7SBC   C09A 4412   8.879   2.816   9.865
    7SBC   C099 4413   8.963   2.834   9.761
    7SBC   C098 4414   8.953   2.967   9.723
    7SBC   C08Y 4415   8.876   3.042   9.821
    7SBC   C08X 4416   8.871   3.187   9.855
    7SBC   C08W 4417   8.939   3.286   9.773
    7SBC   C08U 4418   9.036   3.253   9.666
    7SBC   C08V 4419   9.099   3.128   9.613
    7SBC   C0DC 4420   9.153   3.163   9.485
    7SBC   H00W 4421   9.194   3.097   9.410
    7SBC   C0DB 4422   9.133   3.306   9.460
    7SBC   H00X 4423   9.156   3.365   9.372
    7SBC   C08T 4424   9.072   3.360   9.576
    7SBC   C08S 4425   9.045   3.493   9.604
    7SBC   H00N 4426   9.073   3.562   9.526
    7SBC   C08R 4427   8.968   3.532   9.717
    7SBC   C08Q 4428   8.946   3.668   9.753
    7SBC   H00O 4429   8.994   3.755   9.710
    7SBC   C08P 4430   8.873   3.711   9.871
    7SBC   C08O 4431   8.848   3.847   9.915
    7SBC   H00P 4432   8.879   3.929   9.852
    7SBC   C08N 4433   8.771   3.878  10.031
    7SBC   C08M 4434   8.733   4.017  10.062
    7SBC   O008 4435   8.771   4.117  10.000
    7SBC   O007 4436   8.650   4.037  10.169
    7SBC   C08H 4437   8.593   3.932  10.236
    7SBC   C08G 4438   8.499   3.953  10.344
    7SBC   C03V 4439   8.443   4.073  10.388
    7SBC   H009 4440   8.478   4.165  10.342
    7SBC   C03U 4441   8.348   4.080  10.493
    7SBC   C03W 4442   8.281   4.205  10.534
    7SBC   H00A 4443   8.287   4.302  10.487
    7SBC   C03X 4444   8.193   4.198  10.636
    7SBC   H00B 4445   8.138   4.287  10.661
    7SBC   O005 4446   8.163   4.083  10.703
    7SBC   C03O 4447   8.234   3.969  10.672
    7SBC   C03N 4448   8.204   3.856  10.745
    7SBC   O000 4449   8.135   3.877  10.859
    7SBC   C019 4450   8.111   3.770  10.939
    7SBC   C018 4451   8.151   3.635  10.907
    7SBC   C017 4452   8.226   3.618  10.790
    7SBC   C016 4453   8.266   3.492  10.748
    7SBC   C015 4454   8.215   3.387  10.824
    7SBC   C014 4455   8.253   3.259  10.792
    7SBC   C013 4456   8.326   3.231  10.674
    7SBC   C012 4457   8.322   3.089  10.676
    7SBC   C011 4458   8.238   3.050  10.781
    7SBC   C010 4459   8.211   2.922  10.801
    7SBC   C00Z 4460   8.131   2.864  10.894
    7SBC   C00Y 4461   8.165   2.726  10.882
    7SBC   C01O 4462   8.245   2.702  10.774
    7SBC   C01P 4463   8.341   2.603  10.765
    7SBC   C02L 4464   8.440   2.617  10.675
    7SBC   C02K 4465   8.439   2.735  10.595
    7SBC   C01M 4466   8.365   2.854  10.627
    7SBC   C02J 4467   8.526   2.720  10.489
    7SBC   C02I 4468   8.546   2.813  10.391
    7SBC   C02H 4469   8.509   2.952  10.390
    7SBC   C01Q 4470   8.432   3.031  10.476
    7SBC   C02G 4471   8.437   3.164  10.418
    7SBC   C089 4472   8.491   3.159  10.288
    7SBC   C088 4473   8.564   3.273  10.262
    7SBC   C087 4474   8.517   3.362  10.371
    7SBC   C086 4475   8.543   3.500  10.373
    7SBC   C03S 4476   8.480   3.595  10.458
    7SBC   N006 4477   8.511   3.716  10.394
    7SBC   C08F 4478   8.591   3.704  10.286
    7SBC   C01J 4479   8.396   3.593  10.569
    7SBC   C03R 4480   8.345   3.721  10.607
    7SBC   C03Q 4481   8.372   3.841  10.532
    7SBC   C08E 4482   8.619   3.570  10.268
    7SBC   C08D 4483   8.697   3.531  10.152
    7SBC   C08K 4484   8.749   3.636  10.069
    7SBC   C08C 4485   8.716   3.400  10.107
    7SBC   C091 4486   8.783   3.378   9.992
    7SBC   C092 4487   8.844   3.475   9.904
    7SBC   C08B 4488   8.667   3.278  10.158
    7SBC   C090 4489   8.710   3.175  10.060
    7SBC   C094 4490   8.662   3.038  10.057
    7SBC   C095 4491   8.731   2.933   9.997
    7SBC   C09R 4492   8.715   2.809  10.060
    7SBC   C097 4493   8.646   2.837  10.178
    7SBC   C096 4494   8.610   2.975  10.173
    7SBC   C01I 4495   8.438   3.295  10.471
    7SBC   C08A 4496   8.539   3.028  10.278
    7SBC   C09L 4497   8.615   2.755  10.288
    7SBC   C09K 4498   8.650   2.621  10.330
    7SBC   C09J 4499   8.732   2.531  10.250
    7SBC   C09I 4500   8.809   2.434  10.317
    7SBC   C09O 4501   8.819   2.371  10.449
    7SBC   C09N 4502   8.723   2.397  10.557
    7SBC   C09M 4503   8.628   2.502  10.564
    7SBC   C06O 4504   8.732   2.310  10.669
    7SBC   C05M 4505   8.844   2.226  10.691
    7SBC   C06P 4506   8.944   2.220  10.591
    7SBC   C042 4507   8.858   2.154  10.804
    7SBC   C041 4508   8.758   2.158  10.903
    7SBC   C040 4509   8.780   2.091  11.024
    7SBC   C03Z 4510   8.685   2.096  11.125
    7SBC   C03Y 4511   8.572   2.171  11.108
    7SBC   C027 4512   8.487   2.188  11.217
    7SBC   C026 4513   8.381   2.278  11.205
    7SBC   C028 4514   8.298   2.300  11.316
    7SBC   C029 4515   8.314   2.230  11.431
    7SBC   C02B 4516   8.229   2.253  11.537
    7SBC   C02C 4517   8.253   2.185  11.659
    7SBC   C02X 4518   8.164   2.204  11.762
    7SBC   C03E 4519   8.185   2.139  11.878
    7SBC   C03G 4520   8.301   2.067  11.907
    7SBC   C04Q 4521   8.395   2.064  11.808
    7SBC   C04R 4522   8.524   2.012  11.832
    7SBC   C04S 4523   8.622   2.007  11.730
    7SBC   C04L 4524   8.586   2.046  11.597
    7SBC   C04M 4525   8.455   2.099  11.578
    7SBC   C04K 4526   8.674   2.028  11.492
    7SBC   C04F 4527   8.800   1.964  11.514
    7SBC   C04E 4528   8.830   1.928  11.644
    7SBC   C04D 4529   8.947   1.853  11.664
    7SBC   C050 4530   8.978   1.797  11.789
    7SBC   C051 4531   9.090   1.721  11.802
    7SBC   C05Q 4532   9.115   1.650  11.918
    7SBC   C05V 4533   9.220   1.560  11.922
    7SBC   N005 4534   9.241   1.490  12.042
    7SBC   C07V 4535   9.147   1.500  12.147
    7SBC   C082 4536   9.167   1.426  12.262
    7SBC   C081 4537   9.278   1.344  12.281
    7SBC   C07C 4538   9.361   1.321  12.170
    7SBC   C07B 4539   9.475   1.240  12.184
    7SBC   C080 4540   9.512   1.180  12.301
    7SBC   C07Z 4541   9.615   1.082  12.300
    7SBC   H00L 4542   9.627   1.032  12.394
    7SBC   C079 4543   9.690   1.045  12.191
    7SBC   C078 4544   9.662   1.114  12.074
    7SBC   C077 4545   9.731   1.082  11.961
    7SBC   C07X 4546   9.828   0.978  11.963
    7SBC   H00I 4547   9.873   0.940  11.872
    7SBC   C07Y 4548   9.863   0.911  12.080
    7SBC   H00H 4549   9.933   0.829  12.080
    7SBC   C076 4550   9.704   1.149  11.844
    7SBC   C06C 4551   9.767   1.108  11.726
    7SBC   H00C 4552   9.842   1.032  11.711
    7SBC   C06F 4553   9.613   1.255  11.846
    7SBC   C06E 4554   9.592   1.333  11.735
    7SBC   C06G 4555   9.499   1.429  11.719
    7SBC   C06H 4556   9.413   1.448  11.828
    7SBC   C06I 4557   9.428   1.369  11.944
    7SBC   C06L 4558   9.489   1.504  11.599
    7SBC   C06M 4559   9.583   1.496  11.492
    7SBC   C06K 4560   9.384   1.597  11.590
    7SBC   C05S 4561   9.291   1.606  11.699
    7SBC   C05U 4562   9.351   1.663  11.474
    7SBC   C05X 4563   9.447   1.650  11.365
    7SBC   C05G 4564   9.394   1.704  11.245
    7SBC   C05F 4565   9.264   1.757  11.231
    7SBC   C05E 4566   9.235   1.804  11.105
    7SBC   C048 4567   9.120   1.877  11.087
    7SBC   C056 4568   9.113   1.944  10.967
    7SBC   C045 4569   8.998   2.013  10.946
    7SBC   C047 4570   9.040   1.892  11.194
    7SBC   C049 4571   9.069   1.844  11.321
    7SBC   C04B 4572   8.987   1.867  11.426
    7SBC   C046 4573   8.922   1.964  11.168
    7SBC   C04H 4574   8.839   1.979  11.275
    7SBC   C05D 4575   9.347   1.799  11.032
    7SBC   C04A 4576   9.186   1.774  11.343
    7SBC   C05T 4577   9.232   1.733  11.462
    7SBC   C055 4578   9.146   1.751  11.569
    7SBC   C06D 4579   9.667   1.301  11.618
    7SBC   C07W 4580   9.531   1.275  11.955
    7SBC   C085 4581   9.789   0.945  12.194
    7SBC   H00M 4582   9.808   0.888  12.284
    7SBC   C084 4583   9.439   1.215  12.413
    7SBC   H00J 4584   9.475   1.180  12.508
    7SBC   C07A 4585   9.555   1.211  12.071
    7SBC   C083 4586   9.318   1.284  12.405
    7SBC   H00K 4587   9.256   1.304  12.490
    7SBC   O00K 4588   9.079   1.443  12.368
    7SBC   C0GO 4589   8.964   1.513  12.356
    7SBC   C0GN 4590   8.871   1.523  12.458
    7SBC   H01L 4591   8.892   1.469  12.549
    7SBC   C0GM 4592   8.765   1.619  12.451
    7SBC   C0GL 4593   8.693   1.637  12.559
    7SBC   H01M 4594   8.702   1.569  12.642
    7SBC   O00J 4595   8.590   1.724  12.563
    7SBC   C0GK 4596   8.568   1.796  12.446
    7SBC   H01N 4597   8.490   1.871  12.445
    7SBC   C05K 4598   8.637   1.777  12.330
    7SBC   C05J 4599   8.603   1.841  12.207
    7SBC   C04Y 4600   8.481   1.909  12.178
    7SBC   C04X 4601   8.452   1.970  12.059
    7SBC   O006 4602   8.375   1.916  12.274
    7SBC   C053 4603   8.266   1.998  12.268
    7SBC   C04O 4604   8.240   2.056  12.145
    7SBC   C03C 4605   8.139   2.152  12.120
    7SBC   C03B 4606   8.045   2.232  12.198
    7SBC   C054 4607   7.991   2.195  12.326
    7SBC   C0GR 4608   7.878   2.255  12.388
    7SBC   C03M 4609   7.792   2.369  12.360
    7SBC   C03I 4610   7.800   2.446  12.237
    7SBC   C03J 4611   7.726   2.569  12.235
    7SBC   N002 4612   7.727   2.657  12.123
    7SBC   C02U 4613   7.666   2.784  12.124
    7SBC   C02T 4614   7.682   2.872  12.013
    7SBC   C02Z 4615   7.619   2.995  12.019
    7SBC   N001 4616   7.624   3.088  11.910
    7SBC   C02R 4617   7.553   3.207  11.912
    7SBC   C032 4618   7.492   3.249  12.029
    7SBC   C031 4619   7.491   3.161  12.135
    7SBC   H007 4620   7.444   3.194  12.227
    7SBC   C033 4621   7.433   3.377  12.026
    7SBC   H003 4622   7.380   3.405  12.116
    7SBC   O004 4623   7.426   3.451  11.916
    7SBC   C034 4624   7.462   3.395  11.793
    7SBC   C035 4625   7.430   3.463  11.672
    7SBC   C036 4626   7.482   3.417  11.551
    7SBC   H005 4627   7.454   3.466  11.459
    7SBC   C037 4628   7.565   3.304  11.546
    7SBC   H006 4629   7.599   3.279  11.447
    7SBC   C00D 4630   7.608   3.243  11.668
    7SBC   C00C 4631   7.699   3.136  11.666
    7SBC   C00B 4632   7.767   3.087  11.548
    7SBC   C00A 4633   7.811   3.125  11.404
    7SBC   C009 4634   7.845   3.000  11.347
    7SBC   C008 4635   7.933   2.971  11.238
    7SBC   C007 4636   7.972   3.075  11.159
    7SBC   C006 4637   8.051   3.052  11.041
    7SBC   C005 4638   8.101   3.160  10.968
    7SBC   C004 4639   8.086   3.292  11.017
    7SBC   C003 4640   8.013   3.312  11.140
    7SBC   C002 4641   7.982   3.442  11.178
    7SBC   C01C 4642   8.023   3.548  11.095
    7SBC   C01B 4643   7.991   3.682  11.123
    7SBC   H000 4644   7.917   3.715  11.194
    7SBC   C001 4645   7.908   3.462  11.297
    7SBC   C000 4646   7.897   3.348  11.383
    7SBC   C01U 4647   7.841   3.409  11.497
    7SBC   H002 4648   7.816   3.358  11.588
    7SBC   C01T 4649   7.804   3.554  11.480
    7SBC   O002 4650   7.728   3.626  11.545
    7SBC   O001 4651   7.856   3.578  11.350
    7SBC   C01S 4652   7.960   3.202  11.208
    7SBC   C00N 4653   7.973   2.843  11.219
    7SBC   C00M 4654   7.962   2.747  11.320
    7SBC   C00J 4655   7.893   2.771  11.434
    7SBC   C00I 4656   7.904   2.697  11.550
    7SBC   C00H 4657   7.851   2.741  11.667
    7SBC   C00G 4658   7.809   2.873  11.678
    7SBC   C00F 4659   7.754   2.924  11.796
    7SBC   C01X 4660   7.864   2.663  11.780
    7SBC   C01W 4661   7.922   2.542  11.766
    7SBC   C01V 4662   7.990   2.506  11.651
    7SBC   C020 4663   8.063   2.387  11.642
    7SBC   C01Z 4664   7.924   2.461  11.876
    7SBC   C02Y 4665   8.002   2.352  11.866
    7SBC   C039 4666   8.012   2.272  11.980
    7SBC   C02W 4667   7.860   2.497  12.001
    7SBC   C01Y 4668   7.804   2.707  11.898
    7SBC   C00U 4669   7.979   2.585  11.541
    7SBC   C00S 4670   8.049   2.550  11.425
    7SBC   C00T 4671   8.131   2.440  11.422
    7SBC   C00R 4672   8.039   2.631  11.312
    7SBC   C00Q 4673   8.113   2.599  11.202
    7SBC   C00V 4674   8.186   2.480  11.195
    7SBC   C024 4675   8.266   2.450  11.088
    7SBC   C00X 4676   8.255   2.531  10.976
    7SBC   C00P 4677   8.109   2.691  11.100
    7SBC   C00O 4678   8.041   2.815  11.108
    7SBC   C00K 4679   7.839   2.897  11.438
    7SBC   N000 4680   7.884   3.226  11.331
    7SBC   C00L 4681   7.803   2.949  11.559
    7SBC   H004 4682   7.361   3.546  11.661
    7SBC   C02Q 4683   7.543   3.278  11.789
    7SBC   C00E 4684   7.700   3.054  11.786
    7SBC   C030 4685   7.547   3.036  12.131
    7SBC   O003 4686   7.534   2.946  12.235
    7SBC   C02S 4687   7.747   2.832  11.903
    7SBC   C038 4688   7.589   2.822  12.232
    7SBC   C03L 4689   7.589   2.738  12.346
    7SBC   H008 4690   7.538   2.777  12.433
    7SBC   C02V 4691   7.799   2.615  12.004
    7SBC   C03K 4692   7.649   2.611  12.347
    7SBC   C0BK 4693   7.635   2.521  12.448
    7SBC   H00T 4694   7.565   2.542  12.528
    7SBC   C03H 4695   7.871   2.418  12.117
    7SBC   C0BL 4696   7.701   2.399  12.463
    7SBC   C0GU 4697   7.690   2.318  12.575
    7SBC   H01O 4698   7.621   2.348  12.653
    7SBC   C0GT 4699   7.767   2.195  12.599
    7SBC   H01P 4700   7.770   2.130  12.685
    7SBC   C0GS 4701   7.861   2.170  12.503
    7SBC   C0GV 4702   7.963   2.069  12.503
    7SBC   C0GW 4703   7.977   1.958  12.591
    7SBC   H01Q 4704   7.902   1.936  12.665
    7SBC   C0GX 4705   8.084   1.878  12.571
    7SBC   H01R 4706   8.093   1.791  12.634
    7SBC   O00L 4707   8.184   1.903  12.474
    7SBC   C0GQ 4708   8.055   2.090  12.399
    7SBC   C03A 4709   7.971   2.313  12.104
    7SBC   C05L 4710   8.167   2.002  12.379
    7SBC   C04W 4711   8.698   1.833  12.103
    7SBC   C05I 4712   8.812   1.753  12.115
    7SBC   C05O 4713   8.839   1.680  12.227
    7SBC   C052 4714   8.911   1.745  12.011
    7SBC   C04V 4715   8.676   1.898  11.983
    7SBC   C04U 4716   8.767   1.887  11.878
    7SBC   N009 4717   8.746   1.689  12.333
    7SBC   C0GP 4718   8.948   1.598  12.241
    7SBC   C05W 4719   9.041   1.588  12.138
    7SBC   C07D 4720   9.339   1.389  12.050
    7SBC   C06J 4721   9.304   1.532  11.816
    7SBC   C05P 4722   9.023   1.657  12.022
    7SBC   C05R 4723   9.181   1.698  11.693
    7SBC   C04Z 4724   8.887   1.811  11.893
    7SBC   C04C 4725   9.029   1.826  11.552
    7SBC   C04G 4726   8.873   1.939  11.403
    7SBC   C04J 4727   8.636   2.069  11.365
    7SBC   C04T 4728   8.742   1.941  11.755
    7SBC   N003 4729   8.548   1.956  11.957
    7SBC   C04P 4730   8.326   2.031  12.037
    7SBC   C03D 4731   8.111   2.177  11.987
    7SBC   C021 4732   8.076   2.309  11.759
    7SBC   C03F 4733   8.367   2.115  11.680
    7SBC   C022 4734   8.137   2.356  11.534
    7SBC   C02A 4735   8.426   2.146  11.448
    7SBC   C023 4736   8.205   2.405  11.310
    7SBC   C025 4737   8.365   2.352  11.089
    7SBC   C02D 4738   8.456   2.336  10.982
    7SBC   C02E 4739   8.445   2.418  10.871
    7SBC   C02N 4740   8.532   2.406  10.763
    7SBC   C04N 4741   8.516   2.132  11.342
    7SBC   C02P 4742   8.550   2.240  10.986
    7SBC   C04I 4743   8.718   2.047  11.256
    7SBC   C044 4744   8.895   2.018  11.043
    7SBC   C043 4745   8.644   2.231  10.884
    7SBC   C05N 4746   8.635   2.314  10.769
    7SBC   C09U 4747   8.929   2.286  10.469
    7SBC   C09V 4748   9.034   2.283  10.376
    7SBC   C09X 4749   9.032   2.349  10.255
    7SBC   C09Y 4750   9.139   2.374  10.168
    7SBC   C0A1 4751   9.258   2.316  10.196
    7SBC   C0A2 4752   9.266   2.234  10.316
    7SBC   C0A4 4753   9.380   2.162  10.337
    7SBC   C071 4754   9.392   2.081  10.448
    7SBC   C0A5 4755   9.510   2.022  10.482
    7SBC   C0A9 4756   9.617   2.033  10.395
    7SBC   C0A8 4757   9.605   2.108  10.282
    7SBC   C0AP 4758   9.715   2.124  10.198
    7SBC   C0BY 4759   9.703   2.217  10.097
    7SBC   C0BX 4760   9.595   2.294  10.074
    7SBC   C0C2 4761   9.604   2.404   9.988
    7SBC   C0C3 4762   9.489   2.483   9.966
    7SBC   C0CT 4763   9.367   2.444  10.023
    7SBC   C0C1 4764   9.724   2.440   9.925
    7SBC   C0C0 4765   9.833   2.341   9.928
    7SBC   C0A7 4766   9.484   2.272  10.149
    7SBC   C0BZ 4767   9.820   2.234  10.022
    7SBC   C0BO 4768   9.938   2.163  10.035
    7SBC   C0BN 4769   9.952   2.088  10.151
    7SBC   C0BM 4770  10.075   2.052  10.186
    7SBC   C0B9 4771  10.088   1.984  10.303
    7SBC   C0B8 4772   9.980   1.948  10.381
    7SBC   C0AD 4773   9.849   1.992  10.340
    7SBC   C0AF 4774  10.003   1.885  10.500
    7SBC   C0AG 4775  10.129   1.838  10.542
    7SBC   C0B7 4776  10.236   1.866  10.460
    7SBC   C0AE 4777   9.888   1.871  10.571
    7SBC   C0AB 4778   9.762   1.919  10.545
    7SBC   C0AA 4779   9.652   1.907  10.628
    7SBC   C0AJ 4780   9.911   1.815  10.692
    7SBC   C0AK 4781   9.806   1.806  10.777
    7SBC   C06W 4782   9.856   1.767  10.897
    7SBC   C0AI 4783  10.032   1.767  10.748
    7SBC   C0BP 4784  10.037   2.227   9.966
    7SBC   C0BQ 4785  10.168   2.186  10.001
    7SBC   C0BW 4786   9.837   2.061  10.223
    7SBC   C0AC 4787   9.743   1.985  10.428
    7SBC   C0A6 4788   9.490   2.178  10.254
    7SBC   C0A3 4789   9.370   2.340  10.119
    7SBC   C09Z 4790   9.132   2.456  10.052
    7SBC   C09W 4791   9.153   2.224  10.400
    7SBC   C072 4792   9.167   2.151  10.522
    7SBC   C09H 4793   8.911   2.407  10.223
    7SBC   C09G 4794   8.901   2.491  10.111
    7SBC   C09P 4795   8.791   2.572  10.132
    7SBC   C02O 4796   8.610   2.602  10.459
    7SBC   C02M 4797   8.531   2.505  10.663
    7SBC   C02F 4798   8.343   2.518  10.868
    7SBC   C00W 4799   8.171   2.642  10.985
    7SBC   C01R 4800   8.076   2.912  11.018
    7SBC   C01N 4801   8.271   2.826  10.725
    7SBC   C01L 4802   8.381   2.989  10.598
    7SBC   C01H 4803   8.378   3.339  10.595
    7SBC   C01K 4804   8.187   3.150  10.854
    7SBC   C01E 4805   8.140   3.399  10.941
    7SBC   C01G 4806   8.351   3.474  10.639
    7SBC   C01D 4807   8.106   3.529  10.981
    7SBC   C01A 4808   8.035   3.791  11.052
    7SBC   H001 4809   8.009   3.894  11.076
    7SBC   C01F 4810   8.262   3.731  10.713
    7SBC   C03P 4811   8.319   3.964  10.561
    7SBC   C03T 4812   8.461   3.842  10.423
    7SBC   C08I 4813   8.638   3.804  10.205
    7SBC   C08J 4814   8.724   3.770  10.102
    7SBC   C08L 4815   8.823   3.609   9.949
    7SBC   C093 4816   8.921   3.429   9.798
    7SBC   C08Z 4817   8.794   3.241   9.960
    7SBC   C09T 4818   9.075   2.992   9.662
    7SBC   C09S 4819   8.818   2.936   9.892
    7SBC   C09Q 4820   8.788   2.686  10.050
    7SBC   C09F 4821   9.014   2.519  10.026
    7SBC   C09E 4822   9.090   2.776   9.777
    7SBC   C0A0 4823   9.247   2.500   9.985
    7SBC   C0CU 4824   9.493   2.590   9.874
    7SBC   C0CR 4825   9.622   2.632   9.831
    7SBC   C0CZ 4826   9.629   2.750   9.753
    7SBC   C0DA 4827   9.158   2.864   9.686
    7SBC   C0D9 4828   9.389   2.953   9.428
    7SBC   H00V 4829   9.318   2.918   9.355
    7SBC   C0CY 4830   9.510   2.808   9.711
    7SBC   C0DF 4831   9.527   2.980   9.406
    7SBC   C0DE 4832   9.632   2.989   9.314
    7SBC   C0GI 4833   9.639   3.033   9.178
    7SBC   H01K 4834   9.557   3.066   9.117
    7SBC   C0GJ 4835   9.760   3.040   9.126
    7SBC   H01J 4836   9.759   3.092   9.031
    7SBC   O00I 4837   9.884   2.999   9.182
    7SBC   C0GH 4838   9.879   2.957   9.314
    7SBC   C0GG 4839  10.008   2.916   9.364
    7SBC   O00G 4840  10.112   2.932   9.278
    7SBC   C0G8 4841  10.238   2.885   9.304
    7SBC   C0G9 4842  10.333   2.935   9.220
    7SBC   H01G 4843  10.312   3.010   9.145
    7SBC   C0GA 4844  10.461   2.886   9.237
    7SBC   H01H 4845  10.531   2.937   9.174
    7SBC   C0GB 4846  10.496   2.780   9.324
    7SBC   C0EP 4847  10.392   2.727   9.405
    7SBC   C0E8 4848  10.417   2.608   9.484
    7SBC   C0CK 4849  10.345   2.538   9.581
    7SBC   C0CL 4850  10.264   2.609   9.670
    7SBC   C0E9 4851  10.182   2.717   9.631
    7SBC   C0GE 4852  10.164   2.791   9.509
    7SBC   C0E7 4853  10.539   2.551   9.487
    7SBC   C0CJ 4854  10.552   2.449   9.583
    7SBC   C0E6 4855  10.683   2.409   9.625
    7SBC   H00Y 4856  10.703   2.340   9.706
    7SBC   C0EO 4857  10.787   2.459   9.547
    7SBC   H011 4858  10.889   2.429   9.565
    7SBC   C0G6 4859  10.771   2.557   9.446
    7SBC   C0G5 4860  10.882   2.616   9.370
    7SBC   H01F 4861  10.981   2.573   9.378
    7SBC   C0GD 4862  10.854   2.709   9.275
    7SBC   H01I 4863  10.937   2.755   9.223
    7SBC   O00H 4864  10.728   2.762   9.250
    7SBC   C0EQ 4865  10.648   2.614   9.423
    7SBC   C0GC 4866  10.626   2.724   9.334
    7SBC   C0G7 4867  10.263   2.788   9.408
    7SBC   C0DD 4868   9.757   2.968   9.386
    7SBC   C0GF 4869  10.035   2.863   9.493
    7SBC   C0CO 4870  10.101   2.747   9.739
    7SBC   C0D0 4871   9.761   2.791   9.719
    7SBC   C0C4 4872   9.742   2.566   9.870
    7SBC   C0CN 4873  10.116   2.652   9.841
    7SBC   C0CP 4874   9.976   2.334   9.890
    7SBC   C0CM 4875  10.227   2.564   9.805
    7SBC   C0CI 4876  10.417   2.424   9.627
    7SBC   C0CD 4877  10.599   2.057   9.849
    7SBC   C0BR 4878  10.271   2.210   9.916
    7SBC   C0CS 4879  10.180   2.091  10.108
    7SBC   C0B6 4880  10.215   1.940  10.342
    7SBC   C0CG 4881  10.528   2.003  10.072
    7SBC   C0CF 4882  10.628   2.009   9.976
    7SBC   C0E5 4883  10.818   1.994   9.776
    7SBC   C0DT 4884  11.075   1.911   9.837
    7SBC   C0DL 4885  10.903   1.852  10.157
    7SBC   C0DM 4886  10.928   1.780  10.275
    7SBC   C0DY 4887  11.160   1.769  10.221
    7SBC   C0DU 4888  11.197   1.879   9.877
    7SBC   C0F0 4889  11.416   1.822   9.803
    7SBC   C0F4 4890  11.612   1.638   9.827
    7SBC   C0FG 4891  11.518   1.700  10.177
    7SBC   O00B 4892  11.729   1.487   9.991
    7SBC   C0FN 4893  11.554   1.619  10.280
    7SBC   C0DZ 4894  11.286   1.724  10.257
    7SBC   O00C 4895  11.220   1.536  10.561
    7SBC   C0FR 4896  11.127   1.507  10.655
    7SBC   O00D 4897  11.157   1.437  10.748
    7SBC   C0E0 4898  11.056   1.734  10.304
    7SBC   C0E3 4899  10.995   1.559  10.630
    7SBC   C0AW 4900  10.892   1.546  10.719
    7SBC   C0AV 4901  10.902   1.505  10.858
    7SBC   H00Q 4902  10.998   1.486  10.903
    7SBC   C0AU 4903  10.790   1.491  10.945
    7SBC   H00R 4904  10.801   1.462  11.048
    7SBC   C0AT 4905  10.668   1.537  10.898
    7SBC   C0AS 4906  10.536   1.556  10.954
    7SBC   C0AR 4907  10.496   1.485  11.069
    7SBC   C0BE 4908  10.656   1.576  10.767
    7SBC   C0DN 4909  10.819   1.750  10.359
    7SBC   C0AX 4910  10.763   1.585  10.680
    7SBC   C0BB 4911  10.587   1.768  10.415
    7SBC   C0BD 4912  10.533   1.633  10.746
    7SBC   C0B2 4913  10.359   1.808  10.485
    7SBC   C0AH 4914  10.149   1.772  10.668
    7SBC   C0BF 4915  10.441   1.613  10.854
    7SBC   C0AL 4916   9.993   1.731  10.877
    7SBC   C07U 4917  10.241   1.552  11.078
    7SBC   C0AQ 4918  10.363   1.490  11.122
    7SBC   C0BG 4919  10.569   1.410  11.168
    7SBC   C0FY 4920  10.428   1.145  11.357
    7SBC   C0BJ 4921  10.637   1.281  11.131
    7SBC   H00S 4922  10.692   1.255  11.042
    7SBC   C0FZ 4923  10.491   1.028  11.321
    7SBC   C07S 4924  10.284   1.147  11.366
    7SBC   C0G1 4925  10.240   0.771  11.369
    7SBC   C07K 4926   9.881   0.864  11.418
    7SBC   C07H 4927   9.999   1.121  11.402
    7SBC   C06B 4928   9.742   1.186  11.615
    7SBC   C06N 4929   9.674   1.389  11.510
    7SBC   C066 4930  10.003   1.368  11.322
    7SBC   C062 4931   9.892   1.618  11.170
    7SBC   C05Y 4932   9.572   1.581  11.384
    7SBC   C061 4933   9.809   1.734  11.143
    7SBC   C05H 4934   9.446   1.732  11.114
    7SBC   C06V 4935   9.774   1.763  11.009
    7SBC   C06Y 4936   9.675   1.848  10.750
    7SBC   C05C 4937   9.344   1.876  10.906
    7SBC   C06Z 4938   9.525   1.954  10.604
    7SBC   C070 4939   9.292   2.087  10.548
    7SBC   C05B 4940   9.219   1.942  10.876
    7SBC   C057 4941   8.981   2.084  10.827
    7SBC   C059 4942   9.063   2.147  10.611
    8SBC   C058 4943   5.630   9.458   5.849
    8SBC   C05A 4944   5.512   9.518   5.791
    8SBC   C06Q 4945   5.529   9.626   5.706
    8SBC   C06R 4946   5.413   9.684   5.649
    8SBC   C06S 4947   5.284   9.634   5.666
    8SBC   C06T 4948   5.174   9.688   5.591
    8SBC   C06U 4949   5.031   9.663   5.585
    8SBC   C06X 4950   4.950   9.572   5.660
    8SBC   C060 4951   4.810   9.575   5.613
    8SBC   C05Z 4952   4.690   9.568   5.692
    8SBC   C068 4953   4.602   9.685   5.635
    8SBC   C067 4954   4.459   9.713   5.669
    8SBC   C069 4955   4.383   9.631   5.764
    8SBC   C06A 4956   4.249   9.657   5.818
    8SBC   C073 4957   4.179   9.781   5.847
    8SBC   C07P 4958   4.117   9.794   5.972
    8SBC   C07O 4959   4.128   9.716   6.082
    8SBC   H00D 4960   4.199   9.635   6.075
    8SBC   C07N 4961   4.065   9.731   6.204
    8SBC   H00E 4962   4.090   9.673   6.291
    8SBC   C07M 4963   3.967   9.832   6.216
    8SBC   H00F 4964   3.913   9.842   6.308
    8SBC   C07L 4965   3.954   9.918   6.106
    8SBC   C07Q 4966   3.871  10.041   6.118
    8SBC   H00G 4967   3.816  10.057   6.209
    8SBC   O00F 4968   3.868  10.139   6.025
    8SBC   C07J 4969   3.939  10.114   5.916
    8SBC   C07I 4970   4.017   9.996   5.888
    8SBC   N004 4971   4.080   9.974   5.764
    8SBC   C07R 4972   4.049  10.072   5.664
    8SBC   C07T 4973   3.986  10.194   5.696
    8SBC   C0FX 4974   3.984  10.304   5.611
    8SBC   C0FW 4975   3.954  10.432   5.651
    8SBC   C0G0 4976   3.890  10.447   5.778
    8SBC   C0G2 4977   3.864  10.577   5.828
    8SBC   H01E 4978   3.832  10.588   5.931
    8SBC   C0G3 4979   3.907  10.687   5.756
    8SBC   H01C 4980   3.899  10.785   5.801
    8SBC   C0G4 4981   3.961  10.673   5.629
    8SBC   H01D 4982   3.989  10.767   5.582
    8SBC   O00E 4983   3.871  10.339   5.858
    8SBC   C0FV 4984   3.986  10.544   5.568
    8SBC   C0FU 4985   4.046  10.513   5.444
    8SBC   H01B 4986   4.067  10.596   5.378
    8SBC   C0FT 4987   4.065  10.383   5.400
    8SBC   C0FS 4988   4.120  10.314   5.286
    8SBC   C0BI 4989   4.106  10.172   5.308
    8SBC   C0BH 4990   4.203  10.101   5.236
    8SBC   C07F 4991   4.309  10.039   5.312
    8SBC   C07E 4992   4.306   9.963   5.430
    8SBC   C07G 4993   4.202   9.956   5.522
    8SBC   C074 4994   4.256   9.882   5.629
    8SBC   C065 4995   4.417   9.894   5.482
    8SBC   C064 4996   4.542   9.926   5.417
    8SBC   C063 4997   4.669   9.883   5.456
    8SBC   C075 4998   4.763   9.952   5.365
    8SBC   C0AM 4999   4.696  10.051   5.281
    8SBC   C0AN 5000   4.755  10.159   5.198
    8SBC   C0AO 5001   4.899  10.211   5.185
    8SBC   C0B1 5002   4.938  10.325   5.099
    8SBC   C0B0 5003   4.844  10.389   5.029
    8SBC   C0AZ 5004   4.859  10.508   4.959
    8SBC   C0AY 5005   4.751  10.580   4.899
    8SBC   N007 5006   4.769  10.704   4.838
    8SBC   C0E2 5007   4.656  10.777   4.803
    8SBC   C0E1 5008   4.685  10.897   4.748
    8SBC   C0E4 5009   4.574  10.978   4.729
    8SBC   C0FF 5010   4.590  11.096   4.655
    8SBC   C0FJ 5011   4.496  11.201   4.628
    8SBC   C0FK 5012   4.405  11.245   4.731
    8SBC   H016 5013   4.386  11.187   4.820
    8SBC   C0FL 5014   4.397  11.387   4.708
    8SBC   H017 5015   4.382  11.458   4.787
    8SBC   C0FM 5016   4.459  11.429   4.582
    8SBC   C0FH 5017   4.541  11.540   4.545
    8SBC   C0FI 5018   4.655  11.472   4.492
    8SBC   C0F3 5019   4.781  11.532   4.496
    8SBC   C0F2 5020   4.879  11.442   4.507
    8SBC   C0DW 5021   4.871  11.303   4.527
    8SBC   C0FE 5022   4.749  11.245   4.532
    8SBC   C0DV 5023   4.984  11.226   4.565
    8SBC   C0DX 5024   4.960  11.102   4.621
    8SBC   C0DK 5025   5.071  11.030   4.661
    8SBC   C0DJ 5026   5.198  11.087   4.658
    8SBC   C0DI 5027   5.306  11.020   4.717
    8SBC   C0DH 5028   5.289  10.889   4.758
    8SBC   C0DG 5029   5.162  10.835   4.769
    8SBC   C0BV 5030   5.142  10.721   4.846
    8SBC   C0BC 5031   5.010  10.672   4.861
    8SBC   C0BA 5032   5.248  10.657   4.908
    8SBC   C0B4 5033   5.223  10.544   4.987
    8SBC   C0B3 5034   5.090  10.496   5.005
    8SBC   C0B5 5035   5.327  10.481   5.045
    8SBC   C0BU 5036   5.458  10.524   5.019
    8SBC   C0BT 5037   5.485  10.635   4.940
    8SBC   C0BS 5038   5.618  10.682   4.927
    8SBC   C0CC 5039   5.639  10.797   4.854
    8SBC   C0CB 5040   5.769  10.851   4.840
    8SBC   C0CH 5041   5.774  10.989   4.819
    8SBC   C0DO 5042   5.666  11.070   4.785
    8SBC   C0DP 5043   5.667  11.209   4.770
    8SBC   C0EA 5044   5.787  11.276   4.809
    8SBC   H012 5045   5.858  11.215   4.861
    8SBC   O009 5046   5.809  11.406   4.784
    8SBC   C0EH 5047   5.697  11.477   4.750
    8SBC   C0EG 5048   5.706  11.616   4.750
    8SBC   C0EJ 5049   5.814  11.707   4.774
    8SBC   H010 5050   5.919  11.691   4.796
    8SBC   C0EK 5051   5.764  11.841   4.766
    8SBC   H00Z 5052   5.830  11.924   4.784
    8SBC   C0EL 5053   5.629  11.830   4.730
    8SBC   C0EM 5054   5.522  11.929   4.717
    8SBC   C0EW 5055   5.533  12.070   4.736
    8SBC   H013 5056   5.629  12.110   4.764
    8SBC   C0EX 5057   5.416  12.157   4.731
    8SBC   H014 5058   5.425  12.262   4.754
    8SBC   C0F1 5059   5.288  12.094   4.692
    8SBC   C0EU 5060   5.289  11.952   4.674
    8SBC   C0ET 5061   5.172  11.873   4.631
    8SBC   C0ES 5062   5.229  11.738   4.631
    8SBC   C0EE 5063   5.365  11.735   4.661
    8SBC   C0ED 5064   5.467  11.645   4.684
    8SBC   C0EC 5065   5.452  11.503   4.684
    8SBC   C0EB 5066   5.338  11.428   4.644
    8SBC   C0EN 5067   5.225  11.498   4.590
    8SBC   C0ER 5068   5.118  11.418   4.547
    8SBC   C0DS 5069   5.333  11.287   4.648
    8SBC   C0DR 5070   5.444  11.216   4.693
    8SBC   C0EY 5071   5.170  11.633   4.586
    8SBC   C0EZ 5072   5.033  11.632   4.548
    8SBC   C0F5 5073   4.919  11.728   4.549
    8SBC   C0F6 5074   4.928  11.862   4.589
    8SBC   N008 5075   4.804  11.937   4.591
    8SBC   C0F7 5076   4.677  11.872   4.577
    8SBC   C0FQ 5077   4.560  11.953   4.578
    8SBC   H018 5078   4.466  11.902   4.562
    8SBC   C0FP 5079   4.557  12.088   4.602
    8SBC   H019 5080   4.463  12.141   4.601
    8SBC   C0FO 5081   4.679  12.142   4.622
    8SBC   H01A 5082   4.682  12.250   4.626
    8SBC   C0F8 5083   4.678  11.733   4.560
    8SBC   C0F9 5084   4.804  12.074   4.607
    8SBC   C0FA 5085   4.919  12.150   4.624
    8SBC   H015 5086   4.915  12.257   4.637
    8SBC   C0FB 5087   5.041  12.078   4.640
    8SBC   C0FD 5088   5.041  11.941   4.617
    8SBC   C0FC 5089   5.157  12.159   4.675
    8SBC   O00A 5090   5.145  12.275   4.693
    8SBC   C0EV 5091   5.399  11.872   4.680
    8SBC   C0EF 5092   5.596  11.697   4.719
    8SBC   C0EI 5093   5.567  11.423   4.718
    8SBC   C0DQ 5094   5.561  11.278   4.729
    8SBC   C0CE 5095   5.540  11.006   4.771
    8SBC   H00U 5096   5.870  11.038   4.812
    8SBC   C0CA 5097   5.878  10.756   4.846
    8SBC   C0C9 5098   5.862  10.637   4.920
    8SBC   C0C8 5099   5.967  10.537   4.915
    8SBC   C0C7 5100   6.011  10.430   5.003
    8SBC   C0C6 5101   6.118  10.352   4.959
    8SBC   C0C5 5102   6.218  10.272   5.023
    8SBC   C0CQ 5103   6.338  10.256   4.954
    8SBC   C0D1 5104   6.367  10.343   4.851
    8SBC   C0D8 5105   6.494  10.388   4.858
    8SBC   C0D7 5106   6.561  10.283   4.928
    8SBC   C0D6 5107   6.696  10.284   4.973
    8SBC   C0D5 5108   6.754  10.187   5.054
    8SBC   C0D4 5109   6.701  10.075   5.123
    8SBC   C0D3 5110   6.799  10.041   5.226
    8SBC   C0CX 5111   6.719   9.985   5.336
    8SBC   C0CW 5112   6.578  10.021   5.314
    8SBC   C0CV 5113   6.448  10.010   5.392
    8SBC   C0D2 5114   6.442   9.934   5.509
    8SBC   C09D 5115   6.546   9.878   5.590
    8SBC   C09C 5116   6.515   9.802   5.707
    8SBC   C09B 5117   6.607   9.733   5.793
    8SBC   C09A 5118   6.742   9.735   5.748
    8SBC   C099 5119   6.782   9.819   5.653
    8SBC   C098 5120   6.903   9.786   5.598
    8SBC   C08Y 5121   6.942   9.659   5.662
    8SBC   C08X 5122   7.041   9.563   5.617
    8SBC   C08W 5123   7.123   9.581   5.502
    8SBC   C08U 5124   7.108   9.693   5.402
    8SBC   C08V 5125   7.006   9.793   5.376
    8SBC   C0DC 5126   7.074   9.873   5.277
    8SBC   H00W 5127   7.036   9.956   5.219
    8SBC   C0DB 5128   7.198   9.819   5.233
    8SBC   H00X 5129   7.270   9.857   5.163
    8SBC   C08T 5130   7.218   9.708   5.316
    8SBC   C08S 5131   7.324   9.622   5.301
    8SBC   H00N 5132   7.390   9.629   5.215
    8SBC   C08R 5133   7.336   9.515   5.380
    8SBC   C08Q 5134   7.441   9.422   5.369
    8SBC   H00O 5135   7.523   9.430   5.300
    8SBC   C08P 5136   7.451   9.300   5.443
    8SBC   C08O 5137   7.554   9.202   5.420
    8SBC   H00P 5138   7.630   9.219   5.346
    8SBC   C08N 5139   7.549   9.080   5.488
    8SBC   C08M 5140   7.648   8.981   5.461
    8SBC   O008 5141   7.751   9.000   5.404
    8SBC   O007 5142   7.627   8.857   5.524
    8SBC   C08H 5143   7.520   8.828   5.603
    8SBC   C08G 5144   7.502   8.692   5.657
    8SBC   C03V 5145   7.585   8.581   5.646
    8SBC   H009 5146   7.678   8.594   5.593
    8SBC   C03U 5147   7.546   8.457   5.699
    8SBC   C03W 5148   7.617   8.333   5.675
    8SBC   H00A 5149   7.707   8.342   5.616
    8SBC   C03X 5150   7.576   8.218   5.727
    8SBC   H00B 5151   7.641   8.136   5.703
    8SBC   O005 5152   7.476   8.207   5.813
    8SBC   C03O 5153   7.402   8.325   5.838
    8SBC   C03N 5154   7.294   8.322   5.920
    8SBC   O000 5155   7.270   8.199   5.977
    8SBC   C019 5156   7.148   8.174   6.028
    8SBC   C018 5157   7.060   8.283   6.058
    8SBC   C017 5158   7.096   8.413   6.023
    8SBC   C016 5159   7.014   8.520   6.049
    8SBC   C015 5160   6.903   8.492   6.130
    8SBC   C014 5161   6.820   8.597   6.167
    8SBC   C013 5162   6.838   8.726   6.113
    8SBC   C012 5163   6.717   8.795   6.167
    8SBC   C011 5164   6.654   8.702   6.253
    8SBC   C010 5165   6.535   8.728   6.317
    8SBC   C00Z 5166   6.436   8.648   6.379
    8SBC   C00Y 5167   6.324   8.726   6.384
    8SBC   C01O 5168   6.351   8.854   6.337
    8SBC   C01P 5169   6.247   8.923   6.278
    8SBC   C02L 5170   6.281   9.031   6.198
    8SBC   C02K 5171   6.414   9.042   6.167
    8SBC   C01M 5172   6.518   8.944   6.188
    8SBC   C02J 5173   6.443   9.169   6.111
    8SBC   C02I 5174   6.565   9.214   6.068
    8SBC   C02H 5175   6.690   9.150   6.057
    8SBC   C01Q 5176   6.733   9.021   6.081
    8SBC   C02G 5177   6.865   9.006   6.036
    8SBC   C089 5178   6.912   9.134   6.002
    8SBC   C088 5179   7.008   9.121   5.900
    8SBC   C087 5180   7.034   8.974   5.897
    8SBC   C086 5181   7.151   8.922   5.838
    8SBC   C03S 5182   7.196   8.789   5.857
    8SBC   N006 5183   7.314   8.783   5.774
    8SBC   C08F 5184   7.339   8.904   5.723
    8SBC   C01J 5185   7.156   8.667   5.910
    8SBC   C03R 5186   7.236   8.554   5.886
    8SBC   C03Q 5187   7.356   8.561   5.805
    8SBC   C08E 5188   7.250   8.997   5.760
    8SBC   C08D 5189   7.253   9.130   5.706
    8SBC   C08K 5190   7.348   9.156   5.605
    8SBC   C08C 5191   7.160   9.231   5.731
    8SBC   C091 5192   7.166   9.354   5.661
    8SBC   C092 5193   7.256   9.378   5.554
    8SBC   C08B 5194   7.056   9.237   5.818
    8SBC   C090 5195   6.998   9.372   5.806
    8SBC   C094 5196   6.881   9.422   5.875
    8SBC   C095 5197   6.810   9.548   5.857
    8SBC   C09R 5198   6.680   9.545   5.910
    8SBC   C097 5199   6.661   9.417   5.971
    8SBC   C096 5200   6.786   9.347   5.950
    8SBC   C01I 5201   6.947   8.899   5.987
    8SBC   C08A 5202   6.800   9.215   6.000
    8SBC   C09L 5203   6.550   9.350   6.030
    8SBC   C09K 5204   6.416   9.389   6.039
    8SBC   C09J 5205   6.361   9.505   5.979
    8SBC   C09I 5206   6.229   9.517   5.937
    8SBC   C09O 5207   6.109   9.428   5.935
    8SBC   C09N 5208   6.100   9.306   6.010
    8SBC   C09M 5209   6.203   9.234   6.075
    8SBC   C06O 5210   5.967   9.253   6.022
    8SBC   C05M 5211   5.854   9.319   5.966
    8SBC   C06P 5212   5.873   9.437   5.886
    8SBC   C042 5213   5.722   9.273   5.984
    8SBC   C041 5214   5.697   9.159   6.058
    8SBC   C040 5215   5.570   9.110   6.077
    8SBC   C03Z 5216   5.548   8.986   6.132
    8SBC   C03Y 5217   5.655   8.914   6.183
    8SBC   C027 5218   5.629   8.789   6.243
    8SBC   C026 5219   5.735   8.721   6.296
    8SBC   C028 5220   5.719   8.592   6.338
    8SBC   C029 5221   5.594   8.535   6.338
    8SBC   C02B 5222   5.573   8.403   6.370
    8SBC   C02C 5223   5.451   8.344   6.354
    8SBC   C02X 5224   5.432   8.212   6.380
    8SBC   C03E 5225   5.315   8.157   6.348
    8SBC   C03G 5226   5.206   8.218   6.302
    8SBC   C04Q 5227   5.222   8.350   6.280
    8SBC   C04R 5228   5.109   8.424   6.237
    8SBC   C04S 5229   5.120   8.560   6.206
    8SBC   C04L 5230   5.250   8.620   6.215
    8SBC   C04M 5231   5.356   8.551   6.277
    8SBC   C04K 5232   5.271   8.750   6.175
    8SBC   C04F 5233   5.158   8.819   6.132
    8SBC   C04E 5234   5.034   8.764   6.124
    8SBC   C04D 5235   4.924   8.842   6.082
    8SBC   C050 5236   4.799   8.789   6.083
    8SBC   C051 5237   4.691   8.868   6.033
    8SBC   C05Q 5238   4.566   8.816   6.035
    8SBC   C05V 5239   4.456   8.892   6.010
    8SBC   N005 5240   4.323   8.840   6.007
    8SBC   C07V 5241   4.311   8.703   6.040
    8SBC   C082 5242   4.182   8.650   6.045
    8SBC   C081 5243   4.068   8.727   6.027
    8SBC   C07C 5244   4.084   8.865   6.003
    8SBC   C07B 5245   3.973   8.949   5.996
    8SBC   C080 5246   3.844   8.899   6.010
    8SBC   C07Z 5247   3.739   8.992   6.010
    8SBC   H00L 5248   3.644   8.941   6.017
    8SBC   C079 5249   3.759   9.130   6.010
    8SBC   C078 5250   3.889   9.180   5.983
    8SBC   C077 5251   3.912   9.318   5.967
    8SBC   C07X 5252   3.799   9.410   5.982
    8SBC   H00I 5253   3.799   9.516   5.965
    8SBC   C07Y 5254   3.671   9.357   6.001
    8SBC   H00H 5255   3.584   9.417   5.978
    8SBC   C076 5256   4.041   9.363   5.931
    8SBC   C06C 5257   4.064   9.501   5.892
    8SBC   H00C 5258   3.989   9.578   5.901
    8SBC   C06F 5259   4.143   9.272   5.921
    8SBC   C06E 5260   4.274   9.312   5.887
    8SBC   C06G 5261   4.386   9.239   5.906
    8SBC   C06H 5262   4.364   9.109   5.944
    8SBC   C06I 5263   4.233   9.056   5.960
    8SBC   C06L 5264   4.514   9.293   5.875
    8SBC   C06M 5265   4.540   9.421   5.819
    8SBC   C06K 5266   4.621   9.208   5.905
    8SBC   C05S 5267   4.601   9.079   5.958
    8SBC   C05U 5268   4.752   9.259   5.898
    8SBC   C05X 5269   4.784   9.380   5.835
    8SBC   C05G 5270   4.923   9.401   5.823
    8SBC   C05F 5271   5.015   9.337   5.905
    8SBC   C05E 5272   5.142   9.384   5.886
    8SBC   C048 5273   5.253   9.318   5.938
    8SBC   C056 5274   5.377   9.363   5.903
    8SBC   C045 5275   5.482   9.296   5.952
    8SBC   C047 5276   5.227   9.198   5.993
    8SBC   C049 5277   5.096   9.147   6.006
    8SBC   C04B 5278   5.075   9.024   6.052
    8SBC   C046 5279   5.329   9.130   6.038
    8SBC   C04H 5280   5.308   9.007   6.092
    8SBC   C05D 5281   5.144   9.478   5.787
    8SBC   C04A 5282   4.986   9.216   5.965
    8SBC   C05T 5283   4.854   9.177   5.954
    8SBC   C055 5284   4.835   9.046   5.993
    8SBC   C06D 5285   4.293   9.447   5.845
    8SBC   C07W 5286   4.122   9.141   5.955
    8SBC   C085 5287   3.647   9.226   6.020
    8SBC   H00M 5288   3.546   9.190   6.027
    8SBC   C084 5289   3.823   8.760   6.024
    8SBC   H00J 5290   3.725   8.715   6.030
    8SBC   C07A 5291   3.995   9.087   5.974
    8SBC   C083 5292   3.936   8.682   6.031
    8SBC   H00K 5293   3.926   8.574   6.036
    8SBC   O00K 5294   4.164   8.515   6.056
    8SBC   C0GO 5295   4.270   8.437   6.101
    8SBC   C0GN 5296   4.251   8.303   6.142
    8SBC   H01L 5297   4.148   8.274   6.151
    8SBC   C0GM 5298   4.366   8.218   6.163
    8SBC   C0GL 5299   4.344   8.087   6.169
    8SBC   H01M 5300   4.242   8.052   6.159
    8SBC   O00J 5301   4.444   8.000   6.180
    8SBC   C0GK 5302   4.571   8.050   6.192
    8SBC   H01N 5303   4.646   7.983   6.231
    8SBC   C05K 5304   4.600   8.181   6.180
    8SBC   C05J 5305   4.732   8.234   6.188
    8SBC   C04Y 5306   4.854   8.163   6.207
    8SBC   C04X 5307   4.977   8.222   6.230
    8SBC   O006 5308   4.853   8.023   6.187
    8SBC   C053 5309   4.960   7.941   6.220
    8SBC   C04O 5310   5.085   8.002   6.264
    8SBC   C03C 5311   5.202   7.938   6.311
    8SBC   C03B 5312   5.248   7.803   6.328
    8SBC   C054 5313   5.180   7.692   6.268
    8SBC   C0GR 5314   5.241   7.560   6.250
    8SBC   C03M 5315   5.371   7.501   6.280
    8SBC   C03I 5316   5.489   7.571   6.325
    8SBC   C03J 5317   5.610   7.494   6.331
    8SBC   N002 5318   5.736   7.553   6.362
    8SBC   C02U 5319   5.854   7.480   6.359
    8SBC   C02T 5320   5.976   7.541   6.377
    8SBC   C02Z 5321   6.094   7.467   6.372
    8SBC   N001 5322   6.217   7.532   6.395
    8SBC   C02R 5323   6.343   7.460   6.376
    8SBC   C032 5324   6.337   7.322   6.346
    8SBC   C031 5325   6.209   7.260   6.341
    8SBC   H007 5326   6.196   7.154   6.322
    8SBC   C033 5327   6.462   7.256   6.337
    8SBC   H003 5328   6.458   7.148   6.333
    8SBC   O004 5329   6.579   7.318   6.341
    8SBC   C034 5330   6.585   7.452   6.372
    8SBC   C035 5331   6.708   7.506   6.397
    8SBC   C036 5332   6.714   7.641   6.434
    8SBC   H005 5333   6.817   7.673   6.445
    8SBC   C037 5334   6.600   7.718   6.433
    8SBC   H006 5335   6.619   7.822   6.454
    8SBC   C00D 5336   6.472   7.661   6.417
    8SBC   C00C 5337   6.351   7.731   6.427
    8SBC   C00B 5338   6.342   7.879   6.432
    8SBC   C00A 5339   6.437   7.998   6.420
    8SBC   C009 5340   6.359   8.106   6.467
    8SBC   C008 5341   6.390   8.244   6.443
    8SBC   C007 5342   6.513   8.276   6.384
    8SBC   C006 5343   6.539   8.411   6.352
    8SBC   C005 5344   6.661   8.437   6.279
    8SBC   C004 5345   6.745   8.332   6.243
    8SBC   C003 5346   6.703   8.198   6.257
    8SBC   C002 5347   6.776   8.100   6.189
    8SBC   C01C 5348   6.904   8.125   6.143
    8SBC   C01B 5349   6.984   8.017   6.100
    8SBC   H000 5350   6.947   7.916   6.112
    8SBC   C001 5351   6.714   7.980   6.166
    8SBC   C000 5352   6.593   7.955   6.232
    8SBC   C01U 5353   6.534   7.855   6.155
    8SBC   H002 5354   6.434   7.815   6.165
    8SBC   C01T 5355   6.626   7.806   6.053
    8SBC   O002 5356   6.613   7.718   5.967
    8SBC   O001 5357   6.735   7.897   6.057
    8SBC   C01S 5358   6.583   8.174   6.323
    8SBC   C00N 5359   6.280   8.327   6.459
    8SBC   C00M 5360   6.152   8.276   6.487
    8SBC   C00J 5361   6.123   8.144   6.503
    8SBC   C00I 5362   5.997   8.077   6.504
    8SBC   C00H 5363   5.985   7.939   6.496
    8SBC   C00G 5364   6.096   7.860   6.483
    8SBC   C00F 5365   6.101   7.733   6.438
    8SBC   C01X 5366   5.866   7.881   6.467
    8SBC   C01W 5367   5.757   7.966   6.463
    8SBC   C01V 5368   5.768   8.108   6.459
    8SBC   C020 5369   5.664   8.190   6.429
    8SBC   C01Z 5370   5.634   7.908   6.424
    8SBC   C02Y 5371   5.535   7.995   6.413
    8SBC   C039 5372   5.412   7.936   6.392
    8SBC   C02W 5373   5.620   7.768   6.402
    8SBC   C01Y 5374   5.862   7.745   6.428
    8SBC   C00U 5375   5.889   8.163   6.485
    8SBC   C00S 5376   5.914   8.304   6.467
    8SBC   C00T 5377   5.806   8.386   6.434
    8SBC   C00R 5378   6.042   8.358   6.470
    8SBC   C00Q 5379   6.063   8.492   6.437
    8SBC   C00V 5380   5.950   8.570   6.396
    8SBC   C024 5381   5.971   8.699   6.355
    8SBC   C00X 5382   6.095   8.757   6.357
    8SBC   C00P 5383   6.189   8.542   6.424
    8SBC   C00O 5384   6.303   8.456   6.430
    8SBC   C00K 5385   6.235   8.059   6.513
    8SBC   N000 5386   6.536   8.038   6.327
    8SBC   C00L 5387   6.218   7.927   6.476
    8SBC   H004 5388   6.802   7.454   6.395
    8SBC   C02Q 5389   6.465   7.526   6.394
    8SBC   C00E 5390   6.224   7.667   6.423
    8SBC   C030 5391   6.089   7.331   6.348
    8SBC   O003 5392   5.964   7.271   6.334
    8SBC   C02S 5393   5.983   7.672   6.410
    8SBC   C038 5394   5.854   7.340   6.341
    8SBC   C03L 5395   5.729   7.286   6.308
    8SBC   H008 5396   5.730   7.180   6.287
    8SBC   C02V 5397   5.737   7.689   6.403
    8SBC   C03K 5398   5.610   7.355   6.304
    8SBC   C0BK 5399   5.488   7.297   6.281
    8SBC   H00T 5400   5.475   7.190   6.270
    8SBC   C03H 5401   5.498   7.708   6.361
    8SBC   C0BL 5402   5.366   7.362   6.270
    8SBC   C0GU 5403   5.248   7.291   6.246
    8SBC   H01O 5404   5.258   7.184   6.255
    8SBC   C0GT 5405   5.121   7.347   6.216
    8SBC   H01P 5406   5.036   7.280   6.209
    8SBC   C0GS 5407   5.128   7.482   6.219
    8SBC   C0GV 5408   5.013   7.565   6.193
    8SBC   C0GW 5409   4.878   7.524   6.157
    8SBC   H01Q 5410   4.855   7.423   6.128
    8SBC   C0GX 5411   4.792   7.627   6.145
    8SBC   H01R 5412   4.696   7.598   6.104
    8SBC   O00L 5413   4.818   7.760   6.163
    8SBC   C0GQ 5414   5.047   7.698   6.219
    8SBC   C03A 5415   5.388   7.803   6.364
    8SBC   C05L 5416   4.946   7.800   6.196
    8SBC   C04W 5417   4.750   8.374   6.168
    8SBC   C05I 5418   4.640   8.459   6.131
    8SBC   C05O 5419   4.509   8.407   6.118
    8SBC   C052 5420   4.659   8.594   6.098
    8SBC   C04V 5421   4.874   8.439   6.181
    8SBC   C04U 5422   4.891   8.572   6.153
    8SBC   N009 5423   4.493   8.273   6.158
    8SBC   C0GP 5424   4.401   8.488   6.092
    8SBC   C05W 5425   4.423   8.621   6.056
    8SBC   C07D 5426   4.211   8.920   5.986
    8SBC   C06J 5427   4.474   9.028   5.971
    8SBC   C05P 5428   4.551   8.680   6.066
    8SBC   C05R 5429   4.707   8.995   5.993
    8SBC   C04Z 5430   4.783   8.652   6.113
    8SBC   C04C 5431   4.944   8.971   6.043
    8SBC   C04G 5432   5.180   8.950   6.094
    8SBC   C04J 5433   5.398   8.807   6.181
    8SBC   C04T 5434   5.011   8.630   6.161
    8SBC   N003 5435   4.983   8.365   6.226
    8SBC   C04P 5436   5.089   8.148   6.269
    8SBC   C03D 5437   5.306   8.021   6.355
    8SBC   C021 5438   5.543   8.134   6.409
    8SBC   C03F 5439   5.342   8.418   6.309
    8SBC   C022 5440   5.678   8.329   6.424
    8SBC   C02A 5441   5.485   8.606   6.288
    8SBC   C023 5442   5.824   8.515   6.394
    8SBC   C025 5443   5.863   8.777   6.300
    8SBC   C02D 5444   5.884   8.903   6.244
    8SBC   C02E 5445   6.013   8.949   6.233
    8SBC   C02N 5446   6.044   9.067   6.163
    8SBC   C04N 5447   5.504   8.735   6.239
    8SBC   C02P 5448   5.782   8.966   6.174
    8SBC   C04I 5449   5.417   8.937   6.141
    8SBC   C044 5450   5.458   9.179   6.027
    8SBC   C043 5451   5.805   9.090   6.116
    8SBC   C05N 5452   5.937   9.137   6.094
    8SBC   C09U 5453   5.998   9.492   5.875
    8SBC   C09V 5454   6.005   9.614   5.799
    8SBC   C09X 5455   6.119   9.677   5.780
    8SBC   C09Y 5456   6.146   9.782   5.698
    8SBC   C0A1 5457   6.040   9.825   5.625
    8SBC   C0A2 5458   5.915   9.774   5.648
    8SBC   C0A4 5459   5.804   9.830   5.588
    8SBC   C071 5460   5.678   9.778   5.605
    8SBC   C0A5 5461   5.568   9.844   5.550
    8SBC   C0A9 5462   5.583   9.959   5.475
    8SBC   C0A8 5463   5.711  10.004   5.455
    8SBC   C0AP 5464   5.727  10.114   5.383
    8SBC   C0BY 5465   5.855  10.148   5.349
    8SBC   C0BX 5466   5.970  10.085   5.391
    8SBC   C0C2 5467   6.094  10.116   5.335
    8SBC   C0C3 5468   6.209  10.052   5.387
    8SBC   C0CT 5469   6.196   9.961   5.489
    8SBC   C0C1 5470   6.104  10.202   5.232
    8SBC   C0C0 5471   5.993  10.298   5.211
    8SBC   C0A7 5472   5.953   9.980   5.481
    8SBC   C0BZ 5473   5.869  10.265   5.268
    8SBC   C0BO 5474   5.763  10.337   5.227
    8SBC   C0BN 5475   5.633  10.292   5.240
    8SBC   C0BM 5476   5.533  10.352   5.164
    8SBC   C0B9 5477   5.403  10.302   5.183
    8SBC   C0B8 5478   5.383  10.195   5.267
    8SBC   C0AD 5479   5.495  10.134   5.334
    8SBC   C0AF 5480   5.258  10.144   5.287
    8SBC   C0AG 5481   5.146  10.207   5.230
    8SBC   C0B7 5482   5.171  10.324   5.149
    8SBC   C0AE 5483   5.249  10.037   5.369
    8SBC   C0AB 5484   5.354   9.971   5.429
    8SBC   C0AA 5485   5.334   9.856   5.503
    8SBC   C0AJ 5486   5.126   9.978   5.363
    8SBC   C0AK 5487   5.106   9.862   5.431
    8SBC   C06W 5488   4.977   9.830   5.422
    8SBC   C0AI 5489   5.008  10.030   5.311
    8SBC   C0BP 5490   5.805  10.431   5.135
    8SBC   C0BQ 5491   5.694  10.502   5.061
    8SBC   C0BW 5492   5.622  10.178   5.317
    8SBC   C0AC 5493   5.480  10.025   5.421
    8SBC   C0A6 5494   5.824   9.940   5.510
    8SBC   C0A3 5495   6.062   9.925   5.536
    8SBC   C09Z 5496   6.277   9.832   5.666
    8SBC   C09W 5497   5.897   9.663   5.729
    8SBC   C072 5498   5.772   9.607   5.746
    8SBC   C09H 5499   6.229   9.630   5.850
    8SBC   C09G 5500   6.349   9.689   5.839
    8SBC   C09P 5501   6.433   9.610   5.910
    8SBC   C02O 5502   6.350   9.270   6.079
    8SBC   C02M 5503   6.177   9.114   6.144
    8SBC   C02F 5504   6.119   8.880   6.295
    8SBC   C00W 5505   6.199   8.674   6.394
    8SBC   C01R 5506   6.432   8.502   6.389
    8SBC   C01N 5507   6.476   8.852   6.286
    8SBC   C01L 5508   6.656   8.922   6.135
    8SBC   C01H 5509   6.944   8.761   6.030
    8SBC   C01K 5510   6.702   8.570   6.236
    8SBC   C01E 5511   6.862   8.362   6.166
    8SBC   C01G 5512   7.039   8.650   5.996
    8SBC   C01D 5513   6.943   8.258   6.128
    8SBC   C01A 5514   7.116   8.039   6.049
    8SBC   H001 5515   7.177   7.954   6.023
    8SBC   C01F 5516   7.208   8.433   5.942
    8SBC   C03P 5517   7.437   8.450   5.779
    8SBC   C03T 5518   7.391   8.677   5.743
    8SBC   C08I 5519   7.430   8.933   5.633
    8SBC   C08J 5520   7.443   9.057   5.576
    8SBC   C08L 5521   7.354   9.279   5.538
    8SBC   C093 5522   7.238   9.494   5.481
    8SBC   C08Z 5523   7.065   9.441   5.693
    8SBC   C09T 5524   6.909   9.844   5.470
    8SBC   C09S 5525   6.845   9.645   5.766
    8SBC   C09Q 5526   6.572   9.629   5.880
    8SBC   C09F 5527   6.382   9.781   5.737
    8SBC   C09E 5528   6.689   9.878   5.567
    8SBC   C0A0 5529   6.308   9.910   5.556
    8SBC   C0CU 5530   6.334  10.071   5.325
    8SBC   C0CR 5531   6.338  10.144   5.204
    8SBC   C0CZ 5532   6.460  10.147   5.134
    8SBC   C0DA 5533   6.772   9.912   5.454
    8SBC   C0D9 5534   6.902  10.147   5.223
    8SBC   H00V 5535   6.980  10.157   5.298
    8SBC   C0CY 5536   6.571  10.079   5.188
    8SBC   C0DF 5537   6.878  10.232   5.108
    8SBC   C0DE 5538   6.907  10.358   5.039
    8SBC   C0GI 5539   7.020  10.445   5.038
    8SBC   H01K 5540   7.107  10.425   5.099
    8SBC   C0GJ 5541   7.006  10.557   4.968
    8SBC   H01J 5542   7.090  10.625   4.967
    8SBC   O00I 5543   6.899  10.590   4.890
    8SBC   C0GH 5544   6.782  10.516   4.889
    8SBC   C0GG 5545   6.668  10.575   4.832
    8SBC   O00G 5546   6.687  10.700   4.780
    8SBC   C0G8 5547   6.591  10.766   4.707
    8SBC   C0G9 5548   6.633  10.868   4.627
    8SBC   H01G 5549   6.741  10.876   4.618
    8SBC   C0GA 5550   6.545  10.949   4.562
    8SBC   H01H 5551   6.585  11.019   4.490
    8SBC   C0GB 5552   6.405  10.930   4.577
    8SBC   C0EP 5553   6.365  10.826   4.671
    8SBC   C0E8 5554   6.220  10.837   4.713
    8SBC   C0CK 5555   6.140  10.763   4.799
    8SBC   C0CL 5556   6.168  10.620   4.798
    8SBC   C0E9 5557   6.295  10.561   4.786
    8SBC   C0GE 5558   6.429  10.610   4.786
    8SBC   C0E7 5559   6.131  10.905   4.635
    8SBC   C0CJ 5560   5.996  10.875   4.654
    8SBC   C0E6 5561   5.895  10.915   4.562
    8SBC   H00Y 5562   5.791  10.889   4.572
    8SBC   C0EO 5563   5.939  10.997   4.457
    8SBC   H011 5564   5.868  11.027   4.381
    8SBC   C0G6 5565   6.074  11.039   4.439
    8SBC   C0G5 5566   6.121  11.128   4.335
    8SBC   H01F 5567   6.055  11.182   4.269
    8SBC   C0GD 5568   6.255  11.154   4.328
    8SBC   H01I 5569   6.282  11.225   4.252
    8SBC   O00H 5570   6.350  11.092   4.414
    8SBC   C0EQ 5571   6.171  10.986   4.526
    8SBC   C0GC 5572   6.307  10.999   4.500
    8SBC   C0G7 5573   6.456  10.737   4.728
    8SBC   C0DD 5574   6.791  10.393   4.961
    8SBC   C0GF 5575   6.537  10.521   4.823
    8SBC   C0CO 5576   6.268  10.427   4.803
    8SBC   C0D0 5577   6.459  10.225   5.005
    8SBC   C0C4 5578   6.220  10.209   5.151
    8SBC   C0CN 5579   6.131  10.398   4.830
    8SBC   C0CP 5580   5.948  10.416   5.127
    8SBC   C0CM 5581   6.063  10.520   4.812
    8SBC   C0CI 5582   5.997  10.801   4.776
    8SBC   C0CD 5583   5.529  10.873   4.813
    8SBC   C0BR 5584   5.726  10.607   4.973
    8SBC   C0CS 5585   5.566  10.461   5.083
    8SBC   C0B6 5586   5.298  10.367   5.128
    8SBC   C0CG 5587   5.377  10.700   4.879
    8SBC   C0CF 5588   5.398  10.816   4.811
    8SBC   C0E5 5589   5.433  11.079   4.720
    8SBC   C0DT 5590   5.215  11.220   4.622
    8SBC   C0DL 5591   5.053  10.907   4.720
    8SBC   C0DM 5592   4.924  10.862   4.743
    8SBC   C0DY 5593   4.829  11.056   4.646
    8SBC   C0DU 5594   5.108  11.283   4.573
    8SBC   C0F0 5595   5.006  11.497   4.529
    8SBC   C0F4 5596   4.796  11.661   4.531
    8SBC   C0FG 5597   4.640  11.333   4.495
    8SBC   O00B 5598   4.550  11.677   4.573
    8SBC   C0FN 5599   4.506  11.305   4.531
    8SBC   C0DZ 5600   4.720  11.133   4.610
    8SBC   O00C 5601   4.450  10.946   4.780
    8SBC   C0FR 5602   4.416  10.826   4.821
    8SBC   O00D 5603   4.296  10.805   4.856
    8SBC   C0E0 5604   4.815  10.940   4.711
    8SBC   C0E3 5605   4.527  10.735   4.832
    8SBC   C0AW 5606   4.505  10.599   4.868
    8SBC   C0AV 5607   4.390  10.526   4.874
    8SBC   H00Q 5608   4.292  10.566   4.854
    8SBC   C0AU 5609   4.373  10.394   4.926
    8SBC   H00R 5610   4.274  10.356   4.946
    8SBC   C0AT 5611   4.488  10.344   4.991
    8SBC   C0AS 5612   4.513  10.227   5.076
    8SBC   C0AR 5613   4.412  10.158   5.144
    8SBC   C0BE 5614   4.612  10.411   4.967
    8SBC   C0DN 5615   4.901  10.741   4.805
    8SBC   C0AX 5616   4.621  10.538   4.908
    8SBC   C0BB 5617   4.982  10.563   4.938
    8SBC   C0BD 5618   4.709  10.341   5.031
    8SBC   C0B2 5619   5.067  10.377   5.081
    8SBC   C0AH 5620   5.017  10.156   5.244
    8SBC   C0BF 5621   4.661  10.235   5.117
    8SBC   C0AL 5622   4.906   9.937   5.354
    8SBC   C07U 5623   4.558  10.019   5.312
    8SBC   C0AQ 5624   4.441  10.071   5.256
    8SBC   C0BG 5625   4.272  10.191   5.149
    8SBC   C0FY 5626   4.064  10.152   5.439
    8SBC   C0BJ 5627   4.220  10.331   5.182
    8SBC   H00S 5628   4.265  10.424   5.150
    8SBC   C0FZ 5629   4.034  10.278   5.488
    8SBC   C07S 5630   4.095  10.049   5.535
    8SBC   C0G1 5631   3.933  10.217   5.823
    8SBC   C07K 5632   4.034   9.908   5.995
    8SBC   C07H 5633   4.172   9.874   5.742
    8SBC   C06B 5634   4.193   9.533   5.850
    8SBC   C06N 5635   4.415   9.500   5.811
    8SBC   C066 5636   4.381   9.821   5.603
    8SBC   C062 5637   4.691   9.764   5.541
    8SBC   C05Y 5638   4.671   9.457   5.786
    8SBC   C061 5639   4.804   9.682   5.521
    8SBC   C05H 5640   5.003   9.495   5.753
    8SBC   C06V 5641   4.938   9.727   5.502
    8SBC   C06Y 5642   5.206   9.796   5.510
    8SBC   C05C 5643   5.272   9.528   5.753
    8SBC   C06Z 5644   5.438   9.795   5.568
    8SBC   C070 5645   5.659   9.671   5.687
    8SBC   C05B 5646   5.386   9.470   5.818
    8SBC   C057 5647   5.606   9.345   5.929
    8SBC   C059 5648   5.760   9.503   5.827
    9SBC   C058 5649  11.691   9.561   5.217
    9SBC   C05A 5650  11.673   9.696   5.192
    9SBC   C06Q 5651  11.604   9.781   5.286
    9SBC   C06R 5652  11.574   9.914   5.255
    9SBC   C06S 5653  11.610   9.967   5.131
    9SBC   C06T 5654  11.566  10.101   5.107
    9SBC   C06U 5655  11.571  10.176   4.981
    9SBC   C06X 5656  11.633  10.158   4.854
    9SBC   C060 5657  11.593  10.269   4.767
    9SBC   C05Z 5658  11.664  10.333   4.657
    9SBC   C068 5659  11.634  10.480   4.676
    9SBC   C067 5660  11.638  10.589   4.574
    9SBC   C069 5661  11.686  10.558   4.439
    9SBC   C06A 5662  11.657  10.638   4.320
    9SBC   C073 5663  11.547  10.729   4.288
    9SBC   C07P 5664  11.493  10.713   4.158
    9SBC   C07O 5665  11.496  10.597   4.079
    9SBC   H00D 5666  11.543  10.506   4.112
    9SBC   C07N 5667  11.432  10.592   3.958
    9SBC   H00E 5668  11.439  10.501   3.900
    9SBC   C07M 5669  11.367  10.708   3.908
    9SBC   H00F 5670  11.314  10.698   3.814
    9SBC   C07L 5671  11.357  10.824   3.987
    9SBC   C07Q 5672  11.289  10.943   3.951
    9SBC   H00G 5673  11.237  10.949   3.856
    9SBC   O00F 5674  11.285  11.060   4.019
    9SBC   C07J 5675  11.327  11.048   4.149
    9SBC   C07I 5676  11.403  10.935   4.192
    9SBC   N004 5677  11.456  10.935   4.327
    9SBC   C07R 5678  11.441  11.060   4.406
    9SBC   C07T 5679  11.351  11.159   4.358
    9SBC   C0FX 5680  11.310  11.261   4.443
    9SBC   C0FW 5681  11.203  11.346   4.423
    9SBC   C0G0 5682  11.139  11.330   4.299
    9SBC   C0G2 5683  11.022  11.404   4.274
    9SBC   H01E 5684  10.971  11.397   4.179
    9SBC   C0G3 5685  10.956  11.480   4.371
    9SBC   H01C 5686  10.866  11.538   4.355
    9SBC   C0G4 5687  11.028  11.491   4.494
    9SBC   H01D 5688  10.984  11.556   4.568
    9SBC   O00E 5689  11.192  11.249   4.202
    9SBC   C0FV 5690  11.152  11.429   4.526
    9SBC   C0FU 5691  11.220  11.424   4.654
    9SBC   H01B 5692  11.178  11.467   4.743
    9SBC   C0FT 5693  11.344  11.355   4.663
    9SBC   C0FS 5694  11.434  11.316   4.769
    9SBC   C0BI 5695  11.544  11.239   4.710
    9SBC   C0BH 5696  11.606  11.166   4.808
    9SBC   C07F 5697  11.597  11.023   4.815
    9SBC   C07E 5698  11.601  10.934   4.710
    9SBC   C07G 5699  11.566  10.955   4.577
    9SBC   C074 5700  11.558  10.834   4.519
    9SBC   C065 5701  11.602  10.795   4.727
    9SBC   C064 5702  11.566  10.747   4.861
    9SBC   C063 5703  11.544  10.618   4.894
    9SBC   C075 5704  11.496  10.631   5.037
    9SBC   C0AM 5705  11.478  10.770   5.078
    9SBC   C0AN 5706  11.422  10.826   5.203
    9SBC   C0AO 5707  11.361  10.758   5.325
    9SBC   C0B1 5708  11.299  10.830   5.433
    9SBC   C0B0 5709  11.304  10.964   5.442
    9SBC   C0AZ 5710  11.249  11.043   5.545
    9SBC   C0AY 5711  11.271  11.187   5.544
    9SBC   N007 5712  11.217  11.265   5.646
    9SBC   C0E2 5713  11.240  11.406   5.651
    9SBC   C0E1 5714  11.176  11.480   5.752
    9SBC   C0E4 5715  11.203  11.618   5.757
    9SBC   C0FF 5716  11.146  11.697   5.854
    9SBC   C0FJ 5717  11.170  11.836   5.895
    9SBC   C0FK 5718  11.295  11.906   5.911
    9SBC   H016 5719  11.392  11.888   5.867
    9SBC   C0FL 5720  11.272  11.999   6.027
    9SBC   H017 5721  11.340  12.060   6.084
    9SBC   C0FM 5722  11.127  11.994   6.059
    9SBC   C0FH 5723  11.022  12.011   6.167
    9SBC   C0FI 5724  10.926  11.911   6.136
    9SBC   C0F3 5725  10.871  11.847   6.242
    9SBC   C0F2 5726  10.833  11.716   6.215
    9SBC   C0DW 5727  10.870  11.638   6.109
    9SBC   C0FE 5728  10.951  11.697   6.012
    9SBC   C0DV 5729  10.866  11.504   6.112
    9SBC   C0DX 5730  10.935  11.430   6.021
    9SBC   C0DK 5731  10.925  11.290   6.024
    9SBC   C0DJ 5732  10.853  11.227   6.126
    9SBC   C0DI 5733  10.855  11.095   6.137
    9SBC   C0DH 5734  10.925  11.016   6.045
    9SBC   C0DG 5735  10.991  11.071   5.944
    9SBC   C0BV 5736  11.055  10.995   5.848
    9SBC   C0BC 5737  11.123  11.063   5.740
    9SBC   C0BA 5738  11.065  10.863   5.864
    9SBC   C0B4 5739  11.136  10.785   5.772
    9SBC   C0B3 5740  11.186  10.846   5.653
    9SBC   C0B5 5741  11.144  10.648   5.791
    9SBC   C0BU 5742  11.085  10.586   5.904
    9SBC   C0BT 5743  11.021  10.664   5.998
    9SBC   C0BS 5744  10.960  10.600   6.110
    9SBC   C0CC 5745  10.872  10.677   6.193
    9SBC   C0CB 5746  10.802  10.626   6.297
    9SBC   C0CH 5747  10.698  10.703   6.347
    9SBC   C0DO 5748  10.696  10.842   6.347
    9SBC   C0DP 5749  10.625  10.920   6.438
    9SBC   C0EA 5750  10.536  10.858   6.532
    9SBC   H012 5751  10.499  10.757   6.531
    9SBC   O009 5752  10.473  10.936   6.625
    9SBC   C0EH 5753  10.519  11.063   6.646
    9SBC   C0EG 5754  10.493  11.127   6.762
    9SBC   C0EJ 5755  10.421  11.096   6.880
    9SBC   H010 5756  10.374  11.000   6.897
    9SBC   C0EK 5757  10.439  11.199   6.983
    9SBC   H00Z 5758  10.409  11.202   7.086
    9SBC   C0EL 5759  10.516  11.300   6.915
    9SBC   C0EM 5760  10.558  11.431   6.953
    9SBC   C0EW 5761  10.553  11.496   7.081
    9SBC   H013 5762  10.534  11.432   7.166
    9SBC   C0EX 5763  10.591  11.635   7.100
    9SBC   H014 5764  10.598  11.683   7.196
    9SBC   C0F1 5765  10.637  11.711   6.981
    9SBC   C0EU 5766  10.645  11.646   6.852
    9SBC   C0ET 5767  10.696  11.696   6.736
    9SBC   C0ES 5768  10.687  11.586   6.650
    9SBC   C0EE 5769  10.640  11.473   6.712
    9SBC   C0ED 5770  10.603  11.336   6.690
    9SBC   C0EC 5771  10.635  11.267   6.568
    9SBC   C0EB 5772  10.691  11.328   6.456
    9SBC   C0EN 5773  10.697  11.472   6.438
    9SBC   C0ER 5774  10.751  11.517   6.317
    9SBC   C0DS 5775  10.737  11.251   6.345
    9SBC   C0DR 5776  10.731  11.114   6.349
    9SBC   C0EY 5777  10.689  11.597   6.511
    9SBC   C0EZ 5778  10.747  11.705   6.445
    9SBC   C0F5 5779  10.805  11.839   6.481
    9SBC   C0F6 5780  10.795  11.900   6.609
    9SBC   N008 5781  10.863  12.029   6.624
    9SBC   C0F7 5782  10.941  12.090   6.516
    9SBC   C0FQ 5783  11.015  12.209   6.549
    9SBC   H018 5784  11.072  12.247   6.465
    9SBC   C0FP 5785  10.992  12.285   6.667
    9SBC   H019 5786  11.030  12.380   6.701
    9SBC   C0FO 5787  10.905  12.225   6.757
    9SBC   H01A 5788  10.888  12.272   6.853
    9SBC   C0F8 5789  10.941  12.024   6.390
    9SBC   C0F9 5790  10.851  12.096   6.746
    9SBC   C0FA 5791  10.783  12.036   6.858
    9SBC   H015 5792  10.790  12.082   6.955
    9SBC   C0FB 5793  10.732  11.902   6.855
    9SBC   C0FD 5794  10.741  11.833   6.729
    9SBC   C0FC 5795  10.683  11.843   6.984
    9SBC   O00A 5796  10.695  11.911   7.086
    9SBC   C0EV 5797  10.608  11.511   6.842
    9SBC   C0EF 5798  10.542  11.258   6.784
    9SBC   C0EI 5799  10.604  11.130   6.554
    9SBC   C0DQ 5800  10.650  11.059   6.446
    9SBC   C0CE 5801  10.782  10.898   6.260
    9SBC   H00U 5802  10.622  10.659   6.410
    9SBC   C0CA 5803  10.839  10.492   6.348
    9SBC   C0C9 5804  10.929  10.415   6.260
    9SBC   C0C8 5805  10.987  10.294   6.324
    9SBC   C0C7 5806  11.036  10.171   6.266
    9SBC   C0C6 5807  11.079  10.074   6.359
    9SBC   C0C5 5808  11.112   9.932   6.374
    9SBC   C0CQ 5809  11.117   9.880   6.503
    9SBC   C0D1 5810  11.052   9.947   6.604
    9SBC   C0D8 5811  10.979   9.863   6.680
    9SBC   C0D7 5812  11.026   9.739   6.652
    9SBC   C0D6 5813  10.973   9.619   6.701
    9SBC   C0D5 5814  11.009   9.487   6.651
    9SBC   C0D4 5815  11.111   9.433   6.566
    9SBC   C0D3 5816  11.061   9.304   6.530
    9SBC   C0CX 5817  11.112   9.286   6.391
    9SBC   C0CW 5818  11.152   9.414   6.336
    9SBC   C0CV 5819  11.214   9.468   6.220
    9SBC   C0D2 5820  11.292   9.390   6.133
    9SBC   C09D 5821  11.327   9.257   6.151
    9SBC   C09C 5822  11.425   9.189   6.069
    9SBC   C09B 5823  11.470   9.057   6.078
    9SBC   C09A 5824  11.412   8.981   6.185
    9SBC   C099 5825  11.336   9.040   6.275
    9SBC   C098 5826  11.265   8.945   6.340
    9SBC   C08Y 5827  11.278   8.819   6.270
    9SBC   C08X 5828  11.195   8.702   6.275
    9SBC   C08W 5829  11.089   8.691   6.375
    9SBC   C08U 5830  11.035   8.795   6.466
    9SBC   C08V 5831  11.058   8.938   6.479
    9SBC   C0DC 5832  11.022   8.970   6.615
    9SBC   H00W 5833  11.047   9.065   6.661
    9SBC   C0DB 5834  10.978   8.854   6.685
    9SBC   H00X 5835  10.952   8.841   6.789
    9SBC   C08T 5836  10.967   8.753   6.583
    9SBC   C08S 5837  10.920   8.629   6.600
    9SBC   H00N 5838  10.860   8.600   6.685
    9SBC   C08R 5839  10.944   8.531   6.504
    9SBC   C08Q 5840  10.891   8.397   6.510
    9SBC   H00O 5841  10.824   8.377   6.592
    9SBC   C08P 5842  10.906   8.296   6.410
    9SBC   C08O 5843  10.846   8.167   6.415
    9SBC   H00P 5844  10.779   8.137   6.494
    9SBC   C08N 5845  10.866   8.074   6.304
    9SBC   C08M 5846  10.796   7.949   6.315
    9SBC   O008 5847  10.723   7.912   6.409
    9SBC   O007 5848  10.814   7.860   6.206
    9SBC   C08H 5849  10.895   7.893   6.102
    9SBC   C08G 5850  10.921   7.798   5.989
    9SBC   C03V 5851  10.861   7.671   5.966
    9SBC   H009 5852  10.787   7.628   6.032
    9SBC   C03U 5853  10.886   7.599   5.850
    9SBC   C03W 5854  10.830   7.467   5.813
    9SBC   H00A 5855  10.761   7.424   5.885
    9SBC   C03X 5856  10.867   7.407   5.700
    9SBC   H00B 5857  10.816   7.320   5.662
    9SBC   O005 5858  10.956   7.460   5.615
    9SBC   C03O 5859  10.999   7.587   5.640
    9SBC   C03N 5860  11.086   7.636   5.547
    9SBC   O000 5861  11.102   7.559   5.438
    9SBC   C019 5862  11.174   7.605   5.336
    9SBC   C018 5863  11.249   7.727   5.348
    9SBC   C017 5864  11.232   7.805   5.461
    9SBC   C016 5865  11.298   7.927   5.472
    9SBC   C015 5866  11.365   7.966   5.356
    9SBC   C014 5867  11.428   8.093   5.362
    9SBC   C013 5868  11.435   8.169   5.478
    9SBC   C012 5869  11.524   8.284   5.438
    9SBC   C011 5870  11.569   8.244   5.312
    9SBC   C010 5871  11.672   8.317   5.254
    9SBC   C00Z 5872  11.721   8.309   5.126
    9SBC   C00Y 5873  11.794   8.427   5.105
    9SBC   C01O 5874  11.775   8.510   5.218
    9SBC   C01P 5875  11.774   8.651   5.209
    9SBC   C02L 5876  11.730   8.717   5.321
    9SBC   C02K 5877  11.675   8.639   5.429
    9SBC   C01M 5878  11.645   8.501   5.417
    9SBC   C02J 5879  11.659   8.718   5.546
    9SBC   C02I 5880  11.606   8.674   5.665
    9SBC   C02H 5881  11.553   8.547   5.701
    9SBC   C01Q 5882  11.528   8.432   5.625
    9SBC   C02G 5883  11.456   8.342   5.707
    9SBC   C089 5884  11.448   8.396   5.836
    9SBC   C088 5885  11.345   8.352   5.913
    9SBC   C087 5886  11.296   8.240   5.833
    9SBC   C086 5887  11.197   8.148   5.873
    9SBC   C03S 5888  11.161   8.021   5.812
    9SBC   N006 5889  11.070   7.964   5.898
    9SBC   C08F 5890  11.047   8.045   6.003
    9SBC   C01J 5891  11.194   7.959   5.693
    9SBC   C03R 5892  11.133   7.832   5.685
    9SBC   C03Q 5893  11.036   7.777   5.777
    9SBC   C08E 5894  11.113   8.164   5.990
    9SBC   C08D 5895  11.097   8.263   6.087
    9SBC   C08K 5896  11.010   8.236   6.196
    9SBC   C08C 5897  11.167   8.387   6.093
    9SBC   C091 5898  11.130   8.483   6.189
    9SBC   C092 5899  11.047   8.457   6.301
    9SBC   C08B 5900  11.276   8.434   6.017
    9SBC   C090 5901  11.308   8.568   6.069
    9SBC   C094 5902  11.434   8.635   6.046
    9SBC   C095 5903  11.454   8.771   6.082
    9SBC   C09R 5904  11.528   8.841   5.989
    9SBC   C097 5905  11.548   8.758   5.882
    9SBC   C096 5906  11.500   8.632   5.922
    9SBC   C01I 5907  11.368   8.230   5.701
    9SBC   C08A 5908  11.508   8.524   5.832
    9SBC   C09L 5909  11.603   8.781   5.753
    9SBC   C09K 5910  11.650   8.898   5.684
    9SBC   C09J 5911  11.644   9.026   5.733
    9SBC   C09I 5912  11.631   9.137   5.651
    9SBC   C09O 5913  11.648   9.170   5.509
    9SBC   C09N 5914  11.691   9.079   5.411
    9SBC   C09M 5915  11.698   8.938   5.422
    9SBC   C06O 5916  11.725   9.140   5.286
    9SBC   C05M 5917  11.715   9.275   5.266
    9SBC   C06P 5918  11.665   9.361   5.360
    9SBC   C042 5919  11.756   9.335   5.142
    9SBC   C041 5920  11.793   9.253   5.040
    9SBC   C040 5921  11.826   9.311   4.915
    9SBC   C03Z 5922  11.860   9.233   4.806
    9SBC   C03Y 5923  11.846   9.097   4.820
    9SBC   C027 5924  11.870   9.016   4.711
    9SBC   C026 5925  11.863   8.880   4.721
    9SBC   C028 5926  11.868   8.799   4.604
    9SBC   C029 5927  11.874   8.857   4.480
    9SBC   C02B 5928  11.865   8.778   4.368
    9SBC   C02C 5929  11.856   8.833   4.244
    9SBC   C02X 5930  11.827   8.755   4.137
    9SBC   C03E 5931  11.820   8.814   4.016
    9SBC   C03G 5932  11.835   8.945   3.990
    9SBC   C04Q 5933  11.864   9.025   4.097
    9SBC   C04R 5934  11.867   9.161   4.082
    9SBC   C04S 5935  11.886   9.244   4.198
    9SBC   C04L 5936  11.887   9.188   4.328
    9SBC   C04M 5937  11.881   9.051   4.337
    9SBC   C04K 5938  11.891   9.265   4.442
    9SBC   C04F 5939  11.894   9.403   4.422
    9SBC   C04E 5940  11.898   9.457   4.295
    9SBC   C04D 5941  11.897   9.595   4.276
    9SBC   C050 5942  11.901   9.652   4.157
    9SBC   C051 5943  11.912   9.794   4.144
    9SBC   C05Q 5944  11.926   9.847   4.016
    9SBC   C05V 5945  11.939   9.985   4.008
    9SBC   N005 5946  11.974  10.040   3.885
    9SBC   C07V 5947  11.982   9.957   3.772
    9SBC   C082 5948  12.016  10.017   3.650
    9SBC   C081 5949  12.065  10.147   3.639
    9SBC   C07C 5950  12.042  10.231   3.745
    9SBC   C07B 5951  12.062  10.372   3.732
    9SBC   C080 5952  12.103  10.427   3.614
    9SBC   C07Z 5953  12.102  10.568   3.603
    9SBC   H00L 5954  12.135  10.602   3.506
    9SBC   C079 5955  12.061  10.655   3.703
    9SBC   C078 5956  12.014  10.594   3.819
    9SBC   C077 5957  11.951  10.665   3.916
    9SBC   C07X 5958  11.952  10.806   3.908
    9SBC   H00I 5959  11.922  10.868   3.991
    9SBC   C07Y 5960  12.004  10.876   3.796
    9SBC   H00H 5961  12.011  10.983   3.803
    9SBC   C076 5962  11.898  10.609   4.024
    9SBC   C06C 5963  11.801  10.680   4.105
    9SBC   H00C 5964  11.762  10.775   4.073
    9SBC   C06F 5965  11.921  10.475   4.051
    9SBC   C06E 5966  11.883  10.414   4.171
    9SBC   C06G 5967  11.880  10.281   4.199
    9SBC   C06H 5968  11.920  10.199   4.095
    9SBC   C06I 5969  11.963  10.256   3.977
    9SBC   C06L 5970  11.837  10.232   4.326
    9SBC   C06M 5971  11.780  10.315   4.430
    9SBC   C06K 5972  11.860  10.095   4.348
    9SBC   C05S 5973  11.890  10.016   4.238
    9SBC   C05U 5974  11.840  10.042   4.473
    9SBC   C05X 5975  11.792  10.121   4.583
    9SBC   C05G 5976  11.793  10.043   4.708
    9SBC   C05F 5977  11.833   9.912   4.713
    9SBC   C05E 5978  11.812   9.855   4.838
    9SBC   C048 5979  11.823   9.716   4.859
    9SBC   C056 5980  11.779   9.669   4.980
    9SBC   C045 5981  11.791   9.530   5.002
    9SBC   C047 5982  11.854   9.638   4.751
    9SBC   C049 5983  11.873   9.701   4.626
    9SBC   C04B 5984  11.886   9.618   4.518
    9SBC   C046 5985  11.862   9.504   4.771
    9SBC   C04H 5986  11.884   9.425   4.665
    9SBC   C05D 5987  11.746   9.942   4.919
    9SBC   C04A 5988  11.865   9.832   4.602
    9SBC   C05T 5989  11.873   9.904   4.487
    9SBC   C055 5990  11.888   9.820   4.379
    9SBC   C06D 5991  11.814  10.494   4.259
    9SBC   C07W 5992  11.970  10.393   3.956
    9SBC   C085 5993  12.052  10.792   3.695
    9SBC   H00M 5994  12.093  10.844   3.610
    9SBC   C084 5995  12.132  10.341   3.507
    9SBC   H00J 5996  12.172  10.383   3.416
    9SBC   C07A 5997  12.010  10.450   3.833
    9SBC   C083 5998  12.108  10.206   3.517
    9SBC   H00K 5999  12.124  10.151   3.425
    9SBC   O00K 6000  11.999   9.943   3.535
    9SBC   C0GO 6001  11.964   9.810   3.543
    9SBC   C0GN 6002  11.955   9.739   3.426
    9SBC   H01L 6003  11.955   9.790   3.331
    9SBC   C0GM 6004  11.912   9.599   3.433
    9SBC   C0GL 6005  11.881   9.536   3.317
    9SBC   H01M 6006  11.900   9.586   3.223
    9SBC   O00J 6007  11.844   9.404   3.312
    9SBC   C0GK 6008  11.847   9.334   3.438
    9SBC   H01N 6009  11.838   9.227   3.432
    9SBC   C05K 6010  11.862   9.404   3.562
    9SBC   C05J 6011  11.857   9.337   3.689
    9SBC   C04Y 6012  11.833   9.196   3.711
    9SBC   C04X 6013  11.833   9.136   3.837
    9SBC   O006 6014  11.803   9.109   3.612
    9SBC   C053 6015  11.774   8.976   3.623
    9SBC   C04O 6016  11.780   8.919   3.747
    9SBC   C03C 6017  11.751   8.782   3.776
    9SBC   C03B 6018  11.712   8.659   3.712
    9SBC   C054 6019  11.698   8.651   3.577
    9SBC   C0GR 6020  11.645   8.538   3.511
    9SBC   C03M 6021  11.610   8.403   3.554
    9SBC   C03I 6022  11.623   8.343   3.685
    9SBC   C03J 6023  11.580   8.209   3.707
    9SBC   N002 6024  11.579   8.144   3.838
    9SBC   C02U 6025  11.529   8.012   3.861
    9SBC   C02T 6026  11.520   7.955   3.991
    9SBC   C02Z 6027  11.480   7.828   4.009
    9SBC   N001 6028  11.457   7.778   4.142
    9SBC   C02R 6029  11.389   7.657   4.167
    9SBC   C032 6030  11.363   7.578   4.052
    9SBC   C031 6031  11.391   7.625   3.924
    9SBC   H007 6032  11.367   7.555   3.846
    9SBC   C033 6033  11.292   7.452   4.076
    9SBC   H003 6034  11.262   7.385   3.997
    9SBC   O004 6035  11.246   7.419   4.199
    9SBC   C034 6036  11.282   7.498   4.303
    9SBC   C035 6037  11.238   7.452   4.425
    9SBC   C036 6038  11.258   7.528   4.532
    9SBC   H005 6039  11.216   7.506   4.629
    9SBC   C037 6040  11.330   7.651   4.520
    9SBC   H006 6041  11.339   7.716   4.606
    9SBC   C00D 6042  11.392   7.687   4.402
    9SBC   C00C 6043  11.463   7.806   4.388
    9SBC   C00B 6044  11.528   7.882   4.500
    9SBC   C00A 6045  11.542   7.894   4.652
    9SBC   C009 6046  11.614   8.015   4.677
    9SBC   C008 6047  11.632   8.093   4.791
    9SBC   C007 6048  11.575   8.040   4.907
    9SBC   C006 6049  11.595   8.111   5.021
    9SBC   C005 6050  11.523   8.060   5.132
    9SBC   C004 6051  11.447   7.942   5.124
    9SBC   C003 6052  11.449   7.860   5.014
    9SBC   C002 6053  11.400   7.732   5.016
    9SBC   C01C 6054  11.323   7.693   5.124
    9SBC   C01B 6055  11.258   7.572   5.117
    9SBC   H000 6056  11.255   7.519   5.023
    9SBC   C001 6057  11.426   7.651   4.906
    9SBC   C000 6058  11.474   7.705   4.790
    9SBC   C01U 6059  11.528   7.595   4.711
    9SBC   H002 6060  11.568   7.597   4.611
    9SBC   C01T 6061  11.486   7.473   4.784
    9SBC   O002 6062  11.505   7.357   4.755
    9SBC   O001 6063  11.433   7.516   4.904
    9SBC   C01S 6064  11.507   7.913   4.902
    9SBC   C00N 6065  11.705   8.210   4.780
    9SBC   C00M 6066  11.737   8.264   4.658
    9SBC   C00J 6067  11.706   8.196   4.545
    9SBC   C00I 6068  11.717   8.242   4.418
    9SBC   C00H 6069  11.665   8.172   4.311
    9SBC   C00G 6070  11.613   8.047   4.324
    9SBC   C00F 6071  11.554   7.974   4.227
    9SBC   C01X 6072  11.669   8.229   4.186
    9SBC   C01W 6073  11.722   8.356   4.170
    9SBC   C01V 6074  11.774   8.428   4.280
    9SBC   C020 6075  11.809   8.560   4.266
    9SBC   C01Z 6076  11.714   8.412   4.041
    9SBC   C02Y 6077  11.751   8.543   4.042
    9SBC   C039 6078  11.753   8.605   3.916
    9SBC   C02W 6079  11.668   8.348   3.928
    9SBC   C01Y 6080  11.615   8.161   4.079
    9SBC   C00U 6081  11.767   8.372   4.404
    9SBC   C00S 6082  11.794   8.448   4.516
    9SBC   C00T 6083  11.835   8.582   4.500
    9SBC   C00R 6084  11.779   8.394   4.640
    9SBC   C00Q 6085  11.812   8.465   4.755
    9SBC   C00V 6086  11.841   8.600   4.743
    9SBC   C024 6087  11.840   8.684   4.856
    9SBC   C00X 6088  11.822   8.626   4.977
    9SBC   C00P 6089  11.788   8.409   4.876
    9SBC   C00O 6090  11.729   8.282   4.893
    9SBC   C00K 6091  11.646   8.075   4.555
    9SBC   N000 6092  11.502   7.837   4.779
    9SBC   C00L 6093  11.594   7.999   4.453
    9SBC   H004 6094  11.179   7.363   4.438
    9SBC   C02Q 6095  11.363   7.614   4.290
    9SBC   C00E 6096  11.500   7.853   4.259
    9SBC   C030 6097  11.441   7.752   3.902
    9SBC   O003 6098  11.449   7.802   3.769
    9SBC   C02S 6099  11.562   8.029   4.099
    9SBC   C038 6100  11.499   7.931   3.751
    9SBC   C03L 6101  11.510   7.991   3.625
    9SBC   H008 6102  11.472   7.940   3.538
    9SBC   C02V 6103  11.621   8.217   3.952
    9SBC   C03K 6104  11.541   8.126   3.604
    9SBC   C0BK 6105  11.534   8.186   3.478
    9SBC   H00T 6106  11.509   8.114   3.402
    9SBC   C03H 6107  11.673   8.407   3.800
    9SBC   C0BL 6108  11.559   8.322   3.447
    9SBC   C0GU 6109  11.541   8.372   3.313
    9SBC   H01O 6110  11.502   8.306   3.236
    9SBC   C0GT 6111  11.576   8.502   3.273
    9SBC   H01P 6112  11.574   8.539   3.172
    9SBC   C0GS 6113  11.627   8.582   3.374
    9SBC   C0GV 6114  11.660   8.721   3.362
    9SBC   C0GW 6115  11.667   8.811   3.247
    9SBC   H01Q 6116  11.631   8.781   3.149
    9SBC   C0GX 6117  11.709   8.936   3.270
    9SBC   H01R 6118  11.725   9.002   3.186
    9SBC   O00L 6119  11.749   8.987   3.390
    9SBC   C0GQ 6120  11.708   8.764   3.490
    9SBC   C03A 6121  11.716   8.548   3.795
    9SBC   C05L 6122  11.744   8.908   3.501
    9SBC   C04W 6123  11.890   9.409   3.807
    9SBC   C05I 6124  11.904   9.549   3.800
    9SBC   C05O 6125  11.913   9.613   3.675
    9SBC   C052 6126  11.912   9.626   3.913
    9SBC   C04V 6127  11.882   9.356   3.935
    9SBC   C04U 6128  11.889   9.437   4.052
    9SBC   N009 6129  11.896   9.538   3.557
    9SBC   C0GP 6130  11.945   9.748   3.667
    9SBC   C05W 6131  11.949   9.826   3.783
    9SBC   C07D 6132  11.991  10.180   3.864
    9SBC   C06J 6133  11.910  10.065   4.113
    9SBC   C05P 6134  11.928   9.765   3.904
    9SBC   C05R 6135  11.895   9.877   4.254
    9SBC   C04Z 6136  11.903   9.574   4.043
    9SBC   C04C 6137  11.893   9.679   4.389
    9SBC   C04G 6138  11.891   9.479   4.533
    9SBC   C04J 6139  11.892   9.205   4.569
    9SBC   C04T 6140  11.898   9.378   4.180
    9SBC   N003 6141  11.867   9.216   3.946
    9SBC   C04P 6142  11.810   9.002   3.861
    9SBC   C03D 6143  11.779   8.744   3.909
    9SBC   C021 6144  11.797   8.621   4.149
    9SBC   C03F 6145  11.874   8.966   4.231
    9SBC   C022 6146  11.848   8.639   4.376
    9SBC   C02A 6147  11.884   8.993   4.468
    9SBC   C023 6148  11.859   8.657   4.617
    9SBC   C025 6149  11.842   8.822   4.846
    9SBC   C02D 6150  11.823   8.902   4.955
    9SBC   C02E 6151  11.808   8.842   5.079
    9SBC   C02N 6152  11.774   8.921   5.191
    9SBC   C04N 6153  11.881   9.070   4.584
    9SBC   C02P 6154  11.820   9.041   4.944
    9SBC   C04I 6155  11.881   9.290   4.679
    9SBC   C044 6156  11.830   9.449   4.900
    9SBC   C043 6157  11.792   9.118   5.053
    9SBC   C05N 6158  11.769   9.060   5.178
    9SBC   C09U 6159  11.628   9.308   5.485
    9SBC   C09V 6160  11.562   9.399   5.575
    9SBC   C09X 6161  11.522   9.363   5.697
    9SBC   C09Y 6162  11.461   9.436   5.795
    9SBC   C0A1 6163  11.417   9.562   5.765
    9SBC   C0A2 6164  11.462   9.616   5.639
    9SBC   C0A4 6165  11.432   9.743   5.611
    9SBC   C071 6166  11.481   9.798   5.495
    9SBC   C0A5 6167  11.464   9.932   5.472
    9SBC   C0A9 6168  11.396  10.009   5.563
    9SBC   C0A8 6169  11.348   9.956   5.680
    9SBC   C0AP 6170  11.283  10.035   5.773
    9SBC   C0BY 6171  11.234   9.968   5.887
    9SBC   C0BX 6172  11.251   9.837   5.918
    9SBC   C0C2 6173  11.216   9.793   6.048
    9SBC   C0C3 6174  11.249   9.664   6.079
    9SBC   C0CT 6175  11.318   9.582   5.986
    9SBC   C0C1 6176  11.146   9.878   6.139
    9SBC   C0C0 6177  11.108  10.011   6.093
    9SBC   C0A7 6178  11.316   9.762   5.826
    9SBC   C0BZ 6179  11.159  10.050   5.973
    9SBC   C0BO 6180  11.137  10.185   5.946
    9SBC   C0BN 6181  11.190  10.249   5.832
    9SBC   C0BM 6182  11.171  10.383   5.820
    9SBC   C0B9 6183  11.230  10.441   5.714
    9SBC   C0B8 6184  11.293  10.363   5.614
    9SBC   C0AD 6185  11.310  10.225   5.633
    9SBC   C0AF 6186  11.330  10.421   5.496
    9SBC   C0AG 6187  11.320  10.557   5.473
    9SBC   C0B7 6188  11.262  10.632   5.571
    9SBC   C0AE 6189  11.392  10.334   5.406
    9SBC   C0AB 6190  11.409  10.197   5.422
    9SBC   C0AA 6191  11.471  10.117   5.326
    9SBC   C0AJ 6192  11.424  10.392   5.284
    9SBC   C0AK 6193  11.476  10.309   5.188
    9SBC   C06W 6194  11.496  10.386   5.083
    9SBC   C0AI 6195  11.418  10.527   5.255
    9SBC   C0BP 6196  11.065  10.248   6.048
    9SBC   C0BQ 6197  11.040  10.391   6.031
    9SBC   C0BW 6198  11.262  10.166   5.747
    9SBC   C0AC 6199  11.375  10.144   5.541
    9SBC   C0A6 6200  11.360   9.819   5.704
    9SBC   C0A3 6201  11.356   9.636   5.858
    9SBC   C09Z 6202  11.422   9.380   5.919
    9SBC   C09W 6203  11.533   9.536   5.545
    9SBC   C072 6204  11.576   9.589   5.423
    9SBC   C09H 6205  11.556   9.232   5.731
    9SBC   C09G 6206  11.534   9.184   5.857
    9SBC   C09P 6207  11.587   9.055   5.866
    9SBC   C02O 6208  11.667   8.863   5.547
    9SBC   C02M 6209  11.732   8.857   5.313
    9SBC   C02F 6210  11.815   8.704   5.089
    9SBC   C00W 6211  11.812   8.487   4.978
    9SBC   C01R 6212  11.679   8.229   5.017
    9SBC   C01N 6213  11.695   8.442   5.305
    9SBC   C01L 6214  11.565   8.410   5.498
    9SBC   C01H 6215  11.359   8.134   5.590
    9SBC   C01K 6216  11.507   8.136   5.254
    9SBC   C01E 6217  11.377   7.895   5.240
    9SBC   C01G 6218  11.282   8.009   5.588
    9SBC   C01D 6219  11.320   7.772   5.239
    9SBC   C01A 6220  11.172   7.531   5.217
    9SBC   H001 6221  11.104   7.448   5.205
    9SBC   C01F 6222  11.155   7.758   5.565
    9SBC   C03P 6223  10.973   7.659   5.754
    9SBC   C03T 6224  11.015   7.841   5.890
    9SBC   C08I 6225  10.959   8.018   6.100
    9SBC   C08J 6226  10.943   8.113   6.198
    9SBC   C08L 6227  10.988   8.329   6.301
    9SBC   C093 6228  11.031   8.560   6.397
    9SBC   C08Z 6229  11.215   8.595   6.182
    9SBC   C09T 6230  11.145   9.014   6.385
    9SBC   C09S 6231  11.388   8.841   6.180
    9SBC   C09Q 6232  11.538   8.984   5.979
    9SBC   C09F 6233  11.462   9.256   5.955
    9SBC   C09E 6234  11.270   9.164   6.252
    9SBC   C0A0 6235  11.347   9.450   6.018
    9SBC   C0CU 6236  11.199   9.606   6.199
    9SBC   C0CR 6237  11.154   9.699   6.298
    9SBC   C0CZ 6238  11.128   9.648   6.425
    9SBC   C0DA 6239  11.156   9.158   6.340
    9SBC   C0D9 6240  10.937   9.278   6.597
    9SBC   H00V 6241  10.869   9.196   6.578
    9SBC   C0CY 6242  11.134   9.503   6.444
    9SBC   C0DF 6243  10.908   9.393   6.682
    9SBC   C0DE 6244  10.817   9.457   6.768
    9SBC   C0GI 6245  10.732   9.409   6.865
    9SBC   H01K 6246  10.714   9.302   6.874
    9SBC   C0GJ 6247  10.670   9.501   6.943
    9SBC   H01J 6248  10.599   9.460   7.014
    9SBC   O00I 6249  10.675   9.640   6.930
    9SBC   C0GH 6250  10.772   9.692   6.844
    9SBC   C0GG 6251  10.780   9.833   6.834
    9SBC   O00G 6252  10.679   9.897   6.902
    9SBC   C0G8 6253  10.658  10.031   6.900
    9SBC   C0G9 6254  10.565  10.078   6.990
    9SBC   H01G 6255  10.517  10.007   7.056
    9SBC   C0GA 6256  10.526  10.212   6.987
    9SBC   H01H 6257  10.458  10.252   7.061
    9SBC   C0GB 6258  10.592  10.305   6.900
    9SBC   C0EP 6259  10.679  10.254   6.797
    9SBC   C0E8 6260  10.711  10.338   6.677
    9SBC   C0CK 6261  10.777  10.326   6.550
    9SBC   C0CL 6262  10.882  10.237   6.539
    9SBC   C0E9 6263  10.895  10.119   6.623
    9SBC   C0GE 6264  10.818  10.046   6.726
    9SBC   C0E7 6265  10.699  10.474   6.696
    9SBC   C0CJ 6266  10.754  10.551   6.590
    9SBC   C0E6 6267  10.774  10.681   6.609
    9SBC   H00Y 6268  10.845  10.726   6.541
    9SBC   C0EO 6269  10.720  10.740   6.727
    9SBC   H011 6270  10.745  10.844   6.745
    9SBC   C0G6 6271  10.644  10.667   6.825
    9SBC   C0G5 6272  10.564  10.720   6.936
    9SBC   H01F 6273  10.542  10.824   6.958
    9SBC   C0GD 6274  10.507  10.636   7.026
    9SBC   H01I 6275  10.455  10.692   7.102
    9SBC   O00H 6276  10.512  10.497   7.021
    9SBC   C0EQ 6277  10.638  10.526   6.812
    9SBC   C0GC 6278  10.583  10.449   6.911
    9SBC   C0G7 6279  10.717  10.113   6.797
    9SBC   C0DD 6280  10.851   9.599   6.771
    9SBC   C0GF 6281  10.863   9.911   6.754
    9SBC   C0CO 6282  11.011  10.076   6.577
    9SBC   C0D0 6283  11.092   9.749   6.521
    9SBC   C0C4 6284  11.133   9.836   6.268
    9SBC   C0CN 6285  11.076  10.145   6.477
    9SBC   C0CP 6286  11.041  10.136   6.135
    9SBC   C0CM 6287  11.000  10.262   6.464
    9SBC   C0CI 6288  10.788  10.453   6.484
    9SBC   C0CD 6289  10.862  10.820   6.173
    9SBC   C0BR 6290  10.974  10.464   6.133
    9SBC   C0CS 6291  11.100  10.453   5.918
    9SBC   C0B6 6292  11.212  10.577   5.691
    9SBC   C0CG 6293  11.005  10.800   5.977
    9SBC   C0CF 6294  10.933  10.881   6.071
    9SBC   C0E5 6295  10.786  11.036   6.246
    9SBC   C0DT 6296  10.790  11.307   6.225
    9SBC   C0DL 6297  10.997  11.214   5.930
    9SBC   C0DM 6298  11.067  11.276   5.826
    9SBC   C0DY 6299  11.023  11.491   5.929
    9SBC   C0DU 6300  10.798  11.439   6.210
    9SBC   C0F0 6301  10.771  11.653   6.317
    9SBC   C0F4 6302  10.865  11.904   6.372
    9SBC   C0FG 6303  10.969  11.838   6.022
    9SBC   O00B 6304  11.033  12.064   6.294
    9SBC   C0FN 6305  11.080  11.903   5.971
    9SBC   C0DZ 6306  11.044  11.631   5.932
    9SBC   O00C 6307  11.286  11.671   5.668
    9SBC   C0FR 6308  11.339  11.612   5.560
    9SBC   O00D 6309  11.395  11.683   5.477
    9SBC   C0E0 6310  11.088  11.416   5.836
    9SBC   C0E3 6311  11.321  11.469   5.557
    9SBC   C0AW 6312  11.378  11.391   5.456
    9SBC   C0AV 6313  11.470  11.431   5.349
    9SBC   H00Q 6314  11.508  11.531   5.330
    9SBC   C0AU 6315  11.521  11.340   5.253
    9SBC   H00R 6316  11.585  11.367   5.171
    9SBC   C0AT 6317  11.471  11.207   5.244
    9SBC   C0AS 6318  11.482  11.086   5.160
    9SBC   C0AR 6319  11.535  11.091   5.024
    9SBC   C0BE 6320  11.401  11.171   5.353
    9SBC   C0DN 6321  11.138  11.202   5.742
    9SBC   C0AX 6322  11.349  11.256   5.455
    9SBC   C0BB 6323  11.185  10.979   5.644
    9SBC   C0BD 6324  11.373  11.035   5.344
    9SBC   C0B2 6325  11.254  10.770   5.553
    9SBC   C0AH 6326  11.368  10.619   5.351
    9SBC   C0BF 6327  11.425  10.967   5.227
    9SBC   C0AL 6328  11.467  10.525   5.121
    9SBC   C07U 6329  11.537  10.841   4.966
    9SBC   C0AQ 6330  11.559  10.976   4.943
    9SBC   C0BG 6331  11.554  11.210   4.937
    9SBC   C0FY 6332  11.502  11.203   4.582
    9SBC   C0BJ 6333  11.445  11.304   4.906
    9SBC   H00S 6334  11.377  11.344   4.980
    9SBC   C0FZ 6335  11.383  11.268   4.557
    9SBC   C07S 6336  11.513  11.072   4.523
    9SBC   C0G1 6337  11.289  11.155   4.236
    9SBC   C07K 6338  11.421  10.820   4.112
    9SBC   C07H 6339  11.524  10.826   4.382
    9SBC   C06B 6340  11.755  10.611   4.218
    9SBC   C06N 6341  11.764  10.452   4.384
    9SBC   C066 6342  11.606  10.728   4.605
    9SBC   C062 6343  11.575  10.499   4.813
    9SBC   C05Y 6344  11.739  10.255   4.556
    9SBC   C061 6345  11.540  10.363   4.848
    9SBC   C05H 6346  11.734  10.062   4.836
    9SBC   C06V 6347  11.532  10.313   4.971
    9SBC   C06Y 6348  11.504  10.172   5.207
    9SBC   C05C 6349  11.684   9.886   5.040
    9SBC   C06Z 6350  11.501   9.984   5.350
    9SBC   C070 6351  11.552   9.721   5.399
    9SBC   C05B 6352  11.715   9.753   5.071
    9SBC   C057 6353  11.754   9.478   5.125
    9SBC   C059 6354  11.646   9.504   5.336
   10SBC   C058 6355   7.846   3.045   4.976
   10SBC   C05A 6356   7.932   2.986   5.066
   10SBC   C06Q 6357   7.952   3.039   5.190
   10SBC   C06R 6358   8.055   2.991   5.268
   10SBC   C06S 6359   8.135   2.878   5.231
   10SBC   C06T 6360   8.244   2.840   5.317
   10SBC   C06U 6361   8.334   2.726   5.309
   10SBC   C06X 6362   8.342   2.614   5.224
   10SBC   C060 6363   8.442   2.515   5.268
   10SBC   C05Z 6364   8.549   2.451   5.187
   10SBC   C068 6365   8.676   2.461   5.274
   10SBC   C067 6366   8.811   2.394   5.258
   10SBC   C069 6367   8.829   2.290   5.154
   10SBC   C06A 6368   8.949   2.218   5.126
   10SBC   C073 6369   9.083   2.238   5.143
   10SBC   C07P 6370   9.162   2.228   5.026
   10SBC   C07O 6371   9.115   2.235   4.894
   10SBC   H00D 6372   9.008   2.242   4.881
   10SBC   C07N 6373   9.205   2.219   4.793
   10SBC   H00E 6374   9.177   2.233   4.690
   10SBC   C07M 6375   9.338   2.182   4.822
   10SBC   H00F 6376   9.406   2.166   4.739
   10SBC   C07L 6377   9.389   2.174   4.950
   10SBC   C07Q 6378   9.523   2.143   4.991
   10SBC   H00G 6379   9.593   2.110   4.915
   10SBC   O00F 6380   9.568   2.133   5.115
   10SBC   C07J 6381   9.481   2.176   5.210
   10SBC   C07I 6382   9.345   2.209   5.185
   10SBC   N004 6383   9.257   2.236   5.293
   10SBC   C07R 6384   9.305   2.233   5.429
   10SBC   C07T 6385   9.446   2.216   5.447
   10SBC   C0FX 6386   9.507   2.254   5.562
   10SBC   C0FW 6387   9.645   2.273   5.583
   10SBC   C0G0 6388   9.726   2.232   5.472
   10SBC   C0G2 6389   9.866   2.245   5.476
   10SBC   H01E 6390   9.925   2.219   5.390
   10SBC   C0G3 6391   9.922   2.310   5.593
   10SBC   H01C 6392  10.027   2.330   5.602
   10SBC   C0G4 6393   9.837   2.357   5.698
   10SBC   H01D 6394   9.873   2.425   5.774
   10SBC   O00E 6395   9.669   2.184   5.359
   10SBC   C0FV 6396   9.700   2.335   5.692
   10SBC   C0FU 6397   9.606   2.386   5.788
   10SBC   H01B 6398   9.635   2.459   5.862
   10SBC   C0FT 6399   9.466   2.354   5.785
   10SBC   C0FS 6400   9.344   2.407   5.850
   10SBC   C0BI 6401   9.235   2.334   5.785
   10SBC   C0BH 6402   9.114   2.402   5.808
   10SBC   C07F 6403   9.037   2.463   5.708
   10SBC   C07E 6404   9.017   2.417   5.574
   10SBC   C07G 6405   9.103   2.331   5.503
   10SBC   C074 6406   9.044   2.327   5.376
   10SBC   C065 6407   8.915   2.463   5.491
   10SBC   C064 6408   8.839   2.566   5.556
   10SBC   C063 6409   8.725   2.616   5.504
   10SBC   C075 6410   8.684   2.722   5.606
   10SBC   C0AM 6411   8.782   2.738   5.712
   10SBC   C0AN 6412   8.778   2.827   5.835
   10SBC   C0AO 6413   8.678   2.934   5.879
   10SBC   C0B1 6414   8.695   3.016   6.000
   10SBC   C0B0 6415   8.810   3.002   6.079
   10SBC   C0AZ 6416   8.851   3.085   6.189
   10SBC   C0AY 6417   8.968   3.064   6.255
   10SBC   N007 6418   9.004   3.144   6.359
   10SBC   C0E2 6419   9.126   3.120   6.426
   10SBC   C0E1 6420   9.164   3.209   6.532
   10SBC   C0E4 6421   9.283   3.194   6.603
   10SBC   C0FF 6422   9.331   3.280   6.710
   10SBC   C0FJ 6423   9.460   3.301   6.776
   10SBC   C0FK 6424   9.587   3.257   6.726
   10SBC   H016 6425   9.599   3.191   6.642
   10SBC   C0FL 6426   9.678   3.346   6.793
   10SBC   H017 6427   9.784   3.356   6.775
   10SBC   C0FM 6428   9.617   3.430   6.890
   10SBC   C0FH 6429   9.608   3.571   6.926
   10SBC   C0FI 6430   9.470   3.591   6.940
   10SBC   C0F3 6431   9.413   3.718   6.925
   10SBC   C0F2 6432   9.282   3.714   6.895
   10SBC   C0DW 6433   9.214   3.612   6.837
   10SBC   C0FE 6434   9.277   3.492   6.828
   10SBC   C0DV 6435   9.096   3.625   6.766
   10SBC   C0DX 6436   9.047   3.522   6.683
   10SBC   C0DK 6437   8.933   3.549   6.605
   10SBC   C0DJ 6438   8.877   3.677   6.603
   10SBC   C0DI 6439   8.765   3.702   6.531
   10SBC   C0DH 6440   8.707   3.603   6.454
   10SBC   C0DG 6441   8.770   3.481   6.440
   10SBC   C0BV 6442   8.724   3.385   6.354
   10SBC   C0BC 6443   8.807   3.273   6.322
   10SBC   C0BA 6444   8.612   3.411   6.282
   10SBC   C0B4 6445   8.572   3.320   6.181
   10SBC   C0B3 6446   8.655   3.213   6.143
   10SBC   C0B5 6447   8.450   3.336   6.122
   10SBC   C0BU 6448   8.369   3.444   6.159
   10SBC   C0BT 6449   8.411   3.544   6.247
   10SBC   C0BS 6450   8.327   3.652   6.283
   10SBC   C0CC 6451   8.380   3.756   6.370
   10SBC   C0CB 6452   8.312   3.872   6.398
   10SBC   C0CH 6453   8.389   3.980   6.445
   10SBC   C0DO 6454   8.520   3.969   6.491
   10SBC   C0DP 6455   8.584   4.078   6.562
   10SBC   C0EA 6456   8.522   4.206   6.577
   10SBC   H012 6457   8.432   4.237   6.525
   10SBC   O009 6458   8.580   4.304   6.652
   10SBC   C0EH 6459   8.710   4.288   6.684
   10SBC   C0EG 6460   8.768   4.404   6.737
   10SBC   C0EJ 6461   8.726   4.537   6.771
   10SBC   H010 6462   8.626   4.576   6.762
   10SBC   C0EK 6463   8.843   4.611   6.822
   10SBC   H00Z 6464   8.850   4.715   6.849
   10SBC   C0EL 6465   8.948   4.517   6.824
   10SBC   C0EM 6466   9.083   4.520   6.867
   10SBC   C0EW 6467   9.161   4.637   6.900
   10SBC   H013 6468   9.113   4.733   6.887
   10SBC   C0EX 6469   9.295   4.624   6.954
   10SBC   H014 6470   9.347   4.712   6.988
   10SBC   C0F1 6471   9.359   4.493   6.958
   10SBC   C0EU 6472   9.284   4.383   6.916
   10SBC   C0ET 6473   9.330   4.253   6.889
   10SBC   C0ES 6474   9.219   4.182   6.832
   10SBC   C0EE 6475   9.108   4.270   6.815
   10SBC   C0ED 6476   8.972   4.268   6.774
   10SBC   C0EC 6477   8.902   4.152   6.727
   10SBC   C0EB 6478   8.954   4.022   6.729
   10SBC   C0EN 6479   9.078   3.989   6.797
   10SBC   C0ER 6480   9.095   3.851   6.827
   10SBC   C0DS 6481   8.886   3.916   6.671
   10SBC   C0DR 6482   8.767   3.931   6.610
   10SBC   C0EY 6483   9.199   4.051   6.834
   10SBC   C0EZ 6484   9.292   3.958   6.888
   10SBC   C0F5 6485   9.435   3.961   6.918
   10SBC   C0F6 6486   9.510   4.080   6.926
   10SBC   N008 6487   9.654   4.060   6.944
   10SBC   C0F7 6488   9.711   3.929   6.943
   10SBC   C0FQ 6489   9.853   3.930   6.925
   10SBC   H018 6490   9.902   3.842   6.888
   10SBC   C0FP 6491   9.936   4.033   6.952
   10SBC   H019 6492  10.043   4.025   6.955
   10SBC   C0FO 6493   9.874   4.155   6.984
   10SBC   H01A 6494   9.925   4.245   7.015
   10SBC   C0F8 6495   9.630   3.817   6.928
   10SBC   C0F9 6496   9.735   4.168   6.971
   10SBC   C0FA 6497   9.678   4.299   6.990
   10SBC   H015 6498   9.750   4.370   7.028
   10SBC   C0FB 6499   9.541   4.323   6.975
   10SBC   C0FD 6500   9.459   4.215   6.938
   10SBC   C0FC 6501   9.490   4.461   6.988
   10SBC   O00A 6502   9.571   4.549   7.017
   10SBC   C0EV 6503   9.155   4.395   6.864
   10SBC   C0EF 6504   8.896   4.394   6.776
   10SBC   C0EI 6505   8.777   4.166   6.674
   10SBC   C0DQ 6506   8.706   4.058   6.625
   10SBC   C0CE 6507   8.580   3.847   6.479
   10SBC   H00U 6508   8.334   4.073   6.458
   10SBC   C0CA 6509   8.166   3.862   6.388
   10SBC   C0C9 6510   8.111   3.767   6.292
   10SBC   C0C8 6511   7.966   3.777   6.265
   10SBC   C0C7 6512   7.896   3.752   6.140
   10SBC   C0C6 6513   7.757   3.770   6.152
   10SBC   C0C5 6514   7.641   3.800   6.068
   10SBC   C0CQ 6515   7.532   3.853   6.126
   10SBC   C0D1 6516   7.552   3.917   6.252
   10SBC   C0D8 6517   7.484   4.036   6.252
   10SBC   C0D7 6518   7.381   4.021   6.155
   10SBC   C0D6 6519   7.307   4.126   6.100
   10SBC   C0D5 6520   7.216   4.110   5.985
   10SBC   C0D4 6521   7.185   4.008   5.896
   10SBC   C0D3 6522   7.126   4.064   5.777
   10SBC   C0CX 6523   7.179   3.995   5.655
   10SBC   C0CW 6524   7.295   3.915   5.699
   10SBC   C0CV 6525   7.394   3.822   5.637
   10SBC   C0D2 6526   7.387   3.787   5.499
   10SBC   C09D 6527   7.311   3.845   5.396
   10SBC   C09C 6528   7.329   3.810   5.263
   10SBC   C09B 6529   7.252   3.859   5.155
   10SBC   C09A 6530   7.146   3.947   5.192
   10SBC   C099 6531   7.140   3.996   5.312
   10SBC   C098 6532   7.015   4.059   5.324
   10SBC   C08Y 6533   6.931   4.025   5.209
   10SBC   C08X 6534   6.788   4.030   5.180
   10SBC   C08W 6535   6.706   4.084   5.287
   10SBC   C08U 6536   6.738   4.109   5.423
   10SBC   C08V 6537   6.849   4.073   5.510
   10SBC   C0DC 6538   6.825   4.132   5.637
   10SBC   H00W 6539   6.893   4.114   5.719
   10SBC   C0DB 6540   6.703   4.212   5.635
   10SBC   H00X 6541   6.659   4.275   5.711
   10SBC   C08T 6542   6.650   4.185   5.502
   10SBC   C08S 6543   6.522   4.224   5.460
   10SBC   H00N 6544   6.456   4.283   5.522
   10SBC   C08R 6545   6.472   4.168   5.340
   10SBC   C08Q 6546   6.330   4.182   5.295
   10SBC   H00O 6547   6.273   4.255   5.349
   10SBC   C08P 6548   6.283   4.117   5.183
   10SBC   C08O 6549   6.146   4.123   5.145
   10SBC   H00P 6550   6.074   4.177   5.205
   10SBC   C08N 6551   6.101   4.048   5.033
   10SBC   C08M 6552   5.963   4.055   5.005
   10SBC   O008 6553   5.881   4.123   5.072
   10SBC   O007 6554   5.917   3.981   4.894
   10SBC   C08H 6555   5.997   3.904   4.820
   10SBC   C08G 6556   5.954   3.832   4.704
   10SBC   C03V 6557   5.826   3.815   4.651
   10SBC   H009 6558   5.741   3.865   4.696
   10SBC   C03U 6559   5.789   3.743   4.534
   10SBC   C03W 6560   5.658   3.735   4.479
   10SBC   H00A 6561   5.575   3.783   4.530
   10SBC   C03X 6562   5.638   3.674   4.361
   10SBC   H00B 6563   5.537   3.662   4.326
   10SBC   O005 6564   5.742   3.607   4.289
   10SBC   C03O 6565   5.870   3.621   4.345
   10SBC   C03N 6566   5.971   3.535   4.295
   10SBC   O000 6567   5.940   3.454   4.186
   10SBC   C019 6568   6.029   3.361   4.141
   10SBC   C018 6569   6.159   3.368   4.185
   10SBC   C017 6570   6.200   3.468   4.280
   10SBC   C016 6571   6.333   3.469   4.321
   10SBC   C015 6572   6.418   3.373   4.259
   10SBC   C014 6573   6.559   3.382   4.287
   10SBC   C013 6574   6.604   3.477   4.387
   10SBC   C012 6575   6.749   3.454   4.379
   10SBC   C011 6576   6.768   3.363   4.273
   10SBC   C010 6577   6.891   3.336   4.228
   10SBC   C00Z 6578   6.924   3.238   4.132
   10SBC   C00Y 6579   7.065   3.223   4.161
   10SBC   C01O 6580   7.113   3.309   4.258
   10SBC   C01P 6581   7.207   3.264   4.353
   10SBC   C02L 6582   7.212   3.324   4.474
   10SBC   C02K 6583   7.112   3.413   4.507
   10SBC   C01M 6584   6.988   3.433   4.431
   10SBC   C02J 6585   7.140   3.490   4.622
   10SBC   C02I 6586   7.074   3.606   4.663
   10SBC   C02H 6587   6.950   3.655   4.625
   10SBC   C01Q 6588   6.847   3.597   4.551
   10SBC   C02G 6589   6.733   3.669   4.570
   10SBC   C089 6590   6.766   3.785   4.650
   10SBC   C088 6591   6.648   3.819   4.723
   10SBC   C087 6592   6.544   3.733   4.661
   10SBC   C086 6593   6.406   3.749   4.694
   10SBC   C03S 6594   6.293   3.710   4.615
   10SBC   N006 6595   6.181   3.758   4.676
   10SBC   C08F 6596   6.217   3.821   4.785
   10SBC   C01J 6597   6.271   3.634   4.495
   10SBC   C03R 6598   6.135   3.622   4.451
   10SBC   C03Q 6599   6.027   3.687   4.513
   10SBC   C08E 6600   6.357   3.829   4.800
   10SBC   C08D 6601   6.412   3.908   4.904
   10SBC   C08K 6602   6.323   3.971   4.992
   10SBC   C08C 6603   6.551   3.928   4.926
   10SBC   C091 6604   6.594   3.994   5.042
   10SBC   C092 6605   6.506   4.037   5.145
   10SBC   C08B 6606   6.662   3.889   4.850
   10SBC   C090 6607   6.782   3.919   4.937
   10SBC   C094 6608   6.922   3.914   4.899
   10SBC   C095 6609   7.025   3.920   4.995
   10SBC   C09R 6610   7.130   3.837   4.957
   10SBC   C097 6611   7.095   3.776   4.833
   10SBC   C096 6612   6.968   3.825   4.803
   10SBC   C01I 6613   6.588   3.654   4.549
   10SBC   C08A 6614   6.899   3.763   4.701
   10SBC   C09L 6615   7.148   3.669   4.763
   10SBC   C09K 6616   7.257   3.578   4.791
   10SBC   C09J 6617   7.356   3.603   4.889
   10SBC   C09I 6618   7.444   3.502   4.935
   10SBC   C09O 6619   7.492   3.378   4.886
   10SBC   C09N 6620   7.461   3.324   4.756
   10SBC   C09M 6621   7.354   3.360   4.673
   10SBC   C06O 6622   7.549   3.219   4.714
   10SBC   C05M 6623   7.654   3.166   4.791
   10SBC   C06P 6624   7.673   3.213   4.927
   10SBC   C042 6625   7.731   3.051   4.760
   10SBC   C041 6626   7.717   2.994   4.636
   10SBC   C040 6627   7.778   2.875   4.600
   10SBC   C03Z 6628   7.754   2.814   4.477
   10SBC   C03Y 6629   7.649   2.855   4.400
   10SBC   C027 6630   7.611   2.781   4.291
   10SBC   C026 6631   7.500   2.819   4.216
   10SBC   C028 6632   7.456   2.745   4.108
   10SBC   C029 6633   7.523   2.630   4.075
   10SBC   C02B 6634   7.480   2.550   3.975
   10SBC   C02C 6635   7.542   2.427   3.945
   10SBC   C02X 6636   7.492   2.349   3.844
   10SBC   C03E 6637   7.567   2.231   3.811
   10SBC   C03G 6638   7.664   2.180   3.889
   10SBC   C04Q 6639   7.707   2.259   3.993
   10SBC   C04R 6640   7.813   2.210   4.071
   10SBC   C04S 6641   7.862   2.294   4.172
   10SBC   C04L 6642   7.793   2.413   4.199
   10SBC   C04M 6643   7.697   2.462   4.121
   10SBC   C04K 6644   7.839   2.490   4.305
   10SBC   C04F 6645   7.942   2.442   4.386
   10SBC   C04E 6646   8.000   2.320   4.362
   10SBC   C04D 6647   8.105   2.280   4.446
   10SBC   C050 6648   8.169   2.158   4.420
   10SBC   C051 6649   8.271   2.115   4.507
   10SBC   C05Q 6650   8.349   2.000   4.473
   10SBC   C05V 6651   8.450   1.961   4.559
   10SBC   N005 6652   8.528   1.849   4.513
   10SBC   C07V 6653   8.496   1.779   4.399
   10SBC   C082 6654   8.571   1.666   4.360
   10SBC   C081 6655   8.686   1.631   4.431
   10SBC   C07C 6656   8.708   1.697   4.553
   10SBC   C07B 6657   8.811   1.652   4.641
   10SBC   C080 6658   8.887   1.541   4.602
   10SBC   C07Z 6659   8.970   1.492   4.701
   10SBC   H00L 6660   9.017   1.395   4.695
   10SBC   C079 6661   9.001   1.555   4.819
   10SBC   C078 6662   8.937   1.675   4.846
   10SBC   C077 6663   8.971   1.754   4.954
   10SBC   C07X 6664   9.063   1.705   5.049
   10SBC   H00I 6665   9.097   1.752   5.140
   10SBC   C07Y 6666   9.116   1.578   5.034
   10SBC   H00H 6667   9.180   1.544   5.113
   10SBC   C076 6668   8.918   1.878   4.966
   10SBC   C06C 6669   8.986   1.977   5.038
   10SBC   H00C 6670   9.087   1.957   5.072
   10SBC   C06F 6671   8.805   1.912   4.898
   10SBC   C06E 6672   8.731   2.027   4.926
   10SBC   C06G 6673   8.621   2.068   4.862
   10SBC   C06H 6674   8.583   1.988   4.753
   10SBC   C06I 6675   8.658   1.875   4.712
   10SBC   C06L 6676   8.558   2.189   4.900
   10SBC   C06M 6677   8.602   2.273   5.009
   10SBC   C06K 6678   8.447   2.228   4.820
   10SBC   C05S 6679   8.409   2.151   4.708
   10SBC   C05U 6680   8.379   2.345   4.851
   10SBC   C05X 6681   8.407   2.420   4.974
   10SBC   C05G 6682   8.308   2.519   4.999
   10SBC   C05F 6683   8.217   2.550   4.898
   10SBC   C05E 6684   8.141   2.658   4.935
   10SBC   C048 6685   8.061   2.721   4.848
   10SBC   C056 6686   7.996   2.827   4.895
   10SBC   C045 6687   7.897   2.888   4.808
   10SBC   C047 6688   8.037   2.658   4.726
   10SBC   C049 6689   8.108   2.545   4.691
   10SBC   C04B 6690   8.075   2.469   4.584
   10SBC   C046 6691   7.942   2.709   4.644
   10SBC   C04H 6692   7.915   2.644   4.524
   10SBC   C05D 6693   8.179   2.703   5.059
   10SBC   C04A 6694   8.203   2.492   4.776
   10SBC   C05T 6695   8.276   2.382   4.758
   10SBC   C055 6696   8.250   2.309   4.644
   10SBC   C06D 6697   8.791   2.118   5.015
   10SBC   C07W 6698   8.765   1.835   4.791
   10SBC   C085 6699   9.083   1.505   4.919
   10SBC   H00M 6700   9.116   1.403   4.918
   10SBC   C084 6701   8.876   1.489   4.475
   10SBC   H00J 6702   8.940   1.404   4.453
   10SBC   C07A 6703   8.838   1.720   4.761
   10SBC   C083 6704   8.785   1.543   4.389
   10SBC   H00K 6705   8.780   1.500   4.290
   10SBC   O00K 6706   8.533   1.587   4.251
   10SBC   C0GO 6707   8.419   1.624   4.184
   10SBC   C0GN 6708   8.370   1.543   4.082
   10SBC   H01L 6709   8.428   1.455   4.057
   10SBC   C0GM 6710   8.253   1.574   4.012
   10SBC   C0GL 6711   8.213   1.490   3.914
   10SBC   H01M 6712   8.276   1.407   3.885
   10SBC   O00J 6713   8.101   1.508   3.841
   10SBC   C0GK 6714   8.027   1.622   3.869
   10SBC   H01N 6715   7.943   1.636   3.802
   10SBC   C05K 6716   8.067   1.715   3.969
   10SBC   C05J 6717   7.992   1.831   3.994
   10SBC   C04Y 6718   7.884   1.886   3.914
   10SBC   C04X 6719   7.822   2.007   3.943
   10SBC   O006 6720   7.847   1.821   3.796
   10SBC   C053 6721   7.731   1.856   3.726
   10SBC   C04O 6722   7.669   1.979   3.749
   10SBC   C03C 6723   7.551   2.026   3.685
   10SBC   C03B 6724   7.452   1.982   3.588
   10SBC   C054 6725   7.451   1.855   3.540
   10SBC   C0GR 6726   7.354   1.812   3.444
   10SBC   C03M 6727   7.219   1.861   3.401
   10SBC   C03I 6728   7.155   1.983   3.442
   10SBC   C03J 6729   7.022   2.003   3.401
   10SBC   N002 6730   6.950   2.119   3.448
   10SBC   C02U 6731   6.807   2.144   3.417
   10SBC   C02T 6732   6.732   2.255   3.458
   10SBC   C02Z 6733   6.596   2.272   3.427
   10SBC   N001 6734   6.528   2.391   3.466
   10SBC   C02R 6735   6.396   2.407   3.421
   10SBC   C032 6736   6.328   2.309   3.347
   10SBC   C031 6737   6.407   2.199   3.304
   10SBC   H007 6738   6.365   2.126   3.237
   10SBC   C033 6739   6.195   2.345   3.305
   10SBC   H003 6740   6.139   2.268   3.254
   10SBC   O004 6741   6.127   2.463   3.340
   10SBC   C034 6742   6.199   2.551   3.413
   10SBC   C035 6743   6.130   2.665   3.445
   10SBC   C036 6744   6.198   2.769   3.508
   10SBC   H005 6745   6.143   2.861   3.523
   10SBC   C037 6746   6.333   2.750   3.539
   10SBC   H006 6747   6.394   2.827   3.582
   10SBC   C00D 6748   6.391   2.623   3.532
   10SBC   C00C 6749   6.512   2.598   3.591
   10SBC   C00B 6750   6.576   2.694   3.691
   10SBC   C00A 6751   6.565   2.827   3.760
   10SBC   C009 6752   6.698   2.860   3.796
   10SBC   C008 6753   6.753   2.955   3.886
   10SBC   C007 6754   6.665   3.037   3.956
   10SBC   C006 6755   6.714   3.144   4.038
   10SBC   C005 6756   6.618   3.215   4.110
   10SBC   C004 6757   6.480   3.201   4.091
   10SBC   C003 6758   6.434   3.099   4.005
   10SBC   C002 6759   6.291   3.084   3.981
   10SBC   C01C 6760   6.206   3.180   4.029
   10SBC   C01B 6761   6.068   3.186   3.991
   10SBC   H000 6762   6.026   3.123   3.914
   10SBC   C001 6763   6.247   2.973   3.908
   10SBC   C000 6764   6.341   2.880   3.855
   10SBC   C01U 6765   6.251   2.779   3.806
   10SBC   H002 6766   6.274   2.688   3.754
   10SBC   C01T 6767   6.115   2.815   3.841
   10SBC   O002 6768   6.012   2.755   3.821
   10SBC   O001 6769   6.121   2.932   3.901
   10SBC   C01S 6770   6.525   3.008   3.943
   10SBC   C00N 6771   6.888   2.951   3.915
   10SBC   C00M 6772   6.971   2.847   3.876
   10SBC   C00J 6773   6.919   2.750   3.801
   10SBC   C00I 6774   6.986   2.635   3.767
   10SBC   C00H 6775   6.922   2.532   3.696
   10SBC   C00G 6776   6.789   2.544   3.669
   10SBC   C00F 6777   6.720   2.460   3.585
   10SBC   C01X 6778   6.994   2.431   3.639
   10SBC   C01W 6779   7.125   2.417   3.675
   10SBC   C01V 6780   7.185   2.511   3.762
   10SBC   C020 6781   7.315   2.496   3.812
   10SBC   C01Z 6782   7.194   2.306   3.633
   10SBC   C02Y 6783   7.321   2.301   3.684
   10SBC   C039 6784   7.396   2.186   3.644
   10SBC   C02W 6785   7.147   2.204   3.548
   10SBC   C01Y 6786   6.930   2.330   3.564
   10SBC   C00U 6787   7.116   2.624   3.798
   10SBC   C00S 6788   7.173   2.719   3.877
   10SBC   C00T 6789   7.296   2.700   3.939
   10SBC   C00R 6790   7.099   2.826   3.923
   10SBC   C00Q 6791   7.150   2.924   4.005
   10SBC   C00V 6792   7.273   2.898   4.071
   10SBC   C024 6793   7.320   2.976   4.168
   10SBC   C00X 6794   7.253   3.091   4.200
   10SBC   C00P 6795   7.072   3.029   4.044
   10SBC   C00O 6796   6.941   3.041   3.998
   10SBC   C00K 6797   6.787   2.758   3.765
   10SBC   N000 6798   6.480   2.899   3.855
   10SBC   C00L 6799   6.716   2.654   3.713
   10SBC   H004 6800   6.028   2.675   3.413
   10SBC   C02Q 6801   6.330   2.523   3.454
   10SBC   C00E 6802   6.588   2.487   3.547
   10SBC   C030 6803   6.535   2.178   3.343
   10SBC   O003 6804   6.602   2.069   3.303
   10SBC   C02S 6805   6.789   2.346   3.540
   10SBC   C038 6806   6.737   2.047   3.339
   10SBC   C03L 6807   6.811   1.937   3.296
   10SBC   H008 6808   6.762   1.864   3.233
   10SBC   C02V 6809   7.010   2.216   3.523
   10SBC   C03K 6810   6.951   1.919   3.321
   10SBC   C0BK 6811   7.026   1.808   3.277
   10SBC   H00T 6812   6.972   1.730   3.226
   10SBC   C03H 6813   7.215   2.090   3.512
   10SBC   C0BL 6814   7.155   1.768   3.315
   10SBC   C0GU 6815   7.210   1.641   3.275
   10SBC   H01O 6816   7.138   1.581   3.223
   10SBC   C0GT 6817   7.333   1.593   3.322
   10SBC   H01P 6818   7.371   1.494   3.304
   10SBC   C0GS 6819   7.405   1.687   3.402
   10SBC   C0GV 6820   7.536   1.659   3.463
   10SBC   C0GW 6821   7.628   1.548   3.450
   10SBC   H01Q 6822   7.614   1.466   3.382
   10SBC   C0GX 6823   7.736   1.547   3.528
   10SBC   H01R 6824   7.814   1.474   3.508
   10SBC   O00L 6825   7.761   1.647   3.622
   10SBC   C0GQ 6826   7.560   1.762   3.553
   10SBC   C03A 6827   7.347   2.076   3.575
   10SBC   C05L 6828   7.678   1.756   3.634
   10SBC   C04W 6829   8.042   1.916   4.094
   10SBC   C05I 6830   8.157   1.889   4.169
   10SBC   C05O 6831   8.228   1.779   4.149
   10SBC   C052 6832   8.204   1.974   4.277
   10SBC   C04V 6833   7.983   2.045   4.121
   10SBC   C04U 6834   8.027   2.130   4.225
   10SBC   N009 6835   8.185   1.692   4.046
   10SBC   C0GP 6836   8.346   1.743   4.215
   10SBC   C05W 6837   8.389   1.825   4.320
   10SBC   C07D 6838   8.630   1.805   4.595
   10SBC   C06J 6839   8.478   2.034   4.675
   10SBC   C05P 6840   8.318   1.938   4.355
   10SBC   C05R 6841   8.309   2.188   4.620
   10SBC   C04Z 6842   8.134   2.086   4.306
   10SBC   C04C 6843   8.146   2.352   4.556
   10SBC   C04G 6844   7.975   2.516   4.500
   10SBC   C04J 6845   7.780   2.618   4.332
   10SBC   C04T 6846   7.961   2.248   4.252
   10SBC   N003 6847   7.869   2.085   4.049
   10SBC   C04P 6848   7.719   2.055   3.860
   10SBC   C03D 6849   7.515   2.155   3.709
   10SBC   C021 6850   7.377   2.382   3.780
   10SBC   C03F 6851   7.649   2.381   4.020
   10SBC   C022 6852   7.368   2.586   3.905
   10SBC   C02A 6853   7.633   2.587   4.150
   10SBC   C023 6854   7.346   2.785   4.037
   10SBC   C025 6855   7.434   2.936   4.244
   10SBC   C02D 6856   7.468   3.006   4.363
   10SBC   C02E 6857   7.389   3.115   4.397
   10SBC   C02N 6858   7.409   3.185   4.515
   10SBC   C04N 6859   7.677   2.663   4.257
   10SBC   C02P 6860   7.577   2.969   4.439
   10SBC   C04I 6861   7.821   2.698   4.441
   10SBC   C044 6862   7.871   2.826   4.681
   10SBC   C043 6863   7.609   3.041   4.554
   10SBC   C05N 6864   7.522   3.151   4.593
   10SBC   C09U 6865   7.595   3.321   4.972
   10SBC   C09V 6866   7.619   3.373   5.104
   10SBC   C09X 6867   7.560   3.483   5.156
   10SBC   C09Y 6868   7.560   3.524   5.284
   10SBC   C0A1 6869   7.637   3.456   5.373
   10SBC   C0A2 6870   7.711   3.347   5.330
   10SBC   C0A4 6871   7.798   3.284   5.416
   10SBC   C071 6872   7.884   3.190   5.362
   10SBC   C0A5 6873   7.991   3.148   5.439
   10SBC   C0A9 6874   8.010   3.206   5.566
   10SBC   C0A8 6875   7.927   3.303   5.615
   10SBC   C0AP 6876   7.952   3.358   5.733
   10SBC   C0BY 6877   7.873   3.468   5.769
   10SBC   C0BX 6878   7.770   3.521   5.696
   10SBC   C0C2 6879   7.695   3.631   5.746
   10SBC   C0C3 6880   7.581   3.671   5.675
   10SBC   C0CT 6881   7.563   3.617   5.543
   10SBC   C0C1 6882   7.729   3.698   5.866
   10SBC   C0C0 6883   7.861   3.665   5.918
   10SBC   C0A7 6884   7.743   3.456   5.577
   10SBC   C0BZ 6885   7.913   3.544   5.877
   10SBC   C0BO 6886   8.035   3.513   5.939
   10SBC   C0BN 6887   8.098   3.391   5.928
   10SBC   C0BM 6888   8.211   3.370   5.999
   10SBC   C0B9 6889   8.290   3.266   5.955
   10SBC   C0B8 6890   8.252   3.190   5.845
   10SBC   C0AD 6891   8.136   3.220   5.771
   10SBC   C0AF 6892   8.346   3.096   5.794
   10SBC   C0AG 6893   8.467   3.069   5.863
   10SBC   C0B7 6894   8.498   3.145   5.973
   10SBC   C0AE 6895   8.314   3.041   5.674
   10SBC   C0AB 6896   8.208   3.075   5.598
   10SBC   C0AA 6897   8.182   3.013   5.474
   10SBC   C0AJ 6898   8.410   2.950   5.629
   10SBC   C0AK 6899   8.384   2.894   5.506
   10SBC   C06W 6900   8.472   2.797   5.492
   10SBC   C0AI 6901   8.526   2.906   5.690
   10SBC   C0BP 6902   8.053   3.609   6.042
   10SBC   C0BQ 6903   8.160   3.570   6.137
   10SBC   C0BW 6904   8.058   3.321   5.815
   10SBC   C0AC 6905   8.117   3.168   5.641
   10SBC   C0A6 6906   7.826   3.353   5.531
   10SBC   C0A3 6907   7.648   3.514   5.499
   10SBC   C09Z 6908   7.484   3.633   5.324
   10SBC   C09W 6909   7.703   3.306   5.192
   10SBC   C072 6910   7.780   3.200   5.146
   10SBC   C09H 6911   7.489   3.551   5.058
   10SBC   C09G 6912   7.426   3.663   5.096
   10SBC   C09P 6913   7.343   3.704   4.997
   10SBC   C02O 6914   7.259   3.472   4.698
   10SBC   C02M 6915   7.323   3.292   4.556
   10SBC   C02F 6916   7.287   3.161   4.314
   10SBC   C00W 6917   7.138   3.113   4.129
   10SBC   C01R 6918   6.854   3.144   4.049
   10SBC   C01N 6919   6.999   3.374   4.299
   10SBC   C01L 6920   6.862   3.491   4.465
   10SBC   C01H 6921   6.521   3.565   4.462
   10SBC   C01K 6922   6.651   3.313   4.213
   10SBC   C01E 6923   6.384   3.280   4.163
   10SBC   C01G 6924   6.376   3.558   4.430
   10SBC   C01D 6925   6.250   3.276   4.125
   10SBC   C01A 6926   5.980   3.278   4.045
   10SBC   H001 6927   5.874   3.287   4.026
   10SBC   C01F 6928   6.103   3.542   4.342
   10SBC   C03P 6929   5.898   3.688   4.461
   10SBC   C03T 6930   6.048   3.759   4.630
   10SBC   C08I 6931   6.133   3.893   4.861
   10SBC   C08J 6932   6.188   3.969   4.964
   10SBC   C08L 6933   6.371   4.041   5.105
   10SBC   C093 6934   6.565   4.093   5.260
   10SBC   C08Z 6935   6.732   3.976   5.059
   10SBC   C09T 6936   6.991   4.058   5.465
   10SBC   C09S 6937   7.031   3.972   5.120
   10SBC   C09Q 6938   7.246   3.800   5.029
   10SBC   C09F 6939   7.418   3.705   5.232
   10SBC   C09E 6940   7.205   3.939   5.418
   10SBC   C0A0 6941   7.472   3.676   5.456
   10SBC   C0CU 6942   7.494   3.766   5.725
   10SBC   C0CR 6943   7.510   3.804   5.859
   10SBC   C0CZ 6944   7.410   3.878   5.925
   10SBC   C0DA 6945   7.122   3.993   5.523
   10SBC   C0D9 6946   7.137   4.210   5.797
   10SBC   H00V 6947   7.130   4.282   5.717
   10SBC   C0CY 6948   7.298   3.931   5.845
   10SBC   C0DF 6949   7.193   4.234   5.929
   10SBC   C0DE 6950   7.260   4.336   6.011
   10SBC   C0GI 6951   7.243   4.480   6.019
   10SBC   H01K 6952   7.187   4.548   5.957
   10SBC   C0GJ 6953   7.299   4.535   6.130
   10SBC   H01J 6954   7.290   4.640   6.154
   10SBC   O00I 6955   7.370   4.469   6.228
   10SBC   C0GH 6956   7.384   4.336   6.222
   10SBC   C0GG 6957   7.476   4.282   6.321
   10SBC   O00G 6958   7.526   4.367   6.416
   10SBC   C0G8 6959   7.626   4.337   6.499
   10SBC   C0G9 6960   7.647   4.426   6.601
   10SBC   H01G 6961   7.577   4.509   6.607
   10SBC   C0GA 6962   7.744   4.407   6.690
   10SBC   H01H 6963   7.758   4.484   6.765
   10SBC   C0GB 6964   7.843   4.304   6.681
   10SBC   C0EP 6965   7.825   4.216   6.570
   10SBC   C0E8 6966   7.935   4.120   6.540
   10SBC   C0CK 6967   7.960   4.027   6.444
   10SBC   C0CL 6968   7.852   3.944   6.403
   10SBC   C0E9 6969   7.725   3.998   6.379
   10SBC   C0GE 6970   7.658   4.128   6.386
   10SBC   C0E7 6971   8.037   4.103   6.629
   10SBC   C0CJ 6972   8.134   4.009   6.599
   10SBC   C0E6 6973   8.236   3.979   6.684
   10SBC   H00Y 6974   8.308   3.902   6.666
   10SBC   C0EO 6975   8.256   4.069   6.791
   10SBC   H011 6976   8.346   4.069   6.851
   10SBC   C0G6 6977   8.158   4.174   6.824
   10SBC   C0G5 6978   8.169   4.269   6.936
   10SBC   H01F 6979   8.257   4.271   6.998
   10SBC   C0GD 6980   8.069   4.356   6.965
   10SBC   H01I 6981   8.062   4.415   7.055
   10SBC   O00H 6982   7.964   4.372   6.876
   10SBC   C0EQ 6983   8.044   4.190   6.740
   10SBC   C0GC 6984   7.950   4.288   6.769
   10SBC   C0G7 6985   7.710   4.224   6.482
   10SBC   C0DD 6986   7.313   4.265   6.124
   10SBC   C0GF 6987   7.529   4.151   6.324
   10SBC   C0CO 6988   7.663   3.893   6.320
   10SBC   C0D0 6989   7.435   3.921   6.062
   10SBC   C0C4 6990   7.628   3.771   5.932
   10SBC   C0CN 6991   7.737   3.780   6.297
   10SBC   C0CP 6992   7.949   3.708   6.026
   10SBC   C0CM 6993   7.860   3.807   6.358
   10SBC   C0CI 6994   8.092   3.961   6.466
   10SBC   C0CD 6995   8.515   3.746   6.409
   10SBC   C0BR 6996   8.196   3.665   6.235
   10SBC   C0CS 6997   8.243   3.460   6.101
   10SBC   C0B6 6998   8.414   3.245   6.019
   10SBC   C0CG 6999   8.533   3.528   6.309
   10SBC   C0CF 7000   8.583   3.625   6.394
   10SBC   C0E5 7001   8.703   3.827   6.544
   10SBC   C0DT 7002   8.936   3.783   6.676
   10SBC   C0DL 7003   8.884   3.454   6.518
   10SBC   C0DM 7004   8.961   3.339   6.497
   10SBC   C0DY 7005   9.124   3.407   6.663
   10SBC   C0DU 7006   9.037   3.750   6.752
   10SBC   C0F0 7007   9.225   3.837   6.884
   10SBC   C0F4 7008   9.492   3.831   6.930
   10SBC   C0FG 7009   9.395   3.475   6.903
   10SBC   O00B 7010   9.693   3.687   6.924
   10SBC   C0FN 7011   9.489   3.374   6.890
   10SBC   C0DZ 7012   9.245   3.392   6.736
   10SBC   O00C 7013   9.362   3.092   6.565
   10SBC   C0FR 7014   9.339   3.002   6.468
   10SBC   O00D 7015   9.427   2.912   6.464
   10SBC   C0E0 7016   9.080   3.318   6.568
   10SBC   C0E3 7017   9.211   3.012   6.394
   10SBC   C0AW 7018   9.173   2.923   6.291
   10SBC   C0AV 7019   9.241   2.806   6.252
   10SBC   H00Q 7020   9.330   2.764   6.296
   10SBC   C0AU 7021   9.189   2.722   6.144
   10SBC   H00R 7022   9.260   2.642   6.126
   10SBC   C0AT 7023   9.078   2.767   6.070
   10SBC   C0AS 7024   9.002   2.725   5.951
   10SBC   C0AR 7025   9.045   2.619   5.871
   10SBC   C0BE 7026   9.011   2.878   6.117
   10SBC   C0DN 7027   8.920   3.248   6.397
   10SBC   C0AX 7028   9.052   2.959   6.231
   10SBC   C0BB 7029   8.771   3.191   6.216
   10SBC   C0BD 7030   8.896   2.897   6.040
   10SBC   C0B2 7031   8.614   3.122   6.039
   10SBC   C0AH 7032   8.559   2.967   5.815
   10SBC   C0BF 7033   8.891   2.811   5.932
   10SBC   C0AL 7034   8.572   2.805   5.597
   10SBC   C07U 7035   8.870   2.636   5.675
   10SBC   C0AQ 7036   8.981   2.582   5.750
   10SBC   C0BG 7037   9.147   2.515   5.898
   10SBC   C0FY 7038   9.283   2.282   5.667
   10SBC   C0BJ 7039   9.289   2.528   5.906
   10SBC   H00S 7040   9.344   2.618   5.930
   10SBC   C0FZ 7041   9.421   2.286   5.672
   10SBC   C07S 7042   9.227   2.272   5.537
   10SBC   C0G1 7043   9.529   2.186   5.341
   10SBC   C07K 7044   9.299   2.202   5.051
   10SBC   C07H 7045   9.121   2.277   5.269
   10SBC   C06B 7046   8.915   2.092   5.066
   10SBC   C06N 7047   8.733   2.236   5.061
   10SBC   C066 7048   8.915   2.400   5.363
   10SBC   C062 7049   8.647   2.559   5.386
   10SBC   C05Y 7050   8.519   2.381   5.058
   10SBC   C061 7051   8.505   2.573   5.378
   10SBC   C05H 7052   8.279   2.615   5.099
   10SBC   C06V 7053   8.447   2.701   5.393
   10SBC   C06Y 7054   8.266   2.915   5.433
   10SBC   C05C 7055   8.104   2.824   5.107
   10SBC   C06Z 7056   8.077   3.055   5.391
   10SBC   C070 7057   7.871   3.149   5.233
   10SBC   C05B 7058   8.009   2.880   5.023
   10SBC   C057 7059   7.829   3.001   4.846
   10SBC   C059 7060   7.768   3.155   5.015
   11SBC   C058 7061   4.784   4.757  13.458
   11SBC   C05A 7062   4.672   4.738  13.542
   11SBC   C06Q 7063   4.557   4.801  13.512
   11SBC   C06R 7064   4.445   4.786  13.598
   11SBC   C06S 7065   4.441   4.700  13.707
   11SBC   C06T 7066   4.327   4.682  13.789
   11SBC   C06U 7067   4.287   4.588  13.895
   11SBC   C06X 7068   4.354   4.478  13.945
   11SBC   C060 7069   4.262   4.398  14.025
   11SBC   C05Z 7070   4.276   4.328  14.150
   11SBC   C068 7071   4.150   4.363  14.234
   11SBC   C067 7072   4.114   4.316  14.367
   11SBC   C069 7073   4.168   4.182  14.397
   11SBC   C06A 7074   4.128   4.091  14.505
   11SBC   C073 7075   4.073   4.110  14.634
   11SBC   C07P 7076   4.116   4.023  14.744
   11SBC   C07O 7077   4.241   3.953  14.756
   11SBC   H00D 7078   4.327   3.983  14.698
   11SBC   C07N 7079   4.259   3.843  14.840
   11SBC   H00E 7080   4.357   3.797  14.849
   11SBC   C07M 7081   4.149   3.792  14.907
   11SBC   H00F 7082   4.160   3.705  14.969
   11SBC   C07L 7083   4.031   3.862  14.909
   11SBC   C07Q 7084   3.915   3.834  14.991
   11SBC   H00G 7085   3.903   3.741  15.043
   11SBC   O00F 7086   3.797   3.910  14.992
   11SBC   C07J 7087   3.800   4.027  14.921
   11SBC   C07I 7088   3.909   4.066  14.842
   11SBC   N004 7089   3.899   4.191  14.775
   11SBC   C07R 7090   3.799   4.284  14.807
   11SBC   C07T 7091   3.698   4.242  14.892
   11SBC   C0FX 7092   3.586   4.318  14.918
   11SBC   C0FW 7093   3.463   4.277  14.972
   11SBC   C0G0 7094   3.456   4.141  15.017
   11SBC   C0G2 7095   3.337   4.092  15.075
   11SBC   H01E 7096   3.320   3.993  15.113
   11SBC   C0G3 7097   3.226   4.174  15.072
   11SBC   H01C 7098   3.136   4.129  15.111
   11SBC   C0G4 7099   3.233   4.299  15.023
   11SBC   H01D 7100   3.142   4.357  15.019
   11SBC   O00E 7101   3.569   4.056  14.998
   11SBC   C0FV 7102   3.347   4.356  14.966
   11SBC   C0FU 7103   3.361   4.482  14.909
   11SBC   H01B 7104   3.269   4.537  14.896
   11SBC   C0FT 7105   3.486   4.535  14.868
   11SBC   C0FS 7106   3.536   4.653  14.803
   11SBC   C0BI 7107   3.682   4.640  14.791
   11SBC   C0BH 7108   3.718   4.712  14.669
   11SBC   C07F 7109   3.781   4.648  14.561
   11SBC   C07E 7110   3.873   4.540  14.554
   11SBC   C07G 7111   3.885   4.441  14.649
   11SBC   C074 7112   3.959   4.340  14.587
   11SBC   C065 7113   3.939   4.510  14.436
   11SBC   C064 7114   3.911   4.589  14.318
   11SBC   C063 7115   3.969   4.572  14.195
   11SBC   C075 7116   3.894   4.670  14.111
   11SBC   C0AM 7117   3.791   4.749  14.187
   11SBC   C0AN 7118   3.697   4.855  14.134
   11SBC   C0AO 7119   3.694   4.929  14.006
   11SBC   C0B1 7120   3.578   5.006  13.966
   11SBC   C0B0 7121   3.465   5.015  14.038
   11SBC   C0AZ 7122   3.351   5.090  14.015
   11SBC   C0AY 7123   3.253   5.102  14.115
   11SBC   N007 7124   3.143   5.184  14.094
   11SBC   C0E2 7125   3.040   5.193  14.192
   11SBC   C0E1 7126   2.936   5.277  14.162
   11SBC   C0E4 7127   2.833   5.293  14.258
   11SBC   C0FF 7128   2.719   5.375  14.238
   11SBC   C0FJ 7129   2.616   5.419  14.330
   11SBC   C0FK 7130   2.627   5.426  14.472
   11SBC   H016 7131   2.704   5.380  14.532
   11SBC   C0FL 7132   2.528   5.527  14.505
   11SBC   H017 7133   2.508   5.568  14.603
   11SBC   C0FM 7134   2.467   5.579  14.388
   11SBC   C0FH 7135   2.406   5.699  14.334
   11SBC   C0FI 7136   2.438   5.682  14.194
   11SBC   C0F3 7137   2.479   5.795  14.115
   11SBC   C0F2 7138   2.565   5.771  14.013
   11SBC   C0DW 7139   2.640   5.654  13.998
   11SBC   C0FE 7140   2.624   5.550  14.086
   11SBC   C0DV 7141   2.750   5.653  13.917
   11SBC   C0DX 7142   2.840   5.547  13.927
   11SBC   C0DK 7143   2.952   5.548  13.844
   11SBC   C0DJ 7144   2.981   5.654  13.756
   11SBC   C0DI 7145   3.090   5.654  13.677
   11SBC   C0DH 7146   3.167   5.538  13.671
   11SBC   C0DG 7147   3.145   5.438  13.766
   11SBC   C0BV 7148   3.246   5.341  13.776
   11SBC   C0BC 7149   3.244   5.257  13.887
   11SBC   C0BA 7150   3.353   5.338  13.689
   11SBC   C0B4 7151   3.456   5.247  13.711
   11SBC   C0B3 7152   3.458   5.167  13.822
   11SBC   C0B5 7153   3.565   5.251  13.623
   11SBC   C0BU 7154   3.564   5.339  13.512
   11SBC   C0BT 7155   3.463   5.428  13.491
   11SBC   C0BS 7156   3.466   5.518  13.381
   11SBC   C0CC 7157   3.382   5.630  13.380
   11SBC   C0CB 7158   3.399   5.728  13.288
   11SBC   C0CH 7159   3.363   5.855  13.342
   11SBC   C0DO 7160   3.267   5.874  13.447
   11SBC   C0DP 7161   3.211   5.997  13.483
   11SBC   C0EA 7162   3.270   6.120  13.436
   11SBC   H012 7163   3.364   6.118  13.384
   11SBC   O009 7164   3.214   6.239  13.471
   11SBC   C0EH 7165   3.106   6.240  13.556
   11SBC   C0EG 7166   3.076   6.367  13.606
   11SBC   C0EJ 7167   3.130   6.498  13.591
   11SBC   H010 7168   3.215   6.526  13.530
   11SBC   C0EK 7169   3.050   6.588  13.672
   11SBC   H00Z 7170   3.067   6.694  13.682
   11SBC   C0EL 7171   2.961   6.502  13.738
   11SBC   C0EM 7172   2.866   6.523  13.839
   11SBC   C0EW 7173   2.828   6.648  13.894
   11SBC   H013 7174   2.871   6.743  13.866
   11SBC   C0EX 7175   2.718   6.670  13.985
   11SBC   H014 7176   2.689   6.767  14.021
   11SBC   C0F1 7177   2.646   6.555  14.037
   11SBC   C0EU 7178   2.686   6.432  13.989
   11SBC   C0ET 7179   2.636   6.303  14.014
   11SBC   C0ES 7180   2.706   6.212  13.928
   11SBC   C0EE 7181   2.806   6.285  13.856
   11SBC   C0ED 7182   2.905   6.259  13.753
   11SBC   C0EC 7183   2.939   6.132  13.700
   11SBC   C0EB 7184   2.877   6.009  13.733
   11SBC   C0EN 7185   2.756   6.003  13.809
   11SBC   C0ER 7186   2.706   5.875  13.842
   11SBC   C0DS 7187   2.937   5.885  13.703
   11SBC   C0DR 7188   3.049   5.881  13.621
   11SBC   C0EY 7189   2.660   6.089  13.881
   11SBC   C0EZ 7190   2.575   6.013  13.973
   11SBC   C0F5 7191   2.508   6.039  14.103
   11SBC   C0F6 7192   2.480   6.169  14.158
   11SBC   N008 7193   2.396   6.172  14.277
   11SBC   C0F7 7194   2.353   6.054  14.346
   11SBC   C0FQ 7195   2.282   6.074  14.464
   11SBC   H018 7196   2.243   5.984  14.511
   11SBC   C0FP 7197   2.231   6.192  14.513
   11SBC   H019 7198   2.156   6.201  14.590
   11SBC   C0FO 7199   2.277   6.304  14.448
   11SBC   H01A 7200   2.237   6.397  14.486
   11SBC   C0F8 7201   2.398   5.931  14.293
   11SBC   C0F9 7202   2.364   6.296  14.332
   11SBC   C0FA 7203   2.403   6.418  14.276
   11SBC   H015 7204   2.369   6.510  14.321
   11SBC   C0FB 7205   2.487   6.417  14.164
   11SBC   C0FD 7206   2.528   6.296  14.107
   11SBC   C0FC 7207   2.543   6.549  14.132
   11SBC   O00A 7208   2.510   6.651  14.190
   11SBC   C0EV 7209   2.795   6.417  13.901
   11SBC   C0EF 7210   2.979   6.369  13.701
   11SBC   C0EI 7211   3.046   6.122  13.606
   11SBC   C0DQ 7212   3.101   6.001  13.569
   11SBC   C0CE 7213   3.221   5.757  13.505
   11SBC   H00U 7214   3.390   5.945  13.289
   11SBC   C0CA 7215   3.457   5.701  13.161
   11SBC   C0C9 7216   3.544   5.583  13.154
   11SBC   C0C8 7217   3.601   5.553  13.026
   11SBC   C0C7 7218   3.714   5.470  12.986
   11SBC   C0C6 7219   3.740   5.465  12.845
   11SBC   C0C5 7220   3.855   5.440  12.754
   11SBC   C0CQ 7221   3.849   5.500  12.623
   11SBC   C0D1 7222   3.750   5.595  12.604
   11SBC   C0D8 7223   3.792   5.692  12.524
   11SBC   C0D7 7224   3.912   5.639  12.463
   11SBC   C0D6 7225   3.990   5.702  12.360
   11SBC   C0D5 7226   4.119   5.651  12.320
   11SBC   C0D4 7227   4.190   5.528  12.351
   11SBC   C0D3 7228   4.325   5.551  12.310
   11SBC   C0CX 7229   4.413   5.476  12.399
   11SBC   C0CW 7230   4.325   5.434  12.516
   11SBC   C0CV 7231   4.349   5.372  12.649
   11SBC   C0D2 7232   4.480   5.330  12.693
   11SBC   C09D 7233   4.606   5.364  12.634
   11SBC   C09C 7234   4.730   5.327  12.699
   11SBC   C09B 7235   4.861   5.349  12.651
   11SBC   C09A 7236   4.871   5.427  12.535
   11SBC   C099 7237   4.761   5.481  12.481
   11SBC   C098 7238   4.788   5.513  12.340
   11SBC   C08Y 7239   4.920   5.458  12.310
   11SBC   C08X 7240   4.986   5.432  12.182
   11SBC   C08W 7241   4.910   5.457  12.057
   11SBC   C08U 7242   4.776   5.494  12.037
   11SBC   C08V 7243   4.657   5.504  12.128
   11SBC   C0DC 7244   4.549   5.553  12.048
   11SBC   H00W 7245   4.452   5.570  12.092
   11SBC   C0DB 7246   4.595   5.580  11.915
   11SBC   H00X 7247   4.544   5.626  11.831
   11SBC   C08T 7248   4.728   5.544  11.912
   11SBC   C08S 7249   4.809   5.548  11.803
   11SBC   H00N 7250   4.771   5.581  11.708
   11SBC   C08R 7251   4.929   5.483  11.807
   11SBC   C08Q 7252   5.003   5.438  11.695
   11SBC   H00O 7253   4.965   5.467  11.598
   11SBC   C08P 7254   5.117   5.362  11.695
   11SBC   C08O 7255   5.179   5.318  11.570
   11SBC   H00P 7256   5.126   5.329  11.476
   11SBC   C08N 7257   5.283   5.218  11.578
   11SBC   C08M 7258   5.329   5.156  11.454
   11SBC   O008 7259   5.278   5.163  11.340
   11SBC   O007 7260   5.437   5.068  11.467
   11SBC   C08H 7261   5.491   5.033  11.586
   11SBC   C08G 7262   5.588   4.926  11.598
   11SBC   C03V 7263   5.639   4.847  11.499
   11SBC   H009 7264   5.592   4.855  11.402
   11SBC   C03U 7265   5.744   4.749  11.512
   11SBC   C03W 7266   5.802   4.666  11.407
   11SBC   H00A 7267   5.768   4.683  11.306
   11SBC   C03X 7268   5.900   4.576  11.444
   11SBC   H00B 7269   5.937   4.512  11.366
   11SBC   O005 7270   5.951   4.565  11.573
   11SBC   C03O 7271   5.890   4.640  11.668
   11SBC   C03N 7272   5.926   4.612  11.802
   11SBC   O000 7273   6.013   4.506  11.812
   11SBC   C019 7274   6.051   4.471  11.936
   11SBC   C018 7275   5.996   4.530  12.050
   11SBC   C017 7276   5.905   4.639  12.036
   11SBC   C016 7277   5.847   4.700  12.145
   11SBC   C015 7278   5.883   4.650  12.268
   11SBC   C014 7279   5.832   4.710  12.383
   11SBC   C013 7280   5.741   4.819  12.382
   11SBC   C012 7281   5.707   4.837  12.525
   11SBC   C011 7282   5.802   4.761  12.597
   11SBC   C010 7283   5.800   4.757  12.730
   11SBC   C00Z 7284   5.870   4.674  12.817
   11SBC   C00Y 7285   5.797   4.688  12.940
   11SBC   C01O 7286   5.694   4.779  12.931
   11SBC   C01P 7287   5.580   4.765  13.009
   11SBC   C02L 7288   5.469   4.833  12.963
   11SBC   C02K 7289   5.476   4.893  12.833
   11SBC   C01M 7290   5.585   4.878  12.735
   11SBC   C02J 7291   5.368   4.972  12.800
   11SBC   C02I 7292   5.356   5.066  12.695
   11SBC   C02H 7293   5.442   5.087  12.582
   11SBC   C01Q 7294   5.542   5.006  12.526
   11SBC   C02G 7295   5.577   5.056  12.394
   11SBC   C089 7296   5.485   5.166  12.376
   11SBC   C088 7297   5.441   5.172  12.241
   11SBC   C087 7298   5.533   5.068  12.174
   11SBC   C086 7299   5.557   5.065  12.031
   11SBC   C03S 7300   5.641   4.968  11.961
   11SBC   N006 7301   5.606   4.978  11.827
   11SBC   C08F 7302   5.511   5.076  11.813
   11SBC   C01J 7303   5.727   4.859  12.001
   11SBC   C03R 7304   5.783   4.790  11.887
   11SBC   C03Q 7305   5.746   4.809  11.753
   11SBC   C08E 7306   5.469   5.129  11.937
   11SBC   C08D 7307   5.354   5.213  11.942
   11SBC   C08K 7308   5.296   5.255  11.817
   11SBC   C08C 7309   5.286   5.266  12.058
   11SBC   C091 7310   5.172   5.349  12.044
   11SBC   C092 7311   5.105   5.376  11.924
   11SBC   C08B 7312   5.323   5.249  12.194
   11SBC   C090 7313   5.218   5.322  12.266
   11SBC   C094 7314   5.210   5.337  12.406
   11SBC   C095 7315   5.093   5.362  12.476
   11SBC   C09R 7316   5.095   5.311  12.604
   11SBC   C097 7317   5.210   5.240  12.623
   11SBC   C096 7318   5.284   5.259  12.506
   11SBC   C01I 7319   5.617   4.993  12.270
   11SBC   C08A 7320   5.402   5.182  12.490
   11SBC   C09L 7321   5.245   5.142  12.719
   11SBC   C09K 7322   5.180   5.085  12.830
   11SBC   C09J 7323   5.059   5.129  12.880
   11SBC   C09I 7324   4.980   5.055  12.972
   11SBC   C09O 7325   4.990   4.938  13.057
   11SBC   C09N 7326   5.118   4.879  13.086
   11SBC   C09M 7327   5.235   4.890  13.004
   11SBC   C06O 7328   5.120   4.791  13.195
   11SBC   C05M 7329   5.006   4.777  13.281
   11SBC   C06P 7330   4.887   4.843  13.254
   11SBC   C042 7331   5.012   4.699  13.397
   11SBC   C041 7332   5.124   4.615  13.418
   11SBC   C040 7333   5.123   4.525  13.524
   11SBC   C03Z 7334   5.231   4.439  13.545
   11SBC   C03Y 7335   5.348   4.453  13.466
   11SBC   C027 7336   5.452   4.361  13.478
   11SBC   C026 7337   5.565   4.375  13.400
   11SBC   C028 7338   5.666   4.284  13.405
   11SBC   C029 7339   5.650   4.170  13.484
   11SBC   C02B 7340   5.742   4.071  13.481
   11SBC   C02C 7341   5.721   3.960  13.561
   11SBC   C02X 7342   5.812   3.860  13.553
   11SBC   C03E 7343   5.796   3.752  13.639
   11SBC   C03G 7344   5.695   3.733  13.727
   11SBC   C04Q 7345   5.600   3.830  13.729
   11SBC   C04R 7346   5.492   3.819  13.812
   11SBC   C04S 7347   5.392   3.917  13.813
   11SBC   C04L 7348   5.404   4.030  13.726
   11SBC   C04M 7349   5.518   4.041  13.647
   11SBC   C04K 7350   5.307   4.125  13.726
   11SBC   C04F 7351   5.194   4.110  13.804
   11SBC   C04E 7352   5.182   4.000  13.887
   11SBC   C04D 7353   5.063   3.983  13.968
   11SBC   C050 7354   5.056   3.877  14.051
   11SBC   C051 7355   4.939   3.864  14.130
   11SBC   C05Q 7356   4.933   3.760  14.216
   11SBC   C05V 7357   4.811   3.744  14.287
   11SBC   N005 7358   4.795   3.634  14.369
   11SBC   C07V 7359   4.906   3.550  14.380
   11SBC   C082 7360   4.888   3.434  14.460
   11SBC   C081 7361   4.764   3.391  14.511
   11SBC   C07C 7362   4.654   3.475  14.486
   11SBC   C07B 7363   4.527   3.444  14.534
   11SBC   C080 7364   4.499   3.317  14.593
   11SBC   C07Z 7365   4.367   3.289  14.625
   11SBC   H00L 7366   4.359   3.194  14.675
   11SBC   C079 7367   4.260   3.375  14.619
   11SBC   C078 7368   4.288   3.502  14.570
   11SBC   C077 7369   4.189   3.599  14.568
   11SBC   C07X 7370   4.063   3.574  14.630
   11SBC   H00I 7371   3.997   3.655  14.656
   11SBC   C07Y 7372   4.030   3.447  14.677
   11SBC   H00H 7373   3.932   3.426  14.718
   11SBC   C076 7374   4.215   3.726  14.509
   11SBC   C06C 7375   4.114   3.834  14.519
   11SBC   H00C 7376   4.020   3.832  14.571
   11SBC   C06F 7377   4.342   3.750  14.448
   11SBC   C06E 7378   4.367   3.870  14.385
   11SBC   C06G 7379   4.476   3.899  14.319
   11SBC   C06H 7380   4.580   3.811  14.332
   11SBC   C06I 7381   4.563   3.689  14.402
   11SBC   C06L 7382   4.485   4.020  14.248
   11SBC   C06M 7383   4.378   4.119  14.250
   11SBC   C06K 7384   4.606   4.040  14.178
   11SBC   C05S 7385   4.713   3.946  14.197
   11SBC   C05U 7386   4.623   4.160  14.105
   11SBC   C05X 7387   4.512   4.250  14.090
   11SBC   C05G 7388   4.555   4.366  14.007
   11SBC   C05F 7389   4.679   4.373  13.946
   11SBC   C05E 7390   4.697   4.477  13.860
   11SBC   C048 7391   4.804   4.485  13.771
   11SBC   C056 7392   4.796   4.580  13.672
   11SBC   C045 7393   4.902   4.596  13.587
   11SBC   C047 7394   4.902   4.393  13.785
   11SBC   C049 7395   4.886   4.285  13.870
   11SBC   C04B 7396   4.983   4.186  13.877
   11SBC   C046 7397   5.013   4.410  13.699
   11SBC   C04H 7398   5.113   4.314  13.712
   11SBC   C05D 7399   4.577   4.543  13.846
   11SBC   C04A 7400   4.776   4.274  13.955
   11SBC   C05T 7401   4.749   4.164  14.035
   11SBC   C055 7402   4.848   4.063  14.036
   11SBC   C06D 7403   4.270   3.968  14.391
   11SBC   C07W 7404   4.441   3.655  14.457
   11SBC   C085 7405   4.133   3.352  14.680
   11SBC   H00M 7406   4.110   3.254  14.719
   11SBC   C084 7407   4.610   3.232  14.611
   11SBC   H00J 7408   4.583   3.135  14.649
   11SBC   C07A 7409   4.418   3.535  14.520
   11SBC   C083 7410   4.740   3.264  14.575
   11SBC   H00K 7411   4.821   3.195  14.597
   11SBC   O00K 7412   5.000   3.357  14.493
   11SBC   C0GO 7413   5.116   3.377  14.425
   11SBC   C0GN 7414   5.220   3.291  14.451
   11SBC   H01L 7415   5.216   3.221  14.533
   11SBC   C0GM 7416   5.343   3.306  14.374
   11SBC   C0GL 7417   5.442   3.218  14.395
   11SBC   H01M 7418   5.431   3.136  14.465
   11SBC   O00J 7419   5.552   3.211  14.308
   11SBC   C0GK 7420   5.565   3.310  14.217
   11SBC   H01N 7421   5.654   3.303  14.157
   11SBC   C05K 7422   5.466   3.401  14.194
   11SBC   C05J 7423   5.474   3.487  14.080
   11SBC   C04Y 7424   5.576   3.497  13.982
   11SBC   C04X 7425   5.584   3.605  13.892
   11SBC   O006 7426   5.681   3.406  13.976
   11SBC   C053 7427   5.783   3.411  13.883
   11SBC   C04O 7428   5.790   3.518  13.797
   11SBC   C03C 7429   5.891   3.535  13.698
   11SBC   C03B 7430   6.015   3.470  13.652
   11SBC   C054 7431   6.052   3.340  13.681
   11SBC   C0GR 7432   6.165   3.271  13.628
   11SBC   C03M 7433   6.256   3.297  13.511
   11SBC   C03I 7434   6.250   3.410  13.418
   11SBC   C03J 7435   6.339   3.411  13.307
   11SBC   N002 7436   6.357   3.526  13.219
   11SBC   C02U 7437   6.441   3.519  13.106
   11SBC   C02T 7438   6.445   3.628  13.014
   11SBC   C02Z 7439   6.525   3.622  12.904
   11SBC   N001 7440   6.527   3.728  12.811
   11SBC   C02R 7441   6.610   3.722  12.695
   11SBC   C032 7442   6.703   3.619  12.692
   11SBC   C031 7443   6.699   3.511  12.783
   11SBC   H007 7444   6.779   3.438  12.776
   11SBC   C033 7445   6.791   3.631  12.583
   11SBC   H003 7446   6.867   3.557  12.565
   11SBC   O004 7447   6.795   3.731  12.490
   11SBC   C034 7448   6.704   3.832  12.507
   11SBC   C035 7449   6.721   3.943  12.425
   11SBC   C036 7450   6.641   4.057  12.441
   11SBC   H005 7451   6.649   4.142  12.374
   11SBC   C037 7452   6.545   4.062  12.543
   11SBC   H006 7453   6.495   4.157  12.556
   11SBC   C00D 7454   6.525   3.943  12.628
   11SBC   C00C 7455   6.438   3.946  12.730
   11SBC   C00B 7456   6.341   4.055  12.752
   11SBC   C00A 7457   6.284   4.183  12.688
   11SBC   C009 7458   6.213   4.244  12.800
   11SBC   C008 7459   6.117   4.348  12.802
   11SBC   C007 7460   6.079   4.395  12.676
   11SBC   C006 7461   5.990   4.509  12.672
   11SBC   C005 7462   5.961   4.559  12.536
   11SBC   C004 7463   6.014   4.498  12.419
   11SBC   C003 7464   6.097   4.386  12.431
   11SBC   C002 7465   6.145   4.326  12.314
   11SBC   C01C 7466   6.116   4.377  12.190
   11SBC   C01B 7467   6.175   4.328  12.072
   11SBC   H000 7468   6.257   4.259  12.068
   11SBC   C001 7469   6.207   4.204  12.329
   11SBC   C000 7470   6.228   4.146  12.459
   11SBC   C01U 7471   6.283   4.016  12.428
   11SBC   H002 7472   6.319   3.938  12.492
   11SBC   C01T 7473   6.298   4.012  12.280
   11SBC   O002 7474   6.348   3.922  12.214
   11SBC   O001 7475   6.244   4.122  12.227
   11SBC   C01S 7476   6.127   4.331  12.559
   11SBC   C00N 7477   6.057   4.380  12.922
   11SBC   C00M 7478   6.074   4.299  13.034
   11SBC   C00J 7479   6.157   4.189  13.034
   11SBC   C00I 7480   6.149   4.082  13.117
   11SBC   C00H 7481   6.218   3.968  13.093
   11SBC   C00G 7482   6.289   3.950  12.978
   11SBC   C00F 7483   6.368   3.839  12.948
   11SBC   C01X 7484   6.210   3.858  13.176
   11SBC   C01W 7485   6.121   3.864  13.280
   11SBC   C01V 7486   6.040   3.979  13.299
   11SBC   C020 7487   5.938   3.977  13.386
   11SBC   C01Z 7488   6.110   3.753  13.362
   11SBC   C02Y 7489   6.005   3.756  13.445
   11SBC   C039 7490   5.990   3.652  13.526
   11SBC   C02W 7491   6.188   3.639  13.352
   11SBC   C01Y 7492   6.288   3.748  13.154
   11SBC   C00U 7493   6.054   4.085  13.217
   11SBC   C00S 7494   5.970   4.196  13.227
   11SBC   C00T 7495   5.872   4.194  13.321
   11SBC   C00R 7496   5.986   4.306  13.138
   11SBC   C00Q 7497   5.894   4.408  13.144
   11SBC   C00V 7498   5.786   4.401  13.233
   11SBC   C024 7499   5.685   4.492  13.221
   11SBC   C00X 7500   5.688   4.590  13.129
   11SBC   C00P 7501   5.895   4.498  13.038
   11SBC   C00O 7502   5.971   4.484  12.922
   11SBC   C00K 7503   6.220   4.165  12.913
   11SBC   N000 7504   6.208   4.212  12.573
   11SBC   C00L 7505   6.287   4.051  12.884
   11SBC   H004 7506   6.795   3.935  12.347
   11SBC   C02Q 7507   6.603   3.828  12.609
   11SBC   C00E 7508   6.435   3.838  12.825
   11SBC   C030 7509   6.610   3.513  12.892
   11SBC   O003 7510   6.615   3.412  12.987
   11SBC   C02S 7511   6.364   3.733  13.035
   11SBC   C038 7512   6.524   3.411  13.086
   11SBC   C03L 7513   6.509   3.300  13.168
   11SBC   H008 7514   6.573   3.216  13.146
   11SBC   C02V 7515   6.280   3.641  13.244
   11SBC   C03K 7516   6.425   3.307  13.284
   11SBC   C0BK 7517   6.421   3.204  13.377
   11SBC   H00T 7518   6.483   3.120  13.351
   11SBC   C03H 7519   6.167   3.525  13.432
   11SBC   C0BL 7520   6.344   3.188  13.493
   11SBC   C0GU 7521   6.348   3.079  13.585
   11SBC   H01O 7522   6.419   3.000  13.563
   11SBC   C0GT 7523   6.269   3.059  13.694
   11SBC   H01P 7524   6.277   2.977  13.764
   11SBC   C0GS 7525   6.175   3.154  13.714
   11SBC   C0GV 7526   6.072   3.159  13.813
   11SBC   C0GW 7527   6.038   3.068  13.920
   11SBC   H01Q 7528   6.089   2.976  13.940
   11SBC   C0GX 7529   5.940   3.100  14.001
   11SBC   H01R 7530   5.907   3.026  14.072
   11SBC   O00L 7531   5.855   3.211  13.986
   11SBC   C0GQ 7532   5.993   3.273  13.797
   11SBC   C03A 7533   6.060   3.534  13.533
   11SBC   C05L 7534   5.882   3.302  13.887
   11SBC   C04W 7535   5.369   3.583  14.068
   11SBC   C05I 7536   5.260   3.589  14.162
   11SBC   C05O 7537   5.246   3.492  14.253
   11SBC   C052 7538   5.156   3.684  14.151
   11SBC   C04V 7539   5.370   3.687  13.972
   11SBC   C04U 7540   5.275   3.791  13.974
   11SBC   N009 7541   5.351   3.409  14.274
   11SBC   C0GP 7542   5.131   3.484  14.335
   11SBC   C05W 7543   5.030   3.578  14.318
   11SBC   C07D 7544   4.666   3.602  14.424
   11SBC   C06J 7545   4.697   3.835  14.271
   11SBC   C05P 7546   5.041   3.676  14.230
   11SBC   C05R 7547   4.836   3.957  14.124
   11SBC   C04Z 7548   5.166   3.785  14.062
   11SBC   C04C 7549   4.964   4.079  13.962
   11SBC   C04G 7550   5.099   4.206  13.800
   11SBC   C04J 7551   5.318   4.233  13.641
   11SBC   C04T 7552   5.285   3.903  13.893
   11SBC   N003 7553   5.483   3.703  13.890
   11SBC   C04P 7554   5.689   3.618  13.803
   11SBC   C03D 7555   5.889   3.650  13.623
   11SBC   C021 7556   5.918   3.862  13.459
   11SBC   C03F 7557   5.611   3.940  13.647
   11SBC   C022 7558   5.849   4.084  13.395
   11SBC   C02A 7559   5.536   4.159  13.566
   11SBC   C023 7560   5.774   4.291  13.320
   11SBC   C025 7561   5.573   4.483  13.307
   11SBC   C02D 7562   5.464   4.571  13.291
   11SBC   C02E 7563   5.468   4.665  13.187
   11SBC   C02N 7564   5.354   4.733  13.147
   11SBC   C04N 7565   5.435   4.251  13.566
   11SBC   C02P 7566   5.351   4.549  13.367
   11SBC   C04I 7567   5.222   4.331  13.636
   11SBC   C044 7568   5.011   4.512  13.604
   11SBC   C043 7569   5.235   4.622  13.332
   11SBC   C05N 7570   5.237   4.719  13.225
   11SBC   C09U 7571   4.878   4.925  13.145
   11SBC   C09V 7572   4.750   4.980  13.116
   11SBC   C09X 7573   4.728   5.053  13.007
   11SBC   C09Y 7574   4.612   5.112  12.962
   11SBC   C0A1 7575   4.504   5.101  13.043
   11SBC   C0A2 7576   4.519   5.022  13.159
   11SBC   C0A4 7577   4.415   5.014  13.247
   11SBC   C071 7578   4.435   4.946  13.365
   11SBC   C0A5 7579   4.328   4.943  13.455
   11SBC   C0A9 7580   4.215   5.017  13.432
   11SBC   C0A8 7581   4.200   5.084  13.316
   11SBC   C0AP 7582   4.093   5.165  13.297
   11SBC   C0BY 7583   4.080   5.230  13.174
   11SBC   C0BX 7584   4.171   5.227  13.073
   11SBC   C0C2 7585   4.147   5.291  12.956
   11SBC   C0C3 7586   4.248   5.299  12.860
   11SBC   C0CT 7587   4.368   5.238  12.893
   11SBC   C0C1 7588   4.025   5.358  12.924
   11SBC   C0C0 7589   3.937   5.379  13.037
   11SBC   C0A7 7590   4.286   5.158  13.103
   11SBC   C0BZ 7591   3.975   5.317  13.160
   11SBC   C0BO 7592   3.880   5.326  13.257
   11SBC   C0BN 7593   3.886   5.249  13.372
   11SBC   C0BM 7594   3.780   5.262  13.456
   11SBC   C0B9 7595   3.786   5.183  13.572
   11SBC   C0B8 7596   3.896   5.106  13.593
   11SBC   C0AD 7597   4.007   5.103  13.509
   11SBC   C0AF 7598   3.908   5.038  13.713
   11SBC   C0AG 7599   3.800   5.031  13.804
   11SBC   C0B7 7600   3.677   5.093  13.768
   11SBC   C0AE 7601   4.013   4.953  13.727
   11SBC   C0AB 7602   4.123   4.942  13.641
   11SBC   C0AA 7603   4.225   4.854  13.655
   11SBC   C0AJ 7604   4.011   4.862  13.832
   11SBC   C0AK 7605   4.110   4.769  13.847
   11SBC   C06W 7606   4.073   4.687  13.947
   11SBC   C0AI 7607   3.901   4.844  13.922
   11SBC   C0BP 7608   3.777   5.402  13.211
   11SBC   C0BQ 7609   3.664   5.414  13.303
   11SBC   C0BW 7610   3.997   5.175  13.395
   11SBC   C0AC 7611   4.118   5.024  13.531
   11SBC   C0A6 7612   4.302   5.084  13.224
   11SBC   C0A3 7613   4.383   5.163  13.010
   11SBC   C09Z 7614   4.602   5.204  12.855
   11SBC   C09W 7615   4.637   4.958  13.196
   11SBC   C072 7616   4.652   4.887  13.310
   11SBC   C09H 7617   4.849   5.099  12.949
   11SBC   C09G 7618   4.838   5.192  12.853
   11SBC   C09P 7619   4.965   5.208  12.807
   11SBC   C02O 7620   5.253   4.979  12.884
   11SBC   C02M 7621   5.351   4.817  13.036
   11SBC   C02F 7622   5.580   4.677  13.114
   11SBC   C00W 7623   5.799   4.591  13.041
   11SBC   C01R 7624   5.948   4.556  12.803
   11SBC   C01N 7625   5.694   4.817  12.797
   11SBC   C01L 7626   5.601   4.902  12.594
   11SBC   C01H 7627   5.702   4.877  12.254
   11SBC   C01K 7628   5.870   4.671  12.517
   11SBC   C01E 7629   5.975   4.543  12.287
   11SBC   C01G 7630   5.754   4.814  12.132
   11SBC   C01D 7631   6.030   4.484  12.174
   11SBC   C01A 7632   6.142   4.369  11.942
   11SBC   H001 7633   6.189   4.327  11.854
   11SBC   C01F 7634   5.873   4.682  11.910
   11SBC   C03P 7635   5.790   4.733  11.639
   11SBC   C03T 7636   5.649   4.904  11.719
   11SBC   C08I 7637   5.451   5.107  11.696
   11SBC   C08J 7638   5.348   5.198  11.699
   11SBC   C08L 7639   5.179   5.334  11.812
   11SBC   C093 7640   4.978   5.440  11.932
   11SBC   C08Z 7641   5.119   5.377  12.175
   11SBC   C09T 7642   4.660   5.496  12.275
   11SBC   C09S 7643   4.970   5.418  12.439
   11SBC   C09Q 7644   4.982   5.291  12.690
   11SBC   C09F 7645   4.721   5.244  12.807
   11SBC   C09E 7646   4.633   5.440  12.513
   11SBC   C0A0 7647   4.483   5.260  12.817
   11SBC   C0CU 7648   4.232   5.355  12.737
   11SBC   C0CR 7649   4.102   5.405  12.700
   11SBC   C0CZ 7650   4.084   5.467  12.572
   11SBC   C0DA 7651   4.562   5.471  12.389
   11SBC   C0D9 7652   4.342   5.696  12.283
   11SBC   H00V 7653   4.432   5.754  12.297
   11SBC   C0CY 7654   4.191   5.475  12.481
   11SBC   C0DF 7655   4.209   5.757  12.281
   11SBC   C0DE 7656   4.126   5.874  12.288
   11SBC   C0GI 7657   4.168   6.014  12.259
   11SBC   H01K 7658   4.267   6.053  12.240
   11SBC   C0GJ 7659   4.067   6.100  12.273
   11SBC   H01J 7660   4.088   6.206  12.264
   11SBC   O00I 7661   3.942   6.077  12.320
   11SBC   C0GH 7662   3.912   5.955  12.374
   11SBC   C0GG 7663   3.791   5.945  12.448
   11SBC   O00G 7664   3.712   6.046  12.436
   11SBC   C0G8 7665   3.622   6.080  12.538
   11SBC   C0G9 7666   3.567   6.207  12.524
   11SBC   H01G 7667   3.589   6.268  12.437
   11SBC   C0GA 7668   3.476   6.252  12.625
   11SBC   H01H 7669   3.414   6.340  12.612
   11SBC   C0GB 7670   3.436   6.171  12.732
   11SBC   C0EP 7671   3.490   6.037  12.738
   11SBC   C0E8 7672   3.466   5.956  12.856
   11SBC   C0CK 7673   3.500   5.834  12.921
   11SBC   C0CL 7674   3.537   5.725  12.843
   11SBC   C0E9 7675   3.606   5.744  12.717
   11SBC   C0GE 7676   3.641   5.856  12.623
   11SBC   C0E7 7677   3.358   5.995  12.940
   11SBC   C0CJ 7678   3.319   5.904  13.042
   11SBC   C0E6 7679   3.200   5.929  13.112
   11SBC   H00Y 7680   3.162   5.851  13.176
   11SBC   C0EO 7681   3.146   6.057  13.101
   11SBC   H011 7682   3.058   6.071  13.163
   11SBC   C0G6 7683   3.199   6.159  13.019
   11SBC   C0G5 7684   3.149   6.293  13.011
   11SBC   H01F 7685   3.080   6.319  13.090
   11SBC   C0GD 7686   3.192   6.379  12.915
   11SBC   H01I 7687   3.152   6.479  12.914
   11SBC   O00H 7688   3.286   6.346  12.817
   11SBC   C0EQ 7689   3.303   6.125  12.928
   11SBC   C0GC 7690   3.341   6.218  12.829
   11SBC   C0G7 7691   3.583   5.987  12.636
   11SBC   C0DD 7692   3.995   5.845  12.341
   11SBC   C0GF 7693   3.744   5.829  12.521
   11SBC   C0CO 7694   3.650   5.615  12.693
   11SBC   C0D0 7695   3.956   5.532  12.546
   11SBC   C0C4 7696   3.990   5.399  12.796
   11SBC   C0CN 7697   3.629   5.525  12.797
   11SBC   C0CP 7698   3.813   5.437  13.079
   11SBC   C0CM 7699   3.555   5.588  12.894
   11SBC   C0CI 7700   3.426   5.802  13.052
   11SBC   C0CD 7701   3.289   5.639  13.486
   11SBC   C0BR 7702   3.560   5.502  13.279
   11SBC   C0CS 7703   3.669   5.338  13.424
   11SBC   C0B6 7704   3.674   5.174  13.658
   11SBC   C0CG 7705   3.357   5.431  13.580
   11SBC   C0CF 7706   3.266   5.531  13.577
   11SBC   C0E5 7707   3.113   5.762  13.593
   11SBC   C0DT 7708   2.898   5.765  13.759
   11SBC   C0DL 7709   3.044   5.447  13.857
   11SBC   C0DM 7710   3.036   5.352  13.962
   11SBC   C0DY 7711   2.826   5.444  14.029
   11SBC   C0DU 7712   2.780   5.755  13.828
   11SBC   C0F0 7713   2.595   5.883  13.932
   11SBC   C0F4 7714   2.466   5.924  14.168
   11SBC   C0FG 7715   2.511   5.561  14.172
   11SBC   O00B 7716   2.379   5.821  14.379
   11SBC   C0FN 7717   2.507   5.493  14.289
   11SBC   C0DZ 7718   2.717   5.446  14.114
   11SBC   O00C 7719   2.848   5.242  14.381
   11SBC   C0FR 7720   2.952   5.168  14.415
   11SBC   O00D 7721   2.948   5.124  14.532
   11SBC   C0E0 7722   2.932   5.356  14.051
   11SBC   C0E3 7723   3.054   5.137  14.320
   11SBC   C0AW 7724   3.173   5.068  14.345
   11SBC   C0AV 7725   3.206   5.016  14.475
   11SBC   H00Q 7726   3.153   5.037  14.567
   11SBC   C0AU 7727   3.334   4.955  14.492
   11SBC   H00R 7728   3.360   4.933  14.595
   11SBC   C0AT 7729   3.416   4.923  14.388
   11SBC   C0AS 7730   3.543   4.861  14.359
   11SBC   C0AR 7731   3.619   4.785  14.470
   11SBC   C0BE 7732   3.378   4.972  14.263
   11SBC   C0DN 7733   3.138   5.265  13.977
   11SBC   C0AX 7734   3.263   5.049  14.238
   11SBC   C0BB 7735   3.350   5.170  13.903
   11SBC   C0BD 7736   3.475   4.955  14.167
   11SBC   C0B2 7737   3.572   5.086  13.851
   11SBC   C0AH 7738   3.799   4.941  13.912
   11SBC   C0BF 7739   3.583   4.884  14.222
   11SBC   C0AL 7740   3.941   4.725  13.991
   11SBC   C07U 7741   3.807   4.691  14.315
   11SBC   C0AQ 7742   3.739   4.710  14.441
   11SBC   C0BG 7743   3.596   4.778  14.619
   11SBC   C0FY 7744   3.709   4.504  14.818
   11SBC   C0BJ 7745   3.482   4.732  14.694
   11SBC   H00S 7746   3.377   4.746  14.672
   11SBC   C0FZ 7747   3.598   4.449  14.874
   11SBC   C07S 7748   3.807   4.418  14.761
   11SBC   C0G1 7749   3.684   4.106  14.933
   11SBC   C07K 7750   4.019   3.984  14.830
   11SBC   C07H 7751   3.984   4.218  14.660
   11SBC   C06B 7752   4.162   3.958  14.475
   11SBC   C06N 7753   4.272   4.094  14.340
   11SBC   C066 7754   4.011   4.385  14.455
   11SBC   C062 7755   4.083   4.470  14.165
   11SBC   C05Y 7756   4.388   4.234  14.163
   11SBC   C061 7757   4.139   4.467  14.033
   11SBC   C05H 7758   4.493   4.477  13.950
   11SBC   C06V 7759   4.164   4.588  13.964
   11SBC   C06Y 7760   4.226   4.773  13.764
   11SBC   C05C 7761   4.566   4.633  13.735
   11SBC   C06Z 7762   4.330   4.862  13.568
   11SBC   C070 7763   4.549   4.872  13.397
   11SBC   C05B 7764   4.678   4.654  13.656
   11SBC   C057 7765   4.904   4.687  13.485
   11SBC   C059 7766   4.777   4.830  13.337
   12SBC   C058 7767   4.817   6.253   6.989
   12SBC   C05A 7768   4.866   6.374   7.039
   12SBC   C06Q 7769   4.781   6.461   7.106
   12SBC   C06R 7770   4.831   6.583   7.156
   12SBC   C06S 7771   4.969   6.611   7.156
   12SBC   C06T 7772   5.004   6.738   7.213
   12SBC   C06U 7773   5.140   6.785   7.236
   12SBC   C06X 7774   5.275   6.747   7.210
   12SBC   C060 7775   5.375   6.849   7.231
   12SBC   C05Z 7776   5.511   6.841   7.290
   12SBC   C068 7777   5.517   6.963   7.382
   12SBC   C067 7778   5.631   7.028   7.451
   12SBC   C069 7779   5.756   6.962   7.432
   12SBC   C06A 7780   5.886   7.015   7.475
   12SBC   C073 7781   5.945   7.144   7.485
   12SBC   C07P 7782   6.068   7.176   7.427
   12SBC   C07O 7783   6.134   7.098   7.326
   12SBC   H00D 7784   6.088   7.006   7.294
   12SBC   C07N 7785   6.261   7.128   7.276
   12SBC   H00E 7786   6.318   7.060   7.214
   12SBC   C07M 7787   6.322   7.246   7.324
   12SBC   H00F 7788   6.420   7.262   7.282
   12SBC   C07L 7789   6.262   7.329   7.421
   12SBC   C07Q 7790   6.322   7.452   7.464
   12SBC   H00G 7791   6.417   7.488   7.426
   12SBC   O00F 7792   6.259   7.539   7.554
   12SBC   C07J 7793   6.144   7.489   7.608
   12SBC   C07I 7794   6.074   7.370   7.571
   12SBC   N004 7795   5.944   7.341   7.622
   12SBC   C07R 7796   5.893   7.425   7.723
   12SBC   C07T 7797   5.961   7.545   7.750
   12SBC   C0FX 7798   5.907   7.647   7.818
   12SBC   C0FW 7799   5.944   7.782   7.817
   12SBC   C0G0 7800   6.071   7.804   7.760
   12SBC   C0G2 7801   6.124   7.935   7.767
   12SBC   H01E 7802   6.225   7.957   7.737
   12SBC   C0G3 7803   6.047   8.040   7.810
   12SBC   H01C 7804   6.075   8.144   7.813
   12SBC   C0G4 7805   5.916   8.012   7.847
   12SBC   H01D 7806   5.853   8.088   7.891
   12SBC   O00E 7807   6.148   7.700   7.714
   12SBC   C0FV 7808   5.854   7.885   7.849
   12SBC   C0FU 7809   5.724   7.853   7.890
   12SBC   H01B 7810   5.654   7.935   7.894
   12SBC   C0FT 7811   5.684   7.718   7.905
   12SBC   C0FS 7812   5.568   7.642   7.935
   12SBC   C0BI 7813   5.603   7.503   7.938
   12SBC   C0BH 7814   5.479   7.448   7.892
   12SBC   C07F 7815   5.466   7.363   7.787
   12SBC   C07E 7816   5.557   7.282   7.721
   12SBC   C07G 7817   5.694   7.296   7.719
   12SBC   C074 7818   5.735   7.225   7.606
   12SBC   C065 7819   5.516   7.204   7.611
   12SBC   C064 7820   5.382   7.193   7.581
   12SBC   C063 7821   5.315   7.126   7.479
   12SBC   C075 7822   5.176   7.171   7.487
   12SBC   C0AM 7823   5.154   7.273   7.587
   12SBC   C0AN 7824   5.036   7.350   7.623
   12SBC   C0AO 7825   4.892   7.328   7.602
   12SBC   C0B1 7826   4.787   7.423   7.630
   12SBC   C0B0 7827   4.823   7.546   7.671
   12SBC   C0AZ 7828   4.741   7.656   7.664
   12SBC   C0AY 7829   4.791   7.782   7.656
   12SBC   N007 7830   4.712   7.895   7.614
   12SBC   C0E2 7831   4.774   8.014   7.584
   12SBC   C0E1 7832   4.687   8.108   7.539
   12SBC   C0E4 7833   4.748   8.224   7.479
   12SBC   C0FF 7834   4.668   8.336   7.449
   12SBC   C0FJ 7835   4.690   8.464   7.379
   12SBC   C0FK 7836   4.755   8.470   7.256
   12SBC   H016 7837   4.831   8.401   7.223
   12SBC   C0FL 7838   4.695   8.580   7.177
   12SBC   H017 7839   4.711   8.611   7.075
   12SBC   C0FM 7840   4.602   8.653   7.265
   12SBC   C0FH 7841   4.474   8.717   7.258
   12SBC   C0FI 7842   4.411   8.652   7.366
   12SBC   C0F3 7843   4.272   8.628   7.347
   12SBC   C0F2 7844   4.229   8.526   7.424
   12SBC   C0DW 7845   4.307   8.420   7.483
   12SBC   C0FE 7846   4.444   8.433   7.481
   12SBC   C0DV 7847   4.248   8.301   7.520
   12SBC   C0DX 7848   4.336   8.194   7.549
   12SBC   C0DK 7849   4.276   8.068   7.573
   12SBC   C0DJ 7850   4.138   8.052   7.553
   12SBC   C0DI 7851   4.085   7.925   7.559
   12SBC   C0DH 7852   4.164   7.816   7.586
   12SBC   C0DG 7853   4.299   7.834   7.610
   12SBC   C0BV 7854   4.384   7.724   7.625
   12SBC   C0BC 7855   4.522   7.742   7.630
   12SBC   C0BA 7856   4.335   7.590   7.613
   12SBC   C0B4 7857   4.424   7.483   7.619
   12SBC   C0B3 7858   4.561   7.506   7.636
   12SBC   C0B5 7859   4.378   7.356   7.601
   12SBC   C0BU 7860   4.240   7.336   7.578
   12SBC   C0BT 7861   4.147   7.446   7.585
   12SBC   C0BS 7862   4.007   7.422   7.565
   12SBC   C0CC 7863   3.922   7.534   7.550
   12SBC   C0CB 7864   3.785   7.513   7.517
   12SBC   C0CH 7865   3.726   7.627   7.466
   12SBC   C0DO 7866   3.769   7.758   7.487
   12SBC   C0DP 7867   3.683   7.871   7.469
   12SBC   C0EA 7868   3.544   7.855   7.428
   12SBC   H012 7869   3.496   7.759   7.419
   12SBC   O009 7870   3.454   7.959   7.427
   12SBC   C0EH 7871   3.507   8.085   7.437
   12SBC   C0EG 7872   3.421   8.184   7.391
   12SBC   C0EJ 7873   3.281   8.193   7.347
   12SBC   H010 7874   3.208   8.113   7.351
   12SBC   C0EK 7875   3.249   8.321   7.290
   12SBC   H00Z 7876   3.166   8.365   7.236
   12SBC   C0EL 7877   3.380   8.389   7.293
   12SBC   C0EM 7878   3.418   8.512   7.226
   12SBC   C0EW 7879   3.340   8.613   7.163
   12SBC   H013 7880   3.236   8.597   7.139
   12SBC   C0EX 7881   3.398   8.738   7.105
   12SBC   H014 7882   3.331   8.810   7.061
   12SBC   C0F1 7883   3.542   8.750   7.110
   12SBC   C0EU 7884   3.616   8.651   7.178
   12SBC   C0ET 7885   3.755   8.655   7.200
   12SBC   C0ES 7886   3.781   8.528   7.269
   12SBC   C0EE 7887   3.656   8.459   7.290
   12SBC   C0ED 7888   3.615   8.338   7.355
   12SBC   C0EC 7889   3.702   8.239   7.411
   12SBC   C0EB 7890   3.838   8.249   7.439
   12SBC   C0EN 7891   3.907   8.373   7.408
   12SBC   C0ER 7892   4.040   8.386   7.452
   12SBC   C0DS 7893   3.921   8.144   7.490
   12SBC   C0DR 7894   3.867   8.018   7.501
   12SBC   C0EY 7895   3.890   8.500   7.341
   12SBC   C0EZ 7896   4.011   8.577   7.330
   12SBC   C0F5 7897   4.061   8.689   7.253
   12SBC   C0F6 7898   3.977   8.770   7.174
   12SBC   N008 7899   4.044   8.878   7.107
   12SBC   C0F7 7900   4.186   8.889   7.111
   12SBC   C0FQ 7901   4.244   8.995   7.046
   12SBC   H018 7902   4.352   9.003   7.048
   12SBC   C0FP 7903   4.174   9.088   6.967
   12SBC   H019 7904   4.217   9.165   6.905
   12SBC   C0FO 7905   4.034   9.077   6.973
   12SBC   H01A 7906   3.976   9.148   6.917
   12SBC   C0F8 7907   4.262   8.803   7.182
   12SBC   C0F9 7908   3.969   8.968   7.031
   12SBC   C0FA 7909   3.830   8.961   7.012
   12SBC   H015 7910   3.773   9.022   6.943
   12SBC   C0FB 7911   3.760   8.861   7.084
   12SBC   C0FD 7912   3.833   8.768   7.159
   12SBC   C0FC 7913   3.614   8.861   7.058
   12SBC   O00A 7914   3.558   8.940   6.981
   12SBC   C0EV 7915   3.557   8.542   7.234
   12SBC   C0EF 7916   3.476   8.302   7.353
   12SBC   C0EI 7917   3.648   8.116   7.448
   12SBC   C0DQ 7918   3.732   7.999   7.475
   12SBC   C0CE 7919   3.898   7.778   7.529
   12SBC   H00U 7920   3.631   7.601   7.421
   12SBC   C0CA 7921   3.726   7.382   7.535
   12SBC   C0C9 7922   3.808   7.269   7.544
   12SBC   C0C8 7923   3.743   7.142   7.544
   12SBC   C0C7 7924   3.788   7.010   7.510
   12SBC   C0C6 7925   3.693   6.905   7.529
   12SBC   C0C5 7926   3.660   6.769   7.487
   12SBC   C0CQ 7927   3.527   6.724   7.509
   12SBC   C0D1 7928   3.429   6.821   7.527
   12SBC   C0D8 7929   3.313   6.792   7.451
   12SBC   C0D7 7930   3.331   6.656   7.417
   12SBC   C0D6 7931   3.247   6.582   7.339
   12SBC   C0D5 7932   3.259   6.442   7.323
   12SBC   C0D4 7933   3.373   6.360   7.342
   12SBC   C0D3 7934   3.353   6.262   7.237
   12SBC   C0CX 7935   3.482   6.225   7.184
   12SBC   C0CW 7936   3.581   6.327   7.228
   12SBC   C0CV 7937   3.723   6.365   7.204
   12SBC   C0D2 7938   3.809   6.276   7.134
   12SBC   C09D 7939   3.770   6.166   7.051
   12SBC   C09C 7940   3.861   6.090   6.973
   12SBC   C09B 7941   3.838   5.967   6.899
   12SBC   C09A 7942   3.706   5.917   6.913
   12SBC   C099 7943   3.608   5.988   6.968
   12SBC   C098 7944   3.509   5.903   7.010
   12SBC   C08Y 7945   3.551   5.768   6.989
   12SBC   C08X 7946   3.495   5.644   7.041
   12SBC   C08W 7947   3.375   5.636   7.120
   12SBC   C08U 7948   3.310   5.755   7.186
   12SBC   C08V 7949   3.348   5.896   7.205
   12SBC   C0DC 7950   3.251   5.950   7.301
   12SBC   H00W 7951   3.255   6.054   7.329
   12SBC   C0DB 7952   3.153   5.849   7.321
   12SBC   H00X 7953   3.060   5.867   7.373
   12SBC   C08T 7954   3.198   5.727   7.266
   12SBC   C08S 7955   3.138   5.606   7.280
   12SBC   H00N 7956   3.045   5.592   7.334
   12SBC   C08R 7957   3.206   5.494   7.236
   12SBC   C08Q 7958   3.149   5.363   7.251
   12SBC   H00O 7959   3.048   5.360   7.287
   12SBC   C08P 7960   3.222   5.243   7.230
   12SBC   C08O 7961   3.173   5.110   7.252
   12SBC   H00P 7962   3.074   5.089   7.289
   12SBC   C08N 7963   3.250   4.999   7.211
   12SBC   C08M 7964   3.193   4.862   7.205
   12SBC   O008 7965   3.072   4.829   7.223
   12SBC   O007 7966   3.288   4.761   7.181
   12SBC   C08H 7967   3.425   4.776   7.171
   12SBC   C08G 7968   3.511   4.669   7.143
   12SBC   C03V 7969   3.483   4.534   7.114
   12SBC   H009 7970   3.377   4.514   7.107
   12SBC   C03U 7971   3.583   4.437   7.102
   12SBC   C03W 7972   3.566   4.295   7.092
   12SBC   H00A 7973   3.466   4.259   7.074
   12SBC   C03X 7974   3.670   4.210   7.096
   12SBC   H00B 7975   3.641   4.108   7.074
   12SBC   O005 7976   3.799   4.244   7.098
   12SBC   C03O 7977   3.825   4.381   7.097
   12SBC   C03N 7978   3.954   4.429   7.103
   12SBC   O000 7979   4.056   4.336   7.120
   12SBC   C019 7980   4.179   4.377   7.117
   12SBC   C018 7981   4.214   4.505   7.069
   12SBC   C017 7982   4.113   4.605   7.070
   12SBC   C016 7983   4.148   4.735   7.041
   12SBC   C015 7984   4.281   4.750   6.994
   12SBC   C014 7985   4.316   4.873   6.938
   12SBC   C013 7986   4.218   4.981   6.920
   12SBC   C012 7987   4.296   5.082   6.854
   12SBC   C011 7988   4.415   5.025   6.818
   12SBC   C010 7989   4.509   5.079   6.733
   12SBC   C00Z 7990   4.639   5.043   6.713
   12SBC   C00Y 7991   4.694   5.165   6.682
   12SBC   C01O 7992   4.609   5.275   6.680
   12SBC   C01P 7993   4.644   5.405   6.721
   12SBC   C02L 7994   4.545   5.494   6.754
   12SBC   C02K 7995   4.414   5.436   6.769
   12SBC   C01M 7996   4.386   5.292   6.769
   12SBC   C02J 7997   4.317   5.538   6.778
   12SBC   C02I 7998   4.184   5.519   6.789
   12SBC   C02H 7999   4.109   5.408   6.818
   12SBC   C01Q 8000   4.149   5.276   6.840
   12SBC   C02G 8001   4.036   5.205   6.884
   12SBC   C089 8002   3.930   5.292   6.870
   12SBC   C088 8003   3.821   5.246   6.950
   12SBC   C087 8004   3.861   5.114   7.003
   12SBC   C086 8005   3.787   5.026   7.087
   12SBC   C03S 8006   3.812   4.889   7.092
   12SBC   N006 8007   3.693   4.832   7.140
   12SBC   C08F 8008   3.597   4.931   7.158
   12SBC   C01J 8009   3.913   4.795   7.063
   12SBC   C03R 8010   3.882   4.658   7.081
   12SBC   C03Q 8011   3.751   4.612   7.102
   12SBC   C08E 8012   3.652   5.053   7.125
   12SBC   C08D 8013   3.571   5.170   7.113
   12SBC   C08K 8014   3.433   5.155   7.161
   12SBC   C08C 8015   3.602   5.295   7.057
   12SBC   C091 8016   3.509   5.401   7.064
   12SBC   C092 8017   3.388   5.389   7.135
   12SBC   C08B 8018   3.718   5.340   6.994
   12SBC   C090 8019   3.685   5.478   6.951
   12SBC   C094 8020   3.769   5.562   6.874
   12SBC   C095 8021   3.765   5.701   6.858
   12SBC   C09R 8022   3.892   5.750   6.816
   12SBC   C097 8023   3.977   5.645   6.807
   12SBC   C096 8024   3.903   5.534   6.841
   12SBC   C01I 8025   4.000   5.084   6.955
   12SBC   C08A 8026   3.974   5.417   6.845
   12SBC   C09L 8027   4.121   5.639   6.779
   12SBC   C09K 8028   4.219   5.747   6.755
   12SBC   C09J 8029   4.199   5.883   6.800
   12SBC   C09I 8030   4.301   5.967   6.860
   12SBC   C09O 8031   4.442   5.966   6.882
   12SBC   C09N 8032   4.524   5.860   6.838
   12SBC   C09M 8033   4.483   5.728   6.798
   12SBC   C06O 8034   4.663   5.883   6.852
   12SBC   C05M 8035   4.712   6.008   6.895
   12SBC   C06P 8036   4.628   6.103   6.948
   12SBC   C042 8037   4.851   6.033   6.891
   12SBC   C041 8038   4.948   5.936   6.853
   12SBC   C040 8039   5.087   5.960   6.853
   12SBC   C03Z 8040   5.179   5.862   6.830
   12SBC   C03Y 8041   5.134   5.732   6.807
   12SBC   C027 8042   5.228   5.635   6.779
   12SBC   C026 8043   5.183   5.502   6.754
   12SBC   C028 8044   5.271   5.397   6.745
   12SBC   C029 8045   5.405   5.418   6.772
   12SBC   C02B 8046   5.494   5.314   6.787
   12SBC   C02C 8047   5.629   5.337   6.807
   12SBC   C02X 8048   5.713   5.226   6.820
   12SBC   C03E 8049   5.841   5.251   6.858
   12SBC   C03G 8050   5.897   5.376   6.886
   12SBC   C04Q 8051   5.807   5.482   6.866
   12SBC   C04R 8052   5.849   5.611   6.888
   12SBC   C04S 8053   5.762   5.718   6.868
   12SBC   C04L 8054   5.631   5.695   6.839
   12SBC   C04M 8055   5.585   5.566   6.820
   12SBC   C04K 8056   5.544   5.804   6.831
   12SBC   C04F 8057   5.590   5.930   6.867
   12SBC   C04E 8058   5.726   5.954   6.889
   12SBC   C04D 8059   5.770   6.077   6.935
   12SBC   C050 8060   5.900   6.099   6.965
   12SBC   C051 8061   5.942   6.217   7.025
   12SBC   C05Q 8062   6.080   6.239   7.047
   12SBC   C05V 8063   6.121   6.361   7.108
   12SBC   N005 8064   6.256   6.382   7.123
   12SBC   C07V 8065   6.347   6.285   7.082
   12SBC   C082 8066   6.483   6.310   7.100
   12SBC   C081 8067   6.535   6.421   7.164
   12SBC   C07C 8068   6.442   6.514   7.206
   12SBC   C07B 8069   6.481   6.626   7.282
   12SBC   C080 8070   6.617   6.651   7.301
   12SBC   C07Z 8071   6.656   6.769   7.364
   12SBC   H00L 8072   6.763   6.782   7.362
   12SBC   C079 8073   6.564   6.858   7.426
   12SBC   C078 8074   6.430   6.816   7.425
   12SBC   C077 8075   6.331   6.883   7.501
   12SBC   C07X 8076   6.372   7.006   7.563
   12SBC   H00I 8077   6.299   7.066   7.615
   12SBC   C07Y 8078   6.501   7.058   7.549
   12SBC   H00H 8079   6.526   7.155   7.589
   12SBC   C076 8080   6.196   6.845   7.489
   12SBC   C06C 8081   6.102   6.922   7.557
   12SBC   H00C 8082   6.119   6.995   7.634
   12SBC   C06F 8083   6.154   6.749   7.397
   12SBC   C06E 8084   6.021   6.736   7.361
   12SBC   C06G 8085   5.975   6.653   7.262
   12SBC   C06H 8086   6.070   6.563   7.219
   12SBC   C06I 8087   6.208   6.577   7.245
   12SBC   C06L 8088   5.834   6.649   7.232
   12SBC   C06M 8089   5.742   6.742   7.278
   12SBC   C06K 8090   5.794   6.539   7.153
   12SBC   C05S 8091   5.885   6.435   7.115
   12SBC   C05U 8092   5.660   6.525   7.117
   12SBC   C05X 8093   5.565   6.628   7.151
   12SBC   C05G 8094   5.429   6.586   7.100
   12SBC   C05F 8095   5.405   6.474   7.022
   12SBC   C05E 8096   5.271   6.448   7.012
   12SBC   C048 8097   5.219   6.325   6.969
   12SBC   C056 8098   5.082   6.309   6.972
   12SBC   C045 8099   5.040   6.182   6.932
   12SBC   C047 8100   5.314   6.226   6.934
   12SBC   C049 8101   5.452   6.255   6.951
   12SBC   C04B 8102   5.544   6.155   6.927
   12SBC   C046 8103   5.267   6.109   6.895
   12SBC   C04H 8104   5.360   6.009   6.865
   12SBC   C05D 8105   5.200   6.544   7.083
   12SBC   C04A 8106   5.496   6.379   6.999
   12SBC   C05T 8107   5.626   6.400   7.045
   12SBC   C055 8108   5.715   6.296   7.016
   12SBC   C06D 8109   5.930   6.820   7.417
   12SBC   C07W 8110   6.251   6.681   7.321
   12SBC   C085 8111   6.595   6.977   7.491
   12SBC   H00M 8112   6.701   6.997   7.490
   12SBC   C084 8113   6.712   6.561   7.259
   12SBC   H00J 8114   6.815   6.585   7.279
   12SBC   C07A 8115   6.388   6.706   7.343
   12SBC   C083 8116   6.670   6.443   7.196
   12SBC   H00K 8117   6.751   6.381   7.158
   12SBC   O00K 8118   6.577   6.218   7.064
   12SBC   C0GO 8119   6.531   6.094   7.036
   12SBC   C0GN 8120   6.623   5.989   7.044
   12SBC   H01L 8121   6.729   6.004   7.061
   12SBC   C0GM 8122   6.574   5.856   7.050
   12SBC   C0GL 8123   6.662   5.760   7.080
   12SBC   H01M 8124   6.763   5.786   7.104
   12SBC   O00J 8125   6.628   5.622   7.068
   12SBC   C0GK 8126   6.495   5.603   7.027
   12SBC   H01N 8127   6.471   5.500   7.003
   12SBC   C05K 8128   6.403   5.702   7.009
   12SBC   C05J 8129   6.262   5.671   6.994
   12SBC   C04Y 8130   6.202   5.543   6.993
   12SBC   C04X 8131   6.070   5.519   6.944
   12SBC   O006 8132   6.275   5.432   7.039
   12SBC   C053 8133   6.227   5.306   7.037
   12SBC   C04O 8134   6.107   5.279   6.980
   12SBC   C03C 8135   6.038   5.148   6.962
   12SBC   C03B 8136   6.065   5.015   7.010
   12SBC   C054 8137   6.153   4.990   7.116
   12SBC   C0GR 8138   6.175   4.859   7.165
   12SBC   C03M 8139   6.096   4.733   7.160
   12SBC   C03I 8140   5.965   4.708   7.103
   12SBC   C03J 8141   5.904   4.581   7.120
   12SBC   N002 8142   5.776   4.550   7.060
   12SBC   C02U 8143   5.715   4.425   7.076
   12SBC   C02T 8144   5.588   4.400   7.024
   12SBC   C02Z 8145   5.530   4.271   7.030
   12SBC   N001 8146   5.396   4.238   6.987
   12SBC   C02R 8147   5.345   4.106   6.983
   12SBC   C032 8148   5.430   4.002   7.025
   12SBC   C031 8149   5.556   4.038   7.086
   12SBC   H007 8150   5.617   3.963   7.134
   12SBC   C033 8151   5.369   3.872   7.008
   12SBC   H003 8152   5.427   3.784   7.033
   12SBC   O004 8153   5.245   3.851   6.953
   12SBC   C034 8154   5.170   3.957   6.913
   12SBC   C035 8155   5.038   3.937   6.854
   12SBC   C036 8156   4.968   4.048   6.815
   12SBC   H005 8157   4.877   4.020   6.763
   12SBC   C037 8158   5.009   4.176   6.834
   12SBC   H006 8159   4.937   4.249   6.798
   12SBC   C00D 8160   5.137   4.199   6.891
   12SBC   C00C 8161   5.178   4.330   6.921
   12SBC   C00B 8162   5.097   4.448   6.881
   12SBC   C00A 8163   4.962   4.493   6.847
   12SBC   C009 8164   4.979   4.620   6.785
   12SBC   C008 8165   4.890   4.729   6.775
   12SBC   C007 8166   4.762   4.707   6.830
   12SBC   C006 8167   4.671   4.815   6.818
   12SBC   C005 8168   4.546   4.796   6.879
   12SBC   C004 8169   4.510   4.679   6.944
   12SBC   C003 8170   4.606   4.577   6.961
   12SBC   C002 8171   4.578   4.461   7.038
   12SBC   C01C 8172   4.445   4.436   7.070
   12SBC   C01B 8173   4.404   4.313   7.127
   12SBC   H000 8174   4.475   4.234   7.148
   12SBC   C001 8175   4.685   4.376   7.075
   12SBC   C000 8176   4.815   4.409   7.034
   12SBC   C01U 8177   4.894   4.301   7.086
   12SBC   H002 8178   5.000   4.281   7.089
   12SBC   C01T 8179   4.805   4.195   7.136
   12SBC   O002 8180   4.830   4.076   7.174
   12SBC   O001 8181   4.683   4.254   7.133
   12SBC   C01S 8182   4.736   4.592   6.904
   12SBC   C00N 8183   4.938   4.855   6.743
   12SBC   C00M 8184   5.078   4.880   6.741
   12SBC   C00J 8185   5.164   4.781   6.780
   12SBC   C00I 8186   5.296   4.802   6.802
   12SBC   C00H 8187   5.373   4.695   6.847
   12SBC   C00G 8188   5.320   4.570   6.872
   12SBC   C00F 8189   5.382   4.468   6.932
   12SBC   C01X 8190   5.501   4.722   6.891
   12SBC   C01W 8191   5.556   4.843   6.867
   12SBC   C01V 8192   5.475   4.948   6.818
   12SBC   C020 8193   5.528   5.076   6.802
   12SBC   C01Z 8194   5.690   4.863   6.902
   12SBC   C02Y 8195   5.737   4.989   6.875
   12SBC   C039 8196   5.864   5.020   6.921
   12SBC   C02W 8197   5.760   4.770   6.974
   12SBC   C01Y 8198   5.572   4.622   6.960
   12SBC   C00U 8199   5.345   4.928   6.797
   12SBC   C00S 8200   5.264   5.029   6.757
   12SBC   C00T 8201   5.309   5.162   6.759
   12SBC   C00R 8202   5.129   5.007   6.732
   12SBC   C00Q 8203   5.043   5.115   6.714
   12SBC   C00V 8204   5.093   5.248   6.711
   12SBC   C024 8205   5.008   5.360   6.700
   12SBC   C00X 8206   4.873   5.335   6.700
   12SBC   C00P 8207   4.907   5.086   6.702
   12SBC   C00O 8208   4.854   4.958   6.724
   12SBC   C00K 8209   5.111   4.655   6.780
   12SBC   N000 8210   4.844   4.503   6.930
   12SBC   C00L 8211   5.183   4.549   6.834
   12SBC   H004 8212   4.995   3.842   6.825
   12SBC   C02Q 8213   5.216   4.091   6.926
   12SBC   C00E 8214   5.315   4.347   6.946
   12SBC   C030 8215   5.599   4.171   7.092
   12SBC   O003 8216   5.719   4.197   7.157
   12SBC   C02S 8217   5.513   4.497   6.967
   12SBC   C038 8218   5.778   4.323   7.148
   12SBC   C03L 8219   5.900   4.351   7.205
   12SBC   H008 8220   5.952   4.272   7.258
   12SBC   C02V 8221   5.699   4.649   6.996
   12SBC   C03K 8222   5.962   4.475   7.195
   12SBC   C0BK 8223   6.086   4.508   7.245
   12SBC   H00T 8224   6.142   4.435   7.301
   12SBC   C03H 8225   5.891   4.801   7.023
   12SBC   C0BL 8226   6.163   4.625   7.232
   12SBC   C0GU 8227   6.290   4.638   7.286
   12SBC   H01O 8228   6.324   4.543   7.324
   12SBC   C0GT 8229   6.375   4.753   7.274
   12SBC   H01P 8230   6.478   4.755   7.307
   12SBC   C0GS 8231   6.309   4.860   7.211
   12SBC   C0GV 8232   6.364   4.992   7.198
   12SBC   C0GW 8233   6.496   5.033   7.228
   12SBC   H01Q 8234   6.571   4.966   7.268
   12SBC   C0GX 8235   6.521   5.161   7.205
   12SBC   H01R 8236   6.621   5.199   7.223
   12SBC   O00L 8237   6.425   5.251   7.153
   12SBC   C0GQ 8238   6.268   5.070   7.133
   12SBC   C03A 8239   5.948   4.931   6.990
   12SBC   C05L 8240   6.305   5.208   7.104
   12SBC   C04W 8241   6.172   5.783   6.966
   12SBC   C05I 8242   6.214   5.913   6.978
   12SBC   C05O 8243   6.347   5.937   6.999
   12SBC   C052 8244   6.124   6.018   6.969
   12SBC   C04V 8245   6.036   5.762   6.935
   12SBC   C04U 8246   5.939   5.865   6.922
   12SBC   N009 8247   6.441   5.836   7.015
   12SBC   C0GP 8248   6.395   6.067   7.011
   12SBC   C05W 8249   6.302   6.166   7.027
   12SBC   C07D 8250   6.304   6.494   7.190
   12SBC   C06J 8251   6.024   6.456   7.143
   12SBC   C05P 8252   6.168   6.143   7.008
   12SBC   C05R 8253   5.847   6.319   7.053
   12SBC   C04Z 8254   5.989   5.994   6.949
   12SBC   C04C 8255   5.676   6.175   6.963
   12SBC   C04G 8256   5.498   6.034   6.882
   12SBC   C04J 8257   5.409   5.784   6.810
   12SBC   C04T 8258   5.810   5.846   6.886
   12SBC   N003 8259   5.987   5.631   6.919
   12SBC   C04P 8260   6.027   5.387   6.932
   12SBC   C03D 8261   5.913   5.144   6.896
   12SBC   C021 8262   5.663   5.096   6.830
   12SBC   C03F 8263   5.674   5.462   6.830
   12SBC   C022 8264   5.445   5.184   6.776
   12SBC   C02A 8265   5.450   5.550   6.784
   12SBC   C023 8266   5.225   5.268   6.736
   12SBC   C025 8267   5.049   5.486   6.729
   12SBC   C02D 8268   4.953   5.589   6.762
   12SBC   C02E 8269   4.815   5.560   6.757
   12SBC   C02N 8270   4.715   5.658   6.787
   12SBC   C04N 8271   5.364   5.657   6.781
   12SBC   C02P 8272   4.996   5.711   6.796
   12SBC   C04I 8273   5.315   5.880   6.831
   12SBC   C044 8274   5.128   6.086   6.894
   12SBC   C043 8275   4.899   5.810   6.820
   12SBC   C05N 8276   4.757   5.782   6.825
   12SBC   C09U 8277   4.489   6.085   6.948
   12SBC   C09V 8278   4.403   6.184   7.001
   12SBC   C09X 8279   4.269   6.172   6.993
   12SBC   C09Y 8280   4.179   6.257   7.058
   12SBC   C0A1 8281   4.233   6.357   7.130
   12SBC   C0A2 8282   4.371   6.383   7.131
   12SBC   C0A4 8283   4.423   6.499   7.184
   12SBC   C071 8284   4.561   6.517   7.183
   12SBC   C0A5 8285   4.610   6.632   7.242
   12SBC   C0A9 8286   4.518   6.719   7.303
   12SBC   C0A8 8287   4.382   6.696   7.305
   12SBC   C0AP 8288   4.299   6.776   7.375
   12SBC   C0BY 8289   4.164   6.743   7.376
   12SBC   C0BX 8290   4.107   6.637   7.319
   12SBC   C0C2 8291   3.965   6.621   7.320
   12SBC   C0C3 8292   3.911   6.506   7.263
   12SBC   C0CT 8293   4.000   6.420   7.194
   12SBC   C0C1 8294   3.882   6.711   7.388
   12SBC   C0C0 8295   3.942   6.838   7.418
   12SBC   C0A7 8296   4.194   6.555   7.250
   12SBC   C0BZ 8297   4.080   6.844   7.414
   12SBC   C0BO 8298   4.124   6.965   7.461
   12SBC   C0BN 8299   4.259   6.990   7.473
   12SBC   C0BM 8300   4.296   7.115   7.520
   12SBC   C0B9 8301   4.430   7.136   7.535
   12SBC   C0B8 8302   4.521   7.034   7.499
   12SBC   C0AD 8303   4.477   6.919   7.438
   12SBC   C0AF 8304   4.657   7.059   7.495
   12SBC   C0AG 8305   4.700   7.182   7.543
   12SBC   C0B7 8306   4.608   7.280   7.583
   12SBC   C0AE 8307   4.732   6.973   7.428
   12SBC   C0AB 8308   4.693   6.857   7.362
   12SBC   C0AA 8309   4.781   6.785   7.283
   12SBC   C0AJ 8310   4.867   7.014   7.411
   12SBC   C0AK 8311   4.949   6.942   7.329
   12SBC   C06W 8312   5.069   6.994   7.349
   12SBC   C0AI 8313   4.924   7.128   7.462
   12SBC   C0BP 8314   4.020   7.055   7.491
   12SBC   C0BQ 8315   4.055   7.189   7.534
   12SBC   C0BW 8316   4.344   6.892   7.428
   12SBC   C0AC 8317   4.567   6.825   7.373
   12SBC   C0A6 8318   4.331   6.581   7.248
   12SBC   C0A3 8319   4.141   6.445   7.188
   12SBC   C09Z 8320   4.043   6.234   7.051
   12SBC   C09W 8321   4.456   6.296   7.062
   12SBC   C072 8322   4.594   6.318   7.059
   12SBC   C09H 8323   4.222   6.066   6.921
   12SBC   C09G 8324   4.088   6.059   6.894
   12SBC   C09P 8325   4.068   5.941   6.824
   12SBC   C02O 8326   4.345   5.679   6.771
   12SBC   C02M 8327   4.577   5.623   6.780
   12SBC   C02F 8328   4.779   5.427   6.728
   12SBC   C00W 8329   4.832   5.198   6.688
   12SBC   C01R 8330   4.721   4.929   6.747
   12SBC   C01N 8331   4.496   5.215   6.721
   12SBC   C01L 8332   4.268   5.221   6.816
   12SBC   C01H 8333   4.088   4.969   6.977
   12SBC   C01K 8334   4.437   4.897   6.876
   12SBC   C01E 8335   4.382   4.655   6.998
   12SBC   C01G 8336   4.048   4.836   7.029
   12SBC   C01D 8337   4.347   4.536   7.046
   12SBC   C01A 8338   4.274   4.281   7.147
   12SBC   H001 8339   4.255   4.185   7.192
   12SBC   C01F 8340   3.982   4.566   7.090
   12SBC   C03P 8341   3.719   4.480   7.101
   12SBC   C03T 8342   3.645   4.701   7.130
   12SBC   C08I 8343   3.469   4.910   7.178
   12SBC   C08J 8344   3.385   5.021   7.179
   12SBC   C08L 8345   3.345   5.261   7.175
   12SBC   C093 8346   3.324   5.507   7.164
   12SBC   C08Z 8347   3.562   5.522   7.014
   12SBC   C09T 8348   3.446   5.966   7.120
   12SBC   C09S 8349   3.672   5.784   6.914
   12SBC   C09Q 8350   3.936   5.885   6.838
   12SBC   C09F 8351   3.993   6.128   6.976
   12SBC   C09E 8352   3.642   6.100   7.055
   12SBC   C0A0 8353   3.950   6.308   7.131
   12SBC   C0CU 8354   3.771   6.478   7.275
   12SBC   C0CR 8355   3.691   6.566   7.348
   12SBC   C0CZ 8356   3.558   6.534   7.369
   12SBC   C0DA 8357   3.519   6.100   7.125
   12SBC   C0D9 8358   3.248   6.300   7.150
   12SBC   H00V 8359   3.228   6.267   7.049
   12SBC   C0CY 8360   3.508   6.408   7.321
   12SBC   C0DF 8361   3.173   6.402   7.216
   12SBC   C0DE 8362   3.092   6.519   7.184
   12SBC   C0GI 8363   2.986   6.532   7.092
   12SBC   H01K 8364   2.948   6.450   7.032
   12SBC   C0GJ 8365   2.927   6.652   7.091
   12SBC   H01J 8366   2.841   6.667   7.028
   12SBC   O00I 8367   2.969   6.765   7.166
   12SBC   C0GH 8368   3.078   6.756   7.248
   12SBC   C0GG 8369   3.124   6.874   7.305
   12SBC   O00G 8370   3.055   6.985   7.262
   12SBC   C0G8 8371   3.074   7.107   7.320
   12SBC   C0G9 8372   2.982   7.208   7.294
   12SBC   H01G 8373   2.895   7.188   7.233
   12SBC   C0GA 8374   2.996   7.336   7.352
   12SBC   H01H 8375   2.911   7.402   7.359
   12SBC   C0GB 8376   3.114   7.380   7.421
   12SBC   C0EP 8377   3.217   7.280   7.431
   12SBC   C0E8 8378   3.346   7.331   7.475
   12SBC   C0CK 8379   3.480   7.280   7.482
   12SBC   C0CL 8380   3.500   7.153   7.518
   12SBC   C0E9 8381   3.402   7.049   7.499
   12SBC   C0GE 8382   3.272   7.028   7.428
   12SBC   C0E7 8383   3.356   7.460   7.529
   12SBC   C0CJ 8384   3.486   7.489   7.573
   12SBC   C0E6 8385   3.502   7.610   7.646
   12SBC   H00Y 8386   3.596   7.629   7.696
   12SBC   C0EO 8387   3.393   7.696   7.650
   12SBC   H011 8388   3.399   7.793   7.697
   12SBC   C0G6 8389   3.268   7.666   7.591
   12SBC   C0G5 8390   3.157   7.760   7.596
   12SBC   H01F 8391   3.161   7.859   7.639
   12SBC   C0GD 8392   3.037   7.723   7.540
   12SBC   H01I 8393   2.955   7.793   7.546
   12SBC   O00H 8394   3.017   7.598   7.476
   12SBC   C0EQ 8395   3.247   7.545   7.531
   12SBC   C0GC 8396   3.124   7.509   7.476
   12SBC   C0G7 8397   3.194   7.140   7.397
   12SBC   C0DD 8398   3.134   6.629   7.267
   12SBC   C0GF 8399   3.230   6.891   7.398
   12SBC   C0CO 8400   3.467   6.945   7.561
   12SBC   C0D0 8401   3.471   6.625   7.423
   12SBC   C0C4 8402   3.744   6.686   7.407
   12SBC   C0CN 8403   3.597   6.975   7.611
   12SBC   C0CP 8404   3.910   6.976   7.462
   12SBC   C0CM 8405   3.614   7.112   7.591
   12SBC   C0CI 8406   3.574   7.382   7.528
   12SBC   C0CD 8407   3.979   7.667   7.555
   12SBC   C0BR 8408   3.956   7.287   7.549
   12SBC   C0CS 8409   4.196   7.213   7.544
   12SBC   C0B6 8410   4.471   7.256   7.576
   12SBC   C0CG 8411   4.199   7.574   7.598
   12SBC   C0CF 8412   4.113   7.687   7.583
   12SBC   C0E5 8413   3.949   7.910   7.537
   12SBC   C0DT 8414   4.054   8.158   7.525
   12SBC   C0DL 8415   4.356   7.956   7.592
   12SBC   C0DM 8416   4.496   7.976   7.593
   12SBC   C0DY 8417   4.474   8.208   7.534
   12SBC   C0DU 8418   4.114   8.278   7.512
   12SBC   C0F0 8419   4.094   8.502   7.414
   12SBC   C0F4 8420   4.196   8.709   7.264
   12SBC   C0FG 8421   4.490   8.556   7.433
   12SBC   O00B 8422   4.405   8.801   7.171
   12SBC   C0FN 8423   4.612   8.580   7.389
   12SBC   C0DZ 8424   4.533   8.330   7.494
   12SBC   O00C 8425   4.880   8.226   7.450
   12SBC   C0FR 8426   4.969   8.132   7.498
   12SBC   O00D 8427   5.086   8.143   7.475
   12SBC   C0E0 8428   4.552   8.098   7.556
   12SBC   C0E3 8429   4.913   8.024   7.578
   12SBC   C0AW 8430   4.990   7.930   7.646
   12SBC   C0AV 8431   5.135   7.933   7.678
   12SBC   H00Q 8432   5.195   8.021   7.661
   12SBC   C0AU 8433   5.205   7.817   7.718
   12SBC   H00R 8434   5.313   7.815   7.728
   12SBC   C0AT 8435   5.138   7.694   7.728
   12SBC   C0AS 8436   5.170   7.553   7.720
   12SBC   C0AR 8437   5.282   7.490   7.791
   12SBC   C0BE 8438   5.001   7.697   7.716
   12SBC   C0DN 8439   4.574   7.870   7.609
   12SBC   C0AX 8440   4.920   7.817   7.680
   12SBC   C0BB 8441   4.607   7.639   7.639
   12SBC   C0BD 8442   4.956   7.571   7.692
   12SBC   C0B2 8443   4.651   7.403   7.621
   12SBC   C0AH 8444   4.838   7.214   7.542
   12SBC   C0BF 8445   5.057   7.477   7.681
   12SBC   C0AL 8446   5.061   7.120   7.415
   12SBC   C07U 8447   5.284   7.283   7.640
   12SBC   C0AQ 8448   5.335   7.371   7.742
   12SBC   C0BG 8449   5.365   7.534   7.901
   12SBC   C0FY 8450   5.730   7.486   7.888
   12SBC   C0BJ 8451   5.428   7.666   7.916
   12SBC   H00S 8452   5.387   7.765   7.910
   12SBC   C0FZ 8453   5.781   7.615   7.880
   12SBC   C07S 8454   5.767   7.397   7.783
   12SBC   C0G1 8455   6.085   7.579   7.697
   12SBC   C07K 8456   6.136   7.290   7.472
   12SBC   C07H 8457   5.868   7.231   7.567
   12SBC   C06B 8458   5.969   6.912   7.511
   12SBC   C06N 8459   5.803   6.838   7.368
   12SBC   C066 8460   5.632   7.143   7.546
   12SBC   C062 8461   5.375   7.022   7.393
   12SBC   C05Y 8462   5.602   6.736   7.241
   12SBC   C061 8463   5.301   6.956   7.288
   12SBC   C05H 8464   5.300   6.635   7.129
   12SBC   C06V 8465   5.164   6.918   7.293
   12SBC   C06Y 8466   4.909   6.825   7.267
   12SBC   C05C 8467   5.054   6.522   7.090
   12SBC   C06Z 8468   4.740   6.663   7.229
   12SBC   C070 8469   4.643   6.431   7.114
   12SBC   C05B 8470   5.002   6.405   7.025
   12SBC   C057 8471   4.899   6.161   6.931
   12SBC   C059 8472   4.680   6.223   7.000
   13SBC   C058 8473   6.571   7.635  12.543
   13SBC   C05A 8474   6.676   7.546  12.562
   13SBC   C06Q 8475   6.676   7.447  12.660
   13SBC   C06R 8476   6.781   7.355  12.670
   13SBC   C06S 8477   6.886   7.351  12.577
   13SBC   C06T 8478   6.974   7.240  12.580
   13SBC   C06U 8479   7.088   7.202  12.492
   13SBC   C06X 8480   7.156   7.265  12.388
   13SBC   C060 8481   7.252   7.179  12.322
   13SBC   C05Z 8482   7.378   7.208  12.258
   13SBC   C068 8483   7.469   7.104  12.320
   13SBC   C067 8484   7.607   7.082  12.295
   13SBC   C069 8485   7.679   7.158  12.187
   13SBC   C06A 8486   7.824   7.159  12.152
   13SBC   C073 8487   7.941   7.117  12.220
   13SBC   C07P 8488   8.047   7.201  12.206
   13SBC   C07O 8489   8.045   7.339  12.175
   13SBC   H00D 8490   7.957   7.398  12.152
   13SBC   C07N 8491   8.161   7.414  12.169
   13SBC   H00E 8492   8.141   7.517  12.146
   13SBC   C07M 8493   8.285   7.350  12.170
   13SBC   H00F 8494   8.376   7.406  12.151
   13SBC   C07L 8495   8.297   7.221  12.211
   13SBC   C07Q 8496   8.424   7.156  12.235
   13SBC   H00G 8497   8.515   7.209  12.212
   13SBC   O00F 8498   8.436   7.031  12.284
   13SBC   C07J 8499   8.322   6.965  12.304
   13SBC   C07I 8500   8.190   7.020  12.287
   13SBC   N004 8501   8.074   6.942  12.303
   13SBC   C07R 8502   8.094   6.808  12.346
   13SBC   C07T 8503   8.227   6.761  12.369
   13SBC   C0FX 8504   8.250   6.635  12.421
   13SBC   C0FW 8505   8.368   6.587  12.460
   13SBC   C0G0 8506   8.480   6.660  12.415
   13SBC   C0G2 8507   8.608   6.609  12.430
   13SBC   H01E 8508   8.698   6.657  12.393
   13SBC   C0G3 8509   8.627   6.489  12.498
   13SBC   H01C 8510   8.729   6.458  12.516
   13SBC   C0G4 8511   8.516   6.418  12.546
   13SBC   H01D 8512   8.536   6.335  12.613
   13SBC   O00E 8513   8.469   6.787  12.365
   13SBC   C0FV 8514   8.382   6.460  12.523
   13SBC   C0FU 8515   8.258   6.392  12.563
   13SBC   H01B 8516   8.278   6.305  12.624
   13SBC   C0FT 8517   8.133   6.442  12.522
   13SBC   C0FS 8518   7.991   6.422  12.546
   13SBC   C0BI 8519   7.924   6.489  12.439
   13SBC   C0BH 8520   7.790   6.497  12.464
   13SBC   C07F 8521   7.719   6.621  12.481
   13SBC   C07E 8522   7.735   6.736  12.409
   13SBC   C07G 8523   7.854   6.787  12.365
   13SBC   C074 8524   7.827   6.921  12.324
   13SBC   C065 8525   7.644   6.843  12.420
   13SBC   C064 8526   7.534   6.823  12.502
   13SBC   C063 8527   7.425   6.912  12.516
   13SBC   C075 8528   7.340   6.837  12.615
   13SBC   C0AM 8529   7.404   6.718  12.671
   13SBC   C0AN 8530   7.358   6.629  12.777
   13SBC   C0AO 8531   7.240   6.642  12.878
   13SBC   C0B1 8532   7.226   6.548  12.988
   13SBC   C0B0 8533   7.313   6.444  13.011
   13SBC   C0AZ 8534   7.306   6.351  13.117
   13SBC   C0AY 8535   7.400   6.247  13.128
   13SBC   N007 8536   7.391   6.153  13.230
   13SBC   C0E2 8537   7.485   6.047  13.241
   13SBC   C0E1 8538   7.475   5.961  13.345
   13SBC   C0E4 8539   7.563   5.851  13.357
   13SBC   C0FF 8540   7.566   5.774  13.476
   13SBC   C0FJ 8541   7.638   5.653  13.511
   13SBC   C0FK 8542   7.646   5.537  13.427
   13SBC   H016 8543   7.620   5.526  13.323
   13SBC   C0FL 8544   7.671   5.421  13.517
   13SBC   H017 8545   7.678   5.315  13.499
   13SBC   C0FM 8546   7.666   5.471  13.652
   13SBC   C0FH 8547   7.616   5.438  13.792
   13SBC   C0FI 8548   7.564   5.561  13.837
   13SBC   C0F3 8549   7.441   5.559  13.917
   13SBC   C0F2 8550   7.367   5.671  13.898
   13SBC   C0DW 8551   7.369   5.762  13.795
   13SBC   C0FE 8552   7.472   5.753  13.706
   13SBC   C0DV 8553   7.261   5.840  13.759
   13SBC   C0DX 8554   7.269   5.923  13.648
   13SBC   C0DK 8555   7.163   6.006  13.624
   13SBC   C0DJ 8556   7.043   5.993  13.700
   13SBC   C0DI 8557   6.936   6.068  13.670
   13SBC   C0DH 8558   6.952   6.163  13.568
   13SBC   C0DG 8559   7.069   6.174  13.491
   13SBC   C0BV 8560   7.078   6.261  13.382
   13SBC   C0BC 8561   7.193   6.262  13.301
   13SBC   C0BA 8562   6.974   6.342  13.352
   13SBC   C0B4 8563   6.990   6.443  13.260
   13SBC   C0B3 8564   7.100   6.448  13.177
   13SBC   C0B5 8565   6.894   6.539  13.253
   13SBC   C0BU 8566   6.775   6.534  13.330
   13SBC   C0BT 8567   6.750   6.430  13.413
   13SBC   C0BS 8568   6.623   6.412  13.467
   13SBC   C0CC 8569   6.607   6.309  13.562
   13SBC   C0CB 8570   6.480   6.273  13.612
   13SBC   C0CH 8571   6.475   6.177  13.719
   13SBC   C0DO 8572   6.587   6.112  13.768
   13SBC   C0DP 8573   6.573   6.018  13.871
   13SBC   C0EA 8574   6.447   6.000  13.944
   13SBC   H012 8575   6.360   6.063  13.934
   13SBC   O009 8576   6.440   5.905  14.048
   13SBC   C0EH 8577   6.550   5.824  14.071
   13SBC   C0EG 8578   6.526   5.720  14.159
   13SBC   C0EJ 8579   6.415   5.673  14.228
   13SBC   H010 8580   6.323   5.729  14.220
   13SBC   C0EK 8581   6.446   5.555  14.306
   13SBC   H00Z 8582   6.378   5.509  14.376
   13SBC   C0EL 8583   6.576   5.529  14.262
   13SBC   C0EM 8584   6.671   5.421  14.291
   13SBC   C0EW 8585   6.648   5.313  14.385
   13SBC   H013 8586   6.555   5.304  14.440
   13SBC   C0EX 8587   6.756   5.218  14.411
   13SBC   H014 8588   6.748   5.142  14.487
   13SBC   C0F1 8589   6.882   5.230  14.339
   13SBC   C0EU 8590   6.899   5.331  14.240
   13SBC   C0ET 8591   7.010   5.359  14.164
   13SBC   C0ES 8592   6.973   5.477  14.086
   13SBC   C0EE 8593   6.840   5.515  14.124
   13SBC   C0ED 8594   6.748   5.629  14.114
   13SBC   C0EC 8595   6.776   5.740  14.030
   13SBC   C0EB 8596   6.900   5.771  13.962
   13SBC   C0EN 8597   7.019   5.701  13.992
   13SBC   C0ER 8598   7.138   5.750  13.939
   13SBC   C0DS 8599   6.907   5.874  13.866
   13SBC   C0DR 8600   6.804   5.957  13.837
   13SBC   C0EY 8601   7.061   5.580  14.064
   13SBC   C0EZ 8602   7.199   5.553  14.044
   13SBC   C0F5 8603   7.290   5.435  14.056
   13SBC   C0F6 8604   7.256   5.312  14.123
   13SBC   N008 8605   7.364   5.214  14.134
   13SBC   C0F7 8606   7.488   5.224  14.057
   13SBC   C0FQ 8607   7.585   5.119  14.076
   13SBC   H018 8608   7.677   5.133  14.022
   13SBC   C0FP 8609   7.567   5.016  14.164
   13SBC   H019 8610   7.638   4.938  14.185
   13SBC   C0FO 8611   7.448   5.010  14.233
   13SBC   H01A 8612   7.442   4.924  14.299
   13SBC   C0F8 8613   7.495   5.332  13.968
   13SBC   C0F9 8614   7.343   5.105  14.225
   13SBC   C0FA 8615   7.225   5.088  14.302
   13SBC   H015 8616   7.213   5.008  14.374
   13SBC   C0FB 8617   7.115   5.177  14.283
   13SBC   C0FD 8618   7.134   5.286  14.197
   13SBC   C0FC 8619   6.989   5.149  14.355
   13SBC   O00A 8620   6.983   5.056  14.438
   13SBC   C0EV 8621   6.797   5.425  14.223
   13SBC   C0EF 8622   6.617   5.629  14.174
   13SBC   C0EI 8623   6.674   5.834  14.006
   13SBC   C0DQ 8624   6.682   5.936  13.905
   13SBC   C0CE 8625   6.711   6.139  13.706
   13SBC   H00U 8626   6.377   6.155  13.759
   13SBC   C0CA 8627   6.366   6.320  13.540
   13SBC   C0C9 8628   6.376   6.439  13.457
   13SBC   C0C8 8629   6.257   6.486  13.391
   13SBC   C0C7 8630   6.228   6.622  13.349
   13SBC   C0C6 8631   6.096   6.632  13.294
   13SBC   C0C5 8632   5.991   6.734  13.274
   13SBC   C0CQ 8633   5.851   6.699  13.279
   13SBC   C0D1 8634   5.823   6.577  13.332
   13SBC   C0D8 8635   5.725   6.593  13.428
   13SBC   C0D7 8636   5.662   6.716  13.394
   13SBC   C0D6 8637   5.562   6.781  13.472
   13SBC   C0D5 8638   5.504   6.909  13.431
   13SBC   C0D4 8639   5.547   7.012  13.343
   13SBC   C0D3 8640   5.498   7.134  13.395
   13SBC   C0CX 8641   5.584   7.244  13.338
   13SBC   C0CW 8642   5.705   7.174  13.293
   13SBC   C0CV 8643   5.838   7.215  13.239
   13SBC   C0D2 8644   5.871   7.353  13.202
   13SBC   C09D 8645   5.793   7.474  13.222
   13SBC   C09C 8646   5.833   7.599  13.165
   13SBC   C09B 8647   5.755   7.716  13.156
   13SBC   C09A 8648   5.627   7.704  13.214
   13SBC   C099 8649   5.591   7.599  13.291
   13SBC   C098 8650   5.450   7.591  13.305
   13SBC   C08Y 8651   5.399   7.689  13.209
   13SBC   C08X 8652   5.262   7.694  13.151
   13SBC   C08W 8653   5.153   7.611  13.202
   13SBC   C08U 8654   5.168   7.493  13.288
   13SBC   C08V 8655   5.278   7.408  13.333
   13SBC   C0DC 8656   5.225   7.317  13.433
   13SBC   H00W 8657   5.277   7.251  13.501
   13SBC   C0DB 8658   5.085   7.322  13.429
   13SBC   H00X 8659   5.011   7.267  13.485
   13SBC   C08T 8660   5.054   7.432  13.346
   13SBC   C08S 8661   4.929   7.480  13.321
   13SBC   H00N 8662   4.839   7.431  13.356
   13SBC   C08R 8663   4.904   7.577  13.224
   13SBC   C08Q 8664   4.777   7.611  13.176
   13SBC   H00O 8665   4.689   7.566  13.219
   13SBC   C08P 8666   4.749   7.695  13.067
   13SBC   C08O 8667   4.619   7.734  13.029
   13SBC   H00P 8668   4.540   7.698  13.093
   13SBC   C08N 8669   4.602   7.824  12.921
   13SBC   C08M 8670   4.472   7.866  12.880
   13SBC   O008 8671   4.377   7.840  12.955
   13SBC   O007 8672   4.460   7.933  12.763
   13SBC   C08H 8673   4.567   7.983  12.693
   13SBC   C08G 8674   4.561   8.063  12.570
   13SBC   C03V 8675   4.448   8.096  12.500
   13SBC   H009 8676   4.354   8.075  12.547
   13SBC   C03U 8677   4.448   8.143  12.364
   13SBC   C03W 8678   4.327   8.170  12.283
   13SBC   H00A 8679   4.233   8.134  12.320
   13SBC   C03X 8680   4.339   8.224  12.159
   13SBC   H00B 8681   4.249   8.242  12.102
   13SBC   O005 8682   4.460   8.262  12.099
   13SBC   C03O 8683   4.572   8.235  12.176
   13SBC   C03N 8684   4.692   8.271  12.118
   13SBC   O000 8685   4.691   8.317  11.988
   13SBC   C019 8686   4.816   8.333  11.934
   13SBC   C018 8687   4.936   8.341  12.011
   13SBC   C017 8688   4.935   8.296  12.144
   13SBC   C016 8689   5.052   8.285  12.216
   13SBC   C015 8690   5.166   8.338  12.152
   13SBC   C014 8691   5.285   8.327  12.220
   13SBC   C013 8692   5.307   8.267  12.345
   13SBC   C012 8693   5.450   8.278  12.371
   13SBC   C011 8694   5.497   8.363  12.266
   13SBC   C010 8695   5.632   8.408  12.266
   13SBC   C00Z 8696   5.700   8.453  12.161
   13SBC   C00Y 8697   5.830   8.424  12.198
   13SBC   C01O 8698   5.847   8.369  12.324
   13SBC   C01P 8699   5.953   8.274  12.341
   13SBC   C02L 8700   5.934   8.187  12.445
   13SBC   C02K 8701   5.803   8.184  12.503
   13SBC   C01M 8702   5.681   8.245  12.447
   13SBC   C02J 8703   5.804   8.107  12.626
   13SBC   C02I 8704   5.699   8.088  12.711
   13SBC   C02H 8705   5.558   8.112  12.688
   13SBC   C01Q 8706   5.488   8.164  12.575
   13SBC   C02G 8707   5.348   8.154  12.609
   13SBC   C089 8708   5.336   8.114  12.738
   13SBC   C088 8709   5.220   8.036  12.756
   13SBC   C087 8710   5.140   8.077  12.638
   13SBC   C086 8711   5.001   8.048  12.618
   13SBC   C03S 8712   4.918   8.110  12.520
   13SBC   N006 8713   4.793   8.077  12.564
   13SBC   C08F 8714   4.798   8.000  12.679
   13SBC   C01J 8715   4.934   8.177  12.400
   13SBC   C03R 8716   4.817   8.201  12.325
   13SBC   C03Q 8717   4.691   8.170  12.380
   13SBC   C08E 8718   4.925   7.976  12.717
   13SBC   C08D 8719   4.953   7.901  12.835
   13SBC   C08K 8720   4.842   7.835  12.892
   13SBC   C08C 8721   5.079   7.886  12.898
   13SBC   C091 8722   5.095   7.797  13.007
   13SBC   C092 8723   4.989   7.726  13.060
   13SBC   C08B 8724   5.202   7.948  12.873
   13SBC   C090 8725   5.295   7.900  12.979
   13SBC   C094 8726   5.433   7.935  12.998
   13SBC   C095 8727   5.522   7.870  13.076
   13SBC   C09R 8728   5.656   7.888  13.027
   13SBC   C097 8729   5.644   7.971  12.914
   13SBC   C096 8730   5.508   8.000  12.895
   13SBC   C01I 8731   5.219   8.153  12.541
   13SBC   C08A 8732   5.468   8.068  12.780
   13SBC   C09L 8733   5.738   8.016  12.816
   13SBC   C09K 8734   5.882   7.987  12.803
   13SBC   C09J 8735   5.956   7.905  12.889
   13SBC   C09I 8736   6.065   7.830  12.837
   13SBC   C09O 8737   6.158   7.832  12.726
   13SBC   C09N 8738   6.147   7.926  12.616
   13SBC   C09M 8739   6.040   8.015  12.585
   13SBC   C06O 8740   6.261   7.927  12.522
   13SBC   C05M 8741   6.371   7.835  12.537
   13SBC   C06P 8742   6.368   7.738  12.637
   13SBC   C042 8743   6.469   7.829  12.441
   13SBC   C041 8744   6.466   7.908  12.328
   13SBC   C040 8745   6.565   7.900  12.228
   13SBC   C03Z 8746   6.559   7.977  12.111
   13SBC   C03Y 8747   6.451   8.059  12.095
   13SBC   C027 8748   6.446   8.133  11.977
   13SBC   C026 8749   6.338   8.215  11.959
   13SBC   C028 8750   6.327   8.285  11.838
   13SBC   C029 8751   6.419   8.267  11.738
   13SBC   C02B 8752   6.408   8.332  11.624
   13SBC   C02C 8753   6.507   8.319  11.524
   13SBC   C02X 8754   6.486   8.377  11.397
   13SBC   C03E 8755   6.580   8.350  11.298
   13SBC   C03G 8756   6.692   8.278  11.313
   13SBC   C04Q 8757   6.709   8.217  11.437
   13SBC   C04R 8758   6.818   8.132  11.458
   13SBC   C04S 8759   6.836   8.073  11.580
   13SBC   C04L 8760   6.740   8.090  11.681
   13SBC   C04M 8761   6.628   8.168  11.659
   13SBC   C04K 8762   6.753   8.023  11.804
   13SBC   C04F 8763   6.867   7.946  11.822
   13SBC   C04E 8764   6.961   7.928  11.725
   13SBC   C04D 8765   7.067   7.842  11.749
   13SBC   C050 8766   7.169   7.837  11.655
   13SBC   C051 8767   7.280   7.752  11.679
   13SBC   C05Q 8768   7.379   7.745  11.586
   13SBC   C05V 8769   7.492   7.662  11.615
   13SBC   N005 8770   7.592   7.646  11.515
   13SBC   C07V 8771   7.574   7.720  11.396
   13SBC   C082 8772   7.680   7.722  11.302
   13SBC   C081 8773   7.796   7.642  11.322
   13SBC   C07C 8774   7.801   7.563  11.436
   13SBC   C07B 8775   7.914   7.480  11.456
   13SBC   C080 8776   8.011   7.464  11.355
   13SBC   C07Z 8777   8.111   7.367  11.374
   13SBC   H00L 8778   8.188   7.359  11.299
   13SBC   C079 8779   8.116   7.276  11.483
   13SBC   C078 8780   8.016   7.297  11.578
   13SBC   C077 8781   8.021   7.221  11.698
   13SBC   C07X 8782   8.126   7.123  11.712
   13SBC   H00I 8783   8.124   7.059  11.799
   13SBC   C07Y 8784   8.218   7.091  11.612
   13SBC   H00H 8785   8.297   7.019  11.625
   13SBC   C076 8786   7.931   7.244  11.800
   13SBC   C06C 8787   7.949   7.183  11.925
   13SBC   H00C 8788   8.032   7.121  11.955
   13SBC   C06F 8789   7.824   7.335  11.782
   13SBC   C06E 8790   7.717   7.340  11.869
   13SBC   C06G 8791   7.608   7.419  11.862
   13SBC   C06H 8792   7.603   7.498  11.751
   13SBC   C06I 8793   7.704   7.490  11.656
   13SBC   C06L 8794   7.505   7.426  11.963
   13SBC   C06M 8795   7.505   7.327  12.078
   13SBC   C06K 8796   7.396   7.510  11.941
   13SBC   C05S 8797   7.391   7.588  11.823
   13SBC   C05U 8798   7.287   7.508  12.031
   13SBC   C05X 8799   7.286   7.420  12.142
   13SBC   C05G 8800   7.177   7.451  12.232
   13SBC   C05F 8801   7.092   7.555  12.205
   13SBC   C05E 8802   6.983   7.557  12.292
   13SBC   C048 8803   6.883   7.651  12.287
   13SBC   C056 8804   6.781   7.642  12.373
   13SBC   C045 8805   6.674   7.729  12.354
   13SBC   C047 8806   6.883   7.731  12.172
   13SBC   C049 8807   6.990   7.727  12.083
   13SBC   C04B 8808   6.980   7.788  11.963
   13SBC   C046 8809   6.776   7.812  12.153
   13SBC   C04H 8810   6.771   7.882  12.040
   13SBC   C05D 8811   6.991   7.455  12.384
   13SBC   C04A 8812   7.097   7.639  12.097
   13SBC   C05T 8813   7.196   7.614  12.012
   13SBC   C055 8814   7.193   7.696  11.897
   13SBC   C06D 8815   7.725   7.260  11.984
   13SBC   C07W 8816   7.818   7.414  11.673
   13SBC   C085 8817   8.218   7.175  11.502
   13SBC   H00M 8818   8.291   7.169  11.423
   13SBC   C084 8819   8.010   7.554  11.247
   13SBC   H00J 8820   8.082   7.547  11.167
   13SBC   C07A 8821   7.919   7.400  11.568
   13SBC   C083 8822   7.903   7.640  11.231
   13SBC   H00K 8823   7.892   7.700  11.141
   13SBC   O00K 8824   7.661   7.781  11.172
   13SBC   C0GO 8825   7.565   7.862  11.155
   13SBC   C0GN 8826   7.548   7.921  11.033
   13SBC   H01L 8827   7.613   7.910  10.947
   13SBC   C0GM 8828   7.430   8.000  11.000
   13SBC   C0GL 8829   7.423   8.052  10.881
   13SBC   H01M 8830   7.507   8.037  10.814
   13SBC   O00J 8831   7.310   8.111  10.833
   13SBC   C0GK 8832   7.207   8.119  10.925
   13SBC   H01N 8833   7.118   8.155  10.875
   13SBC   C05K 8834   7.214   8.072  11.053
   13SBC   C05J 8835   7.109   8.082  11.146
   13SBC   C04Y 8836   6.984   8.153  11.128
   13SBC   C04X 8837   6.888   8.175  11.226
   13SBC   O006 8838   6.954   8.210  11.005
   13SBC   C053 8839   6.833   8.267  10.970
   13SBC   C04O 8840   6.741   8.293  11.073
   13SBC   C03C 8841   6.616   8.359  11.061
   13SBC   C03B 8842   6.530   8.408  10.951
   13SBC   C054 8843   6.552   8.361  10.821
   13SBC   C0GR 8844   6.454   8.376  10.719
   13SBC   C03M 8845   6.317   8.424  10.711
   13SBC   C03I 8846   6.237   8.466  10.826
   13SBC   C03J 8847   6.100   8.501  10.794
   13SBC   N002 8848   6.010   8.544  10.898
   13SBC   C02U 8849   5.871   8.572  10.871
   13SBC   C02T 8850   5.775   8.596  10.969
   13SBC   C02Z 8851   5.638   8.618  10.943
   13SBC   N001 8852   5.545   8.625  11.049
   13SBC   C02R 8853   5.404   8.626  11.024
   13SBC   C032 8854   5.359   8.609  10.891
   13SBC   C031 8855   5.455   8.593  10.788
   13SBC   H007 8856   5.426   8.566  10.688
   13SBC   C033 8857   5.217   8.603  10.875
   13SBC   H003 8858   5.179   8.579  10.777
   13SBC   O004 8859   5.127   8.638  10.972
   13SBC   C034 8860   5.175   8.654  11.098
   13SBC   C035 8861   5.079   8.686  11.197
   13SBC   C036 8862   5.124   8.724  11.323
   13SBC   H005 8863   5.055   8.764  11.396
   13SBC   C037 8864   5.264   8.718  11.348
   13SBC   H006 8865   5.292   8.753  11.446
   13SBC   C00D 8866   5.355   8.666  11.254
   13SBC   C00C 8867   5.491   8.647  11.280
   13SBC   C00B 8868   5.539   8.636  11.422
   13SBC   C00A 8869   5.491   8.639  11.563
   13SBC   C009 8870   5.609   8.644  11.643
   13SBC   C008 8871   5.626   8.593  11.776
   13SBC   C007 8872   5.510   8.544  11.845
   13SBC   C006 8873   5.526   8.507  11.979
   13SBC   C005 8874   5.407   8.454  12.038
   13SBC   C004 8875   5.289   8.436  11.959
   13SBC   C003 8876   5.287   8.462  11.822
   13SBC   C002 8877   5.177   8.425  11.747
   13SBC   C01C 8878   5.056   8.396  11.805
   13SBC   C01B 8879   4.933   8.377  11.727
   13SBC   H000 8880   4.919   8.394  11.621
   13SBC   C001 8881   5.189   8.428  11.612
   13SBC   C000 8882   5.303   8.478  11.551
   13SBC   C01U 8883   5.314   8.404  11.432
   13SBC   H002 8884   5.393   8.404  11.358
   13SBC   C01T 8885   5.196   8.321  11.419
   13SBC   O002 8886   5.161   8.244  11.335
   13SBC   O001 8887   5.130   8.328  11.535
   13SBC   C01S 8888   5.394   8.524  11.768
   13SBC   C00N 8889   5.758   8.566  11.818
   13SBC   C00M 8890   5.865   8.566  11.728
   13SBC   C00J 8891   5.848   8.607  11.594
   13SBC   C00I 8892   5.936   8.580  11.497
   13SBC   C00H 8893   5.900   8.594  11.364
   13SBC   C00G 8894   5.770   8.619  11.330
   13SBC   C00F 8895   5.725   8.626  11.203
   13SBC   C01X 8896   5.989   8.560  11.264
   13SBC   C01W 8897   6.118   8.520  11.300
   13SBC   C01V 8898   6.151   8.498  11.432
   13SBC   C020 8899   6.272   8.447  11.472
   13SBC   C01Z 8900   6.206   8.493  11.198
   13SBC   C02Y 8901   6.330   8.459  11.241
   13SBC   C039 8902   6.424   8.440  11.140
   13SBC   C02W 8903   6.180   8.505  11.060
   13SBC   C01Y 8904   5.950   8.561  11.131
   13SBC   C00U 8905   6.057   8.521  11.528
   13SBC   C00S 8906   6.085   8.488  11.661
   13SBC   C00T 8907   6.202   8.423  11.695
   13SBC   C00R 8908   5.985   8.509  11.760
   13SBC   C00Q 8909   6.004   8.460  11.889
   13SBC   C00V 8910   6.124   8.393  11.917
   13SBC   C024 8911   6.142   8.327  12.038
   13SBC   C00X 8912   6.043   8.339  12.130
   13SBC   C00P 8913   5.900   8.464  11.975
   13SBC   C00O 8914   5.773   8.515  11.944
   13SBC   C00K 8915   5.723   8.656  11.561
   13SBC   N000 8916   5.397   8.549  11.626
   13SBC   C00L 8917   5.679   8.635  11.433
   13SBC   H004 8918   4.973   8.683  11.180
   13SBC   C02Q 8919   5.312   8.646  11.125
   13SBC   C00E 8920   5.589   8.633  11.181
   13SBC   C030 8921   5.594   8.607  10.809
   13SBC   O003 8922   5.691   8.604  10.712
   13SBC   C02S 8923   5.816   8.598  11.104
   13SBC   C038 8924   5.822   8.578  10.740
   13SBC   C03L 8925   5.916   8.545  10.642
   13SBC   H008 8926   5.886   8.532  10.539
   13SBC   C02V 8927   6.048   8.540  11.029
   13SBC   C03K 8928   6.046   8.506  10.664
   13SBC   C0BK 8929   6.131   8.463  10.564
   13SBC   H00T 8930   6.094   8.462  10.462
   13SBC   C03H 8931   6.271   8.470  10.960
   13SBC   C0BL 8932   6.260   8.419  10.580
   13SBC   C0GU 8933   6.335   8.382  10.472
   13SBC   H01O 8934   6.283   8.369  10.378
   13SBC   C0GT 8935   6.471   8.337  10.474
   13SBC   H01P 8936   6.521   8.301  10.385
   13SBC   C0GS 8937   6.528   8.341  10.595
   13SBC   C0GV 8938   6.664   8.311  10.625
   13SBC   C0GW 8939   6.780   8.268  10.545
   13SBC   H01Q 8940   6.774   8.262  10.437
   13SBC   C0GX 8941   6.895   8.256  10.613
   13SBC   H01R 8942   6.983   8.235  10.555
   13SBC   O00L 8943   6.915   8.264  10.750
   13SBC   C0GQ 8944   6.678   8.318  10.766
   13SBC   C03A 8945   6.401   8.442  11.003
   13SBC   C05L 8946   6.804   8.289  10.831
   13SBC   C04W 8947   7.125   8.027  11.274
   13SBC   C05I 8948   7.237   7.957  11.311
   13SBC   C05O 8949   7.343   7.944  11.219
   13SBC   C052 8950   7.250   7.889  11.435
   13SBC   C04V 8951   7.026   8.036  11.375
   13SBC   C04U 8952   7.041   7.977  11.505
   13SBC   N009 8953   7.329   8.006  11.093
   13SBC   C0GP 8954   7.461   7.873  11.249
   13SBC   C05W 8955   7.463   7.803  11.371
   13SBC   C07D 8956   7.701   7.563  11.536
   13SBC   C06J 8957   7.494   7.583  11.732
   13SBC   C05P 8958   7.366   7.815  11.462
   13SBC   C05R 8959   7.289   7.678  11.796
   13SBC   C04Z 8960   7.154   7.902  11.534
   13SBC   C04C 8961   7.083   7.776  11.872
   13SBC   C04G 8962   6.876   7.877  11.942
   13SBC   C04J 8963   6.654   8.032  11.897
   13SBC   C04T 8964   6.945   7.989  11.602
   13SBC   N003 8965   6.911   8.114  11.352
   13SBC   C04P 8966   6.778   8.257  11.206
   13SBC   C03D 8967   6.551   8.398  11.171
   13SBC   C021 8968   6.366   8.429  11.370
   13SBC   C03F 8969   6.617   8.239  11.539
   13SBC   C022 8970   6.294   8.401  11.596
   13SBC   C02A 8971   6.526   8.177  11.755
   13SBC   C023 8972   6.218   8.370  11.819
   13SBC   C025 8973   6.250   8.241  12.061
   13SBC   C02D 8974   6.253   8.164  12.175
   13SBC   C02E 8975   6.152   8.178  12.268
   13SBC   C02N 8976   6.149   8.091  12.383
   13SBC   C04N 8977   6.541   8.112  11.879
   13SBC   C02P 8978   6.353   8.072  12.196
   13SBC   C04I 8979   6.661   7.963  12.016
   13SBC   C044 8980   6.672   7.811  12.245
   13SBC   C043 8981   6.361   7.999  12.314
   13SBC   C05N 8982   6.253   8.005  12.406
   13SBC   C09U 8983   6.261   7.734  12.732
   13SBC   C09V 8984   6.262   7.627  12.823
   13SBC   C09X 8985   6.165   7.613  12.918
   13SBC   C09Y 8986   6.137   7.503  12.995
   13SBC   C0A1 8987   6.231   7.406  12.987
   13SBC   C0A2 8988   6.345   7.418  12.905
   13SBC   C0A4 8989   6.445   7.321  12.915
   13SBC   C071 8990   6.558   7.340  12.841
   13SBC   C0A5 8991   6.663   7.255  12.858
   13SBC   C0A9 8992   6.657   7.160  12.955
   13SBC   C0A8 8993   6.540   7.140  13.028
   13SBC   C0AP 8994   6.524   7.036  13.114
   13SBC   C0BY 8995   6.405   7.026  13.183
   13SBC   C0BX 8996   6.292   7.097  13.156
   13SBC   C0C2 8997   6.169   7.057  13.207
   13SBC   C0C3 8998   6.064   7.147  13.186
   13SBC   C0CT 8999   6.088   7.271  13.134
   13SBC   C0C1 9000   6.150   6.930  13.267
   13SBC   C0C0 9001   6.270   6.859  13.309
   13SBC   C0A7 9002   6.309   7.199  13.065
   13SBC   C0BZ 9003   6.387   6.921  13.269
   13SBC   C0BO 9004   6.497   6.833  13.292
   13SBC   C0BN 9005   6.612   6.838  13.209
   13SBC   C0BM 9006   6.699   6.733  13.220
   13SBC   C0B9 9007   6.812   6.739  13.141
   13SBC   C0B8 9008   6.835   6.848  13.060
   13SBC   C0AD 9009   6.741   6.951  13.054
   13SBC   C0AF 9010   6.944   6.852  12.976
   13SBC   C0AG 9011   7.041   6.748  12.975
   13SBC   C0B7 9012   7.020   6.642  13.069
   13SBC   C0AE 9013   6.946   6.956  12.889
   13SBC   C0AB 9014   6.857   7.061  12.881
   13SBC   C0AA 9015   6.867   7.157  12.779
   13SBC   C0AJ 9016   7.049   6.948  12.795
   13SBC   C0AK 9017   7.058   7.049  12.703
   13SBC   C06W 9018   7.158   7.008  12.621
   13SBC   C0AI 9019   7.144   6.843  12.779
   13SBC   C0BP 9020   6.454   6.716  13.348
   13SBC   C0BQ 9021   6.547   6.603  13.357
   13SBC   C0BW 9022   6.626   6.945  13.125
   13SBC   C0AC 9023   6.753   7.060  12.967
   13SBC   C0A6 9024   6.431   7.218  12.999
   13SBC   C0A3 9025   6.209   7.290  13.060
   13SBC   C09Z 9026   6.031   7.496  13.084
   13SBC   C09W 9027   6.365   7.529  12.825
   13SBC   C072 9028   6.468   7.538  12.735
   13SBC   C09H 9029   6.080   7.725  12.934
   13SBC   C09G 9030   5.977   7.715  13.025
   13SBC   C09P 9031   5.898   7.824  13.000
   13SBC   C02O 9032   5.921   8.034  12.676
   13SBC   C02M 9033   6.037   8.095  12.476
   13SBC   C02F 9034   6.053   8.273  12.247
   13SBC   C00W 9035   5.926   8.410  12.100
   13SBC   C01R 9036   5.659   8.494  12.024
   13SBC   C01N 9037   5.716   8.344  12.356
   13SBC   C01L 9038   5.541   8.218  12.463
   13SBC   C01H 9039   5.189   8.214  12.412
   13SBC   C01K 9040   5.400   8.391  12.169
   13SBC   C01E 9041   5.172   8.387  12.017
   13SBC   C01G 9042   5.061   8.228  12.347
   13SBC   C01D 9043   5.054   8.374  11.945
   13SBC   C01A 9044   4.817   8.365  11.794
   13SBC   H001 9045   4.724   8.366  11.740
   13SBC   C01F 9046   4.816   8.255  12.192
   13SBC   C03P 9047   4.570   8.177  12.304
   13SBC   C03T 9048   4.680   8.104  12.500
   13SBC   C08I 9049   4.693   7.947  12.741
   13SBC   C08J 9050   4.711   7.862  12.848
   13SBC   C08L 9051   4.861   7.754  13.005
   13SBC   C093 9052   5.017   7.631  13.160
   13SBC   C08Z 9053   5.229   7.792  13.051
   13SBC   C09T 9054   5.420   7.452  13.325
   13SBC   C09S 9055   5.508   7.760  13.161
   13SBC   C09Q 9056   5.779   7.821  13.063
   13SBC   C09F 9057   5.950   7.599  13.100
   13SBC   C09E 9058   5.658   7.476  13.275
   13SBC   C0A0 9059   5.996   7.372  13.142
   13SBC   C0CU 9060   5.934   7.108  13.232
   13SBC   C0CR 9061   5.912   6.969  13.261
   13SBC   C0CZ 9062   5.782   6.930  13.299
   13SBC   C0DA 9063   5.555   7.386  13.321
   13SBC   C0D9 9064   5.474   7.113  13.538
   13SBC   H00V 9065   5.480   7.187  13.617
   13SBC   C0CY 9066   5.679   7.031  13.302
   13SBC   C0DF 9067   5.459   6.969  13.552
   13SBC   C0DE 9068   5.454   6.870  13.656
   13SBC   C0GI 9069   5.403   6.869  13.789
   13SBC   H01K 9070   5.356   6.956  13.832
   13SBC   C0GJ 9071   5.418   6.755  13.859
   13SBC   H01J 9072   5.372   6.752  13.957
   13SBC   O00I 9073   5.484   6.640  13.816
   13SBC   C0GH 9074   5.545   6.642  13.690
   13SBC   C0GG 9075   5.622   6.527  13.657
   13SBC   O00G 9076   5.607   6.425  13.747
   13SBC   C0G8 9077   5.687   6.312  13.740
   13SBC   C0G9 9078   5.649   6.205  13.817
   13SBC   H01G 9079   5.558   6.209  13.875
   13SBC   C0GA 9080   5.714   6.088  13.802
   13SBC   H01H 9081   5.662   6.006  13.850
   13SBC   C0GB 9082   5.836   6.072  13.738
   13SBC   C0EP 9083   5.884   6.194  13.680
   13SBC   C0E8 9084   6.025   6.197  13.643
   13SBC   C0CK 9085   6.105   6.295  13.585
   13SBC   C0CL 9086   6.056   6.376  13.480
   13SBC   C0E9 9087   5.923   6.421  13.472
   13SBC   C0GE 9088   5.813   6.414  13.562
   13SBC   C0E7 9089   6.105   6.081  13.634
   13SBC   C0CJ 9090   6.233   6.102  13.584
   13SBC   C0E6 9091   6.309   5.989  13.549
   13SBC   H00Y 9092   6.405   5.988  13.499
   13SBC   C0EO 9093   6.251   5.865  13.580
   13SBC   H011 9094   6.314   5.780  13.561
   13SBC   C0G6 9095   6.123   5.848  13.645
   13SBC   C0G5 9096   6.056   5.719  13.673
   13SBC   H01F 9097   6.101   5.628  13.637
   13SBC   C0GD 9098   5.935   5.718  13.737
   13SBC   H01I 9099   5.891   5.621  13.752
   13SBC   O00H 9100   5.867   5.834  13.774
   13SBC   C0EQ 9101   6.043   5.959  13.671
   13SBC   C0GC 9102   5.918   5.950  13.728
   13SBC   C0G7 9103   5.805   6.308  13.659
   13SBC   C0DD 9104   5.516   6.751  13.603
   13SBC   C0GF 9105   5.718   6.517  13.549
   13SBC   C0CO 9106   5.923   6.489  13.350
   13SBC   C0D0 9107   5.756   6.793  13.318
   13SBC   C0C4 9108   6.022   6.874  13.269
   13SBC   C0CN 9109   6.049   6.504  13.287
   13SBC   C0CP 9110   6.312   6.733  13.363
   13SBC   C0CM 9111   6.132   6.418  13.363
   13SBC   C0CI 9112   6.244   6.245  13.574
   13SBC   C0CD 9113   6.719   6.232  13.605
   13SBC   C0BR 9114   6.512   6.487  13.427
   13SBC   C0CS 9115   6.677   6.624  13.306
   13SBC   C0B6 9116   6.909   6.637  13.150
   13SBC   C0CG 9117   6.853   6.337  13.431
   13SBC   C0CF 9118   6.842   6.242  13.536
   13SBC   C0E5 9119   6.819   6.056  13.739
   13SBC   C0DT 9120   7.030   5.901  13.800
   13SBC   C0DL 9121   7.169   6.085  13.515
   13SBC   C0DM 9122   7.276   6.079  13.424
   13SBC   C0DY 9123   7.376   5.908  13.559
   13SBC   C0DU 9124   7.146   5.833  13.827
   13SBC   C0F0 9125   7.243   5.662  13.966
   13SBC   C0F4 9126   7.408   5.445  13.980
   13SBC   C0FG 9127   7.572   5.660  13.736
   13SBC   O00B 9128   7.594   5.323  13.870
   13SBC   C0FN 9129   7.656   5.616  13.645
   13SBC   C0DZ 9130   7.478   5.815  13.582
   13SBC   O00C 9131   7.647   5.825  13.250
   13SBC   C0FR 9132   7.680   5.922  13.156
   13SBC   O00D 9133   7.787   5.905  13.088
   13SBC   C0E0 9134   7.380   5.982  13.441
   13SBC   C0E3 9135   7.584   6.031  13.141
   13SBC   C0AW 9136   7.590   6.120  13.030
   13SBC   C0AV 9137   7.684   6.114  12.923
   13SBC   H00Q 9138   7.757   6.038  12.903
   13SBC   C0AU 9139   7.673   6.206  12.813
   13SBC   H00R 9140   7.742   6.197  12.730
   13SBC   C0AT 9141   7.582   6.313  12.815
   13SBC   C0AS 9142   7.555   6.438  12.742
   13SBC   C0AR 9143   7.653   6.487  12.653
   13SBC   C0BE 9144   7.493   6.306  12.919
   13SBC   C0DN 9145   7.287   6.171  13.319
   13SBC   C0AX 9146   7.495   6.219  13.031
   13SBC   C0BB 9147   7.200   6.355  13.198
   13SBC   C0BD 9148   7.409   6.421  12.911
   13SBC   C0B2 9149   7.116   6.548  13.074
   13SBC   C0AH 9150   7.145   6.741  12.880
   13SBC   C0BF 9151   7.436   6.508  12.800
   13SBC   C0AL 9152   7.212   6.882  12.659
   13SBC   C07U 9153   7.523   6.704  12.585
   13SBC   C0AQ 9154   7.623   6.608  12.578
   13SBC   C0BG 9155   7.758   6.415  12.578
   13SBC   C0FY 9156   8.009   6.592  12.397
   13SBC   C0BJ 9157   7.890   6.372  12.635
   13SBC   H00S 9158   7.907   6.328  12.732
   13SBC   C0FZ 9159   8.138   6.556  12.438
   13SBC   C07S 9160   7.982   6.725  12.358
   13SBC   C0G1 9161   8.341   6.836  12.346
   13SBC   C07K 9162   8.178   7.149  12.239
   13SBC   C07H 9163   7.940   6.993  12.281
   13SBC   C06B 9164   7.840   7.200  12.017
   13SBC   C06N 9165   7.631   7.250  12.086
   13SBC   C066 9166   7.687   6.960  12.343
   13SBC   C062 9167   7.394   7.017  12.413
   13SBC   C05Y 9168   7.392   7.315  12.161
   13SBC   C061 9169   7.258   7.058  12.396
   13SBC   C05H 9170   7.115   7.390  12.345
   13SBC   C06V 9171   7.165   7.084  12.507
   13SBC   C06Y 9172   6.959   7.151  12.681
   13SBC   C05C 9173   6.887   7.451  12.477
   13SBC   C06Z 9174   6.774   7.257  12.770
   13SBC   C070 9175   6.570   7.443  12.747
   13SBC   C05B 9176   6.786   7.546  12.473
   13SBC   C057 9177   6.568   7.731  12.445
   13SBC   C059 9178   6.470   7.640  12.642
   14SBC   C058 9179   0.800   4.436  12.859
   14SBC   C05A 9180   0.787   4.571  12.909
   14SBC   C06Q 9181   0.776   4.599  13.043
   14SBC   C06R 9182   0.775   4.732  13.091
   14SBC   C06S 9183   0.783   4.843  13.001
   14SBC   C06T 9184   0.775   4.976  13.061
   14SBC   C06U 9185   0.810   5.104  12.999
   14SBC   C06X 9186   0.834   5.144  12.868
   14SBC   C060 9187   0.879   5.281  12.860
   14SBC   C05Z 9188   0.848   5.388  12.767
   14SBC   C068 9189   0.818   5.510  12.853
   14SBC   C067 9190   0.765   5.640  12.812
   14SBC   C069 9191   0.755   5.680  12.670
   14SBC   C06A 9192   0.695   5.794  12.611
   14SBC   C073 9193   0.572   5.846  12.652
   14SBC   C07P 9194   0.467   5.864  12.558
   14SBC   C07O 9195   0.468   5.841  12.419
   14SBC   H00D 9196   0.550   5.790  12.372
   14SBC   C07N 9197   0.370   5.871  12.325
   14SBC   H00E 9198   0.375   5.845  12.221
   14SBC   C07M 9199   0.254   5.927  12.375
   14SBC   H00F 9200   0.168   5.953  12.315
   14SBC   C07L 9201   0.231   5.924  12.518
   14SBC   C07Q 9202   0.104   5.955  12.577
   14SBC   H00G 9203   0.023   5.982  12.512
   14SBC   O00F 9204   0.083   5.949  12.713
   14SBC   C07J 9205   0.191   5.943  12.794
   14SBC   C07I 9206   0.317   5.920  12.740
   14SBC   N004 9207   0.423   5.915  12.830
   14SBC   C07R 9208   0.402   5.961  12.964
   14SBC   C07T 9209   0.273   5.970  13.012
   14SBC   C0FX 9210   0.251   5.994  13.147
   14SBC   C0FW 9211   0.134   5.969  13.202
   14SBC   C0G0 9212   0.024   5.942  13.112
   14SBC   C0G2 9213  -0.103   5.910  13.165
   14SBC   H01E 9214  -0.184   5.898  13.094
   14SBC   C0G3 9215  -0.118   5.899  13.307
   14SBC   H01C 9216  -0.214   5.874  13.350
   14SBC   C0G4 9217  -0.007   5.925  13.391
   14SBC   H01D 9218  -0.019   5.904  13.496
   14SBC   O00E 9219   0.038   5.939  12.976
   14SBC   C0FV 9220   0.123   5.966  13.342
   14SBC   C0FU 9221   0.232   6.001  13.427
   14SBC   H01B 9222   0.223   5.988  13.533
   14SBC   C0FT 9223   0.352   6.036  13.366
   14SBC   C0FS 9224   0.492   6.046  13.404
   14SBC   C0BI 9225   0.569   6.081  13.287
   14SBC   C0BH 9226   0.702   6.034  13.305
   14SBC   C07F 9227   0.749   5.920  13.238
   14SBC   C07E 9228   0.727   5.883  13.101
   14SBC   C07G 9229   0.636   5.932  13.012
   14SBC   C074 9230   0.645   5.858  12.899
   14SBC   C065 9231   0.770   5.759  13.047
   14SBC   C064 9232   0.811   5.663  13.149
   14SBC   C063 9233   0.833   5.531  13.128
   14SBC   C075 9234   0.846   5.474  13.267
   14SBC   C0AM 9235   0.836   5.576  13.371
   14SBC   C0AN 9236   0.847   5.560  13.518
   14SBC   C0AO 9237   0.857   5.432  13.600
   14SBC   C0B1 9238   0.894   5.438  13.739
   14SBC   C0B0 9239   0.918   5.558  13.800
   14SBC   C0AZ 9240   0.973   5.578  13.926
   14SBC   C0AY 9241   1.008   5.705  13.976
   14SBC   N007 9242   1.077   5.713  14.096
   14SBC   C0E2 9243   1.149   5.832  14.125
   14SBC   C0E1 9244   1.235   5.831  14.234
   14SBC   C0E4 9245   1.315   5.948  14.262
   14SBC   C0FF 9246   1.394   5.956  14.380
   14SBC   C0FJ 9247   1.456   6.071  14.445
   14SBC   C0FK 9248   1.453   6.213  14.421
   14SBC   H016 9249   1.432   6.257  14.325
   14SBC   C0FL 9250   1.502   6.282  14.549
   14SBC   H017 9251   1.509   6.384  14.585
   14SBC   C0FM 9252   1.512   6.175  14.652
   14SBC   C0FH 9253   1.519   6.126  14.789
   14SBC   C0FI 9254   1.532   5.986  14.769
   14SBC   C0F3 9255   1.485   5.899  14.871
   14SBC   C0F2 9256   1.457   5.774  14.825
   14SBC   C0DW 9257   1.430   5.743  14.690
   14SBC   C0FE 9258   1.454   5.838  14.595
   14SBC   C0DV 9259   1.352   5.635  14.658
   14SBC   C0DX 9260   1.294   5.631  14.533
   14SBC   C0DK 9261   1.204   5.526  14.510
   14SBC   C0DJ 9262   1.181   5.429  14.608
   14SBC   C0DI 9263   1.105   5.322  14.577
   14SBC   C0DH 9264   1.063   5.302  14.448
   14SBC   C0DG 9265   1.081   5.397  14.353
   14SBC   C0BV 9266   1.032   5.379  14.224
   14SBC   C0BC 9267   1.031   5.485  14.134
   14SBC   C0BA 9268   0.976   5.259  14.185
   14SBC   C0B4 9269   0.937   5.240  14.048
   14SBC   C0B3 9270   0.944   5.343  13.961
   14SBC   C0B5 9271   0.902   5.115  14.012
   14SBC   C0BU 9272   0.909   5.004  14.099
   14SBC   C0BT 9273   0.940   5.025  14.231
   14SBC   C0BS 9274   0.950   4.919  14.326
   14SBC   C0CC 9275   0.973   4.949  14.460
   14SBC   C0CB 9276   0.977   4.847  14.555
   14SBC   C0CH 9277   0.951   4.893  14.689
   14SBC   C0DO 9278   0.985   5.024  14.739
   14SBC   C0DP 9279   1.007   5.047  14.874
   14SBC   C0EA 9280   0.968   4.954  14.981
   14SBC   H012 9281   0.909   4.864  14.975
   14SBC   O009 9282   0.978   4.992  15.114
   14SBC   C0EH 9283   1.035   5.110  15.142
   14SBC   C0EG 9284   1.040   5.146  15.276
   14SBC   C0EJ 9285   0.987   5.083  15.396
   14SBC   H010 9286   0.934   4.989  15.402
   14SBC   C0EK 9287   1.022   5.164  15.509
   14SBC   H00Z 9288   1.000   5.153  15.614
   14SBC   C0EL 9289   1.085   5.281  15.453
   14SBC   C0EM 9290   1.120   5.414  15.497
   14SBC   C0EW 9291   1.109   5.455  15.634
   14SBC   H013 9292   1.074   5.385  15.708
   14SBC   C0EX 9293   1.142   5.594  15.671
   14SBC   H014 9294   1.129   5.626  15.774
   14SBC   C0F1 9295   1.200   5.681  15.566
   14SBC   C0EU 9296   1.214   5.630  15.437
   14SBC   C0ET 9297   1.254   5.704  15.318
   14SBC   C0ES 9298   1.241   5.608  15.213
   14SBC   C0EE 9299   1.181   5.485  15.259
   14SBC   C0ED 9300   1.146   5.353  15.220
   14SBC   C0EC 9301   1.144   5.317  15.084
   14SBC   C0EB 9302   1.203   5.393  14.979
   14SBC   C0EN 9303   1.280   5.515  14.995
   14SBC   C0ER 9304   1.347   5.573  14.892
   14SBC   C0DS 9305   1.192   5.358  14.843
   14SBC   C0DR 9306   1.114   5.253  14.808
   14SBC   C0EY 9307   1.315   5.606  15.100
   14SBC   C0EZ 9308   1.386   5.724  15.053
   14SBC   C0F5 9309   1.401   5.862  15.098
   14SBC   C0F6 9310   1.373   5.904  15.230
   14SBC   N008 9311   1.400   6.046  15.250
   14SBC   C0F7 9312   1.448   6.137  15.145
   14SBC   C0FQ 9313   1.485   6.270  15.183
   14SBC   H018 9314   1.532   6.342  15.117
   14SBC   C0FP 9315   1.483   6.308  15.316
   14SBC   H019 9316   1.510   6.407  15.349
   14SBC   C0FO 9317   1.431   6.223  15.410
   14SBC   H01A 9318   1.427   6.249  15.514
   14SBC   C0F8 9319   1.459   6.085  15.017
   14SBC   C0F9 9320   1.385   6.094  15.382
   14SBC   C0FA 9321   1.328   6.023  15.490
   14SBC   H015 9322   1.310   6.065  15.588
   14SBC   C0FB 9323   1.295   5.886  15.467
   14SBC   C0FD 9324   1.312   5.832  15.340
   14SBC   C0FC 9325   1.252   5.810  15.587
   14SBC   O00A 9326   1.259   5.858  15.698
   14SBC   C0EV 9327   1.166   5.504  15.399
   14SBC   C0EF 9328   1.094   5.261  15.316
   14SBC   C0EI 9329   1.087   5.195  15.045
   14SBC   C0DQ 9330   1.069   5.162  14.910
   14SBC   C0CE 9331   1.019   5.113  14.638
   14SBC   H00U 9332   0.942   4.818  14.766
   14SBC   C0CA 9333   1.010   4.714  14.517
   14SBC   C0C9 9334   0.983   4.675  14.381
   14SBC   C0C8 9335   1.024   4.550  14.332
   14SBC   C0C7 9336   0.998   4.473  14.213
   14SBC   C0C6 9337   1.067   4.350  14.203
   14SBC   C0C5 9338   1.046   4.220  14.147
   14SBC   C0CQ 9339   1.089   4.105  14.212
   14SBC   C0D1 9340   1.133   4.123  14.343
   14SBC   C0D8 9341   1.085   4.024  14.426
   14SBC   C0D7 9342   1.022   3.926  14.344
   14SBC   C0D6 9343   1.010   3.790  14.369
   14SBC   C0D5 9344   0.995   3.699  14.262
   14SBC   C0D4 9345   0.944   3.705  14.128
   14SBC   C0D3 9346   1.003   3.599  14.053
   14SBC   C0CX 9347   1.013   3.638  13.916
   14SBC   C0CW 9348   0.968   3.783  13.910
   14SBC   C0CV 9349   0.928   3.883  13.811
   14SBC   C0D2 9350   0.906   3.857  13.674
   14SBC   C09D 9351   0.904   3.728  13.617
   14SBC   C09C 9352   0.873   3.711  13.477
   14SBC   C09B 9353   0.884   3.589  13.403
   14SBC   C09A 9354   0.923   3.478  13.477
   14SBC   C099 9355   0.930   3.482  13.610
   14SBC   C098 9356   0.988   3.366  13.643
   14SBC   C08Y 9357   1.032   3.286  13.529
   14SBC   C08X 9358   1.115   3.173  13.513
   14SBC   C08W 9359   1.169   3.109  13.628
   14SBC   C08U 9360   1.163   3.164  13.767
   14SBC   C08V 9361   1.124   3.288  13.832
   14SBC   C0DC 9362   1.104   3.250  13.967
   14SBC   H00W 9363   1.056   3.320  14.033
   14SBC   C0DB 9364   1.161   3.126  13.993
   14SBC   H00X 9365   1.167   3.081  14.092
   14SBC   C08T 9366   1.194   3.066  13.871
   14SBC   C08S 9367   1.240   2.938  13.851
   14SBC   H00N 9368   1.259   2.875  13.937
   14SBC   C08R 9369   1.260   2.894  13.717
   14SBC   C08Q 9370   1.323   2.767  13.684
   14SBC   H00O 9371   1.352   2.703  13.767
   14SBC   C08P 9372   1.365   2.722  13.556
   14SBC   C08O 9373   1.431   2.595  13.522
   14SBC   H00P 9374   1.447   2.529  13.606
   14SBC   C08N 9375   1.469   2.561  13.389
   14SBC   C08M 9376   1.533   2.441  13.353
   14SBC   O008 9377   1.567   2.360  13.436
   14SBC   O007 9378   1.549   2.412  13.219
   14SBC   C08H 9379   1.523   2.509  13.120
   14SBC   C08G 9380   1.556   2.484  12.984
   14SBC   C03V 9381   1.624   2.380  12.934
   14SBC   H009 9382   1.662   2.299  12.995
   14SBC   C03U 9383   1.661   2.361  12.800
   14SBC   C03W 9384   1.745   2.268  12.747
   14SBC   H00A 9385   1.804   2.202  12.808
   14SBC   C03X 9386   1.774   2.259  12.615
   14SBC   H00B 9387   1.845   2.188  12.576
   14SBC   O005 9388   1.727   2.358  12.529
   14SBC   C03O 9389   1.664   2.468  12.581
   14SBC   C03N 9390   1.630   2.573  12.490
   14SBC   O000 9391   1.689   2.573  12.364
   14SBC   C019 9392   1.634   2.653  12.271
   14SBC   C018 9393   1.544   2.759  12.309
   14SBC   C017 9394   1.495   2.773  12.441
   14SBC   C016 9395   1.407   2.871  12.479
   14SBC   C015 9396   1.365   2.956  12.378
   14SBC   C014 9397   1.269   3.051  12.406
   14SBC   C013 9398   1.224   3.071  12.537
   14SBC   C012 9399   1.134   3.184  12.522
   14SBC   C011 9400   1.137   3.220  12.390
   14SBC   C010 9401   1.059   3.320  12.334
   14SBC   C00Z 9402   1.072   3.374  12.207
   14SBC   C00Y 9403   1.003   3.499  12.223
   14SBC   C01O 9404   0.952   3.518  12.349
   14SBC   C01P 9405   0.943   3.639  12.410
   14SBC   C02L 9406   0.916   3.647  12.544
   14SBC   C02K 9407   0.940   3.523  12.615
   14SBC   C01M 9408   0.993   3.398  12.553
   14SBC   C02J 9409   0.920   3.546  12.750
   14SBC   C02I 9410   0.925   3.441  12.848
   14SBC   C02H 9411   0.981   3.310  12.842
   14SBC   C01Q 9412   1.045   3.243  12.736
   14SBC   C02G 9413   1.115   3.129  12.798
   14SBC   C089 9414   1.064   3.116  12.931
   14SBC   C088 9415   1.149   3.035  13.012
   14SBC   C087 9416   1.235   2.979  12.910
   14SBC   C086 9417   1.318   2.871  12.942
   14SBC   C03S 9418   1.386   2.784  12.849
   14SBC   N006 9419   1.433   2.678  12.926
   14SBC   C08F 9420   1.407   2.700  13.057
   14SBC   C01J 9421   1.413   2.783  12.710
   14SBC   C03R 9422   1.495   2.675  12.667
   14SBC   C03Q 9423   1.535   2.571  12.753
   14SBC   C08E 9424   1.332   2.810  13.078
   14SBC   C08D 9425   1.298   2.845  13.211
   14SBC   C08K 9426   1.348   2.766  13.321
   14SBC   C08C 9427   1.230   2.965  13.241
   14SBC   C091 9428   1.218   3.004  13.372
   14SBC   C092 9429   1.263   2.929  13.482
   14SBC   C08B 9430   1.157   3.049  13.157
   14SBC   C090 9431   1.099   3.144  13.249
   14SBC   C094 9432   1.006   3.245  13.206
   14SBC   C095 9433   0.957   3.344  13.290
   14SBC   C09R 9434   0.902   3.450  13.213
   14SBC   C097 9435   0.909   3.415  13.080
   14SBC   C096 9436   0.970   3.291  13.079
   14SBC   C01I 9437   1.214   3.026  12.776
   14SBC   C08A 9438   0.998   3.235  12.957
   14SBC   C09L 9439   0.882   3.492  12.965
   14SBC   C09K 9440   0.840   3.628  12.946
   14SBC   C09J 9441   0.823   3.717  13.051
   14SBC   C09I 9442   0.814   3.862  13.039
   14SBC   C09O 9443   0.813   3.958  12.934
   14SBC   C09N 9444   0.845   3.925  12.797
   14SBC   C09M 9445   0.862   3.795  12.740
   14SBC   C06O 9446   0.852   4.042  12.711
   14SBC   C05M 9447   0.831   4.173  12.760
   14SBC   C06P 9448   0.807   4.198  12.897
   14SBC   C042 9449   0.848   4.283  12.676
   14SBC   C041 9450   0.873   4.263  12.542
   14SBC   C040 9451   0.896   4.373  12.458
   14SBC   C03Z 9452   0.935   4.350  12.327
   14SBC   C03Y 9453   0.947   4.221  12.278
   14SBC   C027 9454   0.987   4.208  12.146
   14SBC   C026 9455   1.012   4.082  12.096
   14SBC   C028 9456   1.058   4.062  11.960
   14SBC   C029 9457   1.087   4.177  11.887
   14SBC   C02B 9458   1.142   4.158  11.764
   14SBC   C02C 9459   1.174   4.268  11.686
   14SBC   C02X 9460   1.229   4.251  11.562
   14SBC   C03E 9461   1.273   4.359  11.494
   14SBC   C03G 9462   1.259   4.488  11.536
   14SBC   C04Q 9463   1.197   4.504  11.659
   14SBC   C04R 9464   1.189   4.631  11.709
   14SBC   C04S 9465   1.140   4.652  11.838
   14SBC   C04L 9466   1.101   4.540  11.914
   14SBC   C04M 9467   1.109   4.410  11.861
   14SBC   C04K 9468   1.046   4.556  12.039
   14SBC   C04F 9469   1.034   4.688  12.086
   14SBC   C04E 9470   1.069   4.799  12.012
   14SBC   C04D 9471   1.038   4.928  12.058
   14SBC   C050 9472   1.076   5.038  11.985
   14SBC   C051 9473   1.045   5.164  12.032
   14SBC   C05Q 9474   1.084   5.274  11.957
   14SBC   C05V 9475   1.053   5.401  12.004
   14SBC   N005 9476   1.091   5.517  11.931
   14SBC   C07V 9477   1.174   5.499  11.819
   14SBC   C082 9478   1.220   5.607  11.749
   14SBC   C081 9479   1.198   5.745  11.790
   14SBC   C07C 9480   1.118   5.757  11.903
   14SBC   C07B 9481   1.077   5.884  11.948
   14SBC   C080 9482   1.135   6.001  11.892
   14SBC   C07Z 9483   1.089   6.125  11.933
   14SBC   H00L 9484   1.124   6.209  11.876
   14SBC   C079 9485   0.990   6.137  12.033
   14SBC   C078 9486   0.943   6.020  12.096
   14SBC   C077 9487   0.854   6.038  12.202
   14SBC   C07X 9488   0.790   6.163  12.234
   14SBC   H00I 9489   0.717   6.169  12.314
   14SBC   C07Y 9490   0.837   6.279  12.168
   14SBC   H00H 9491   0.801   6.377  12.196
   14SBC   C076 9492   0.825   5.926  12.282
   14SBC   C06C 9493   0.750   5.937  12.405
   14SBC   H00C 9494   0.699   6.025  12.440
   14SBC   C06F 9495   0.884   5.803  12.249
   14SBC   C06E 9496   0.868   5.693  12.332
   14SBC   C06G 9497   0.912   5.565  12.303
   14SBC   C06H 9498   0.972   5.547  12.179
   14SBC   C06I 9499   1.005   5.659  12.099
   14SBC   C06L 9500   0.887   5.456  12.390
   14SBC   C06M 9501   0.849   5.474  12.530
   14SBC   C06K 9502   0.913   5.329  12.345
   14SBC   C05S 9503   0.962   5.311  12.212
   14SBC   C05U 9504   0.891   5.216  12.427
   14SBC   C05X 9505   0.867   5.231  12.568
   14SBC   C05G 9506   0.838   5.102  12.626
   14SBC   C05F 9507   0.835   4.988  12.550
   14SBC   C05E 9508   0.813   4.882  12.634
   14SBC   C048 9509   0.831   4.748  12.589
   14SBC   C056 9510   0.820   4.647  12.683
   14SBC   C045 9511   0.843   4.518  12.642
   14SBC   C047 9512   0.883   4.738  12.466
   14SBC   C049 9513   0.896   4.847  12.384
   14SBC   C04B 9514   0.957   4.831  12.260
   14SBC   C046 9515   0.907   4.609  12.422
   14SBC   C04H 9516   0.950   4.591  12.293
   14SBC   C05D 9517   0.804   4.920  12.767
   14SBC   C04A 9518   0.880   4.976  12.423
   14SBC   C05T 9519   0.903   5.090  12.358
   14SBC   C055 9520   0.960   5.074  12.230
   14SBC   C06D 9521   0.813   5.711  12.454
   14SBC   C07W 9522   0.959   5.782  12.139
   14SBC   C085 9523   0.936   6.267  12.075
   14SBC   H00M 9524   0.972   6.360  12.034
   14SBC   C084 9525   1.227   5.984  11.789
   14SBC   H00J 9526   1.276   6.071  11.746
   14SBC   C07A 9527   0.991   5.894  12.061
   14SBC   C083 9528   1.251   5.863  11.734
   14SBC   H00K 9529   1.317   5.867  11.649
   14SBC   O00K 9530   1.309   5.589  11.653
   14SBC   C0GO 9531   1.323   5.468  11.594
   14SBC   C0GN 9532   1.423   5.453  11.503
   14SBC   H01L 9533   1.482   5.542  11.490
   14SBC   C0GM 9534   1.450   5.325  11.444
   14SBC   C0GL 9535   1.536   5.314  11.343
   14SBC   H01M 9536   1.603   5.394  11.316
   14SBC   O00J 9537   1.545   5.198  11.266
   14SBC   C0GK 9538   1.489   5.086  11.328
   14SBC   H01N 9539   1.527   4.990  11.296
   14SBC   C05K 9540   1.400   5.089  11.432
   14SBC   C05J 9541   1.345   4.973  11.493
   14SBC   C04Y 9542   1.354   4.837  11.446
   14SBC   C04X 9543   1.302   4.726  11.515
   14SBC   O006 9544   1.414   4.811  11.327
   14SBC   C053 9545   1.447   4.685  11.281
   14SBC   C04O 9546   1.384   4.571  11.338
   14SBC   C03C 9547   1.385   4.433  11.289
   14SBC   C03B 9548   1.442   4.362  11.173
   14SBC   C054 9549   1.543   4.415  11.102
   14SBC   C0GR 9550   1.596   4.340  10.991
   14SBC   C03M 9551   1.605   4.199  10.957
   14SBC   C03I 9552   1.578   4.092  11.047
   14SBC   C03J 9553   1.617   3.960  11.013
   14SBC   N002 9554   1.603   3.849  11.107
   14SBC   C02U 9555   1.660   3.722  11.084
   14SBC   C02T 9556   1.648   3.613  11.177
   14SBC   C02Z 9557   1.705   3.492  11.148
   14SBC   N001 9558   1.688   3.378  11.238
   14SBC   C02R 9559   1.756   3.261  11.208
   14SBC   C032 9560   1.829   3.251  11.088
   14SBC   C031 9561   1.848   3.362  11.003
   14SBC   H007 9562   1.911   3.343  10.917
   14SBC   C033 9563   1.873   3.116  11.060
   14SBC   H003 9564   1.944   3.099  10.980
   14SBC   O004 9565   1.834   3.002  11.124
   14SBC   C034 9566   1.756   3.025  11.234
   14SBC   C035 9567   1.720   2.908  11.305
   14SBC   C036 9568   1.641   2.917  11.419
   14SBC   H005 9569   1.621   2.826  11.474
   14SBC   C037 9570   1.602   3.041  11.460
   14SBC   H006 9571   1.541   3.049  11.549
   14SBC   C00D 9572   1.640   3.161  11.400
   14SBC   C00C 9573   1.595   3.286  11.448
   14SBC   C00B 9574   1.521   3.307  11.576
   14SBC   C00A 9575   1.458   3.238  11.694
   14SBC   C009 9576   1.369   3.333  11.739
   14SBC   C008 9577   1.295   3.340  11.862
   14SBC   C007 9578   1.321   3.242  11.954
   14SBC   C006 9579   1.249   3.249  12.077
   14SBC   C005 9580   1.276   3.144  12.172
   14SBC   C004 9581   1.376   3.047  12.144
   14SBC   C003 9582   1.445   3.051  12.020
   14SBC   C002 9583   1.542   2.951  11.993
   14SBC   C01C 9584   1.570   2.854  12.088
   14SBC   C01B 9585   1.647   2.737  12.049
   14SBC   H000 9586   1.673   2.717  11.946
   14SBC   C001 9587   1.625   2.963  11.883
   14SBC   C000 9588   1.602   3.066  11.795
   14SBC   C01U 9589   1.720   3.076  11.723
   14SBC   H002 9590   1.755   3.155  11.657
   14SBC   C01T 9591   1.810   2.960  11.753
   14SBC   O002 9592   1.927   2.932  11.712
   14SBC   O001 9593   1.738   2.898  11.849
   14SBC   C01S 9594   1.417   3.148  11.926
   14SBC   C00N 9595   1.213   3.453  11.881
   14SBC   C00M 9596   1.216   3.566  11.798
   14SBC   C00J 9597   1.292   3.563  11.689
   14SBC   C00I 9598   1.319   3.669  11.608
   14SBC   C00H 9599   1.407   3.659  11.504
   14SBC   C00G 9600   1.479   3.543  11.477
   14SBC   C00F 9601   1.559   3.522  11.374
   14SBC   C01X 9602   1.428   3.763  11.414
   14SBC   C01W 9603   1.362   3.878  11.441
   14SBC   C01V 9604   1.273   3.890  11.548
   14SBC   C020 9605   1.230   4.013  11.590
   14SBC   C01Z 9606   1.387   3.987  11.357
   14SBC   C02Y 9607   1.325   4.103  11.395
   14SBC   C039 9608   1.355   4.214  11.316
   14SBC   C02W 9609   1.467   3.981  11.246
   14SBC   C01Y 9610   1.512   3.753  11.308
   14SBC   C00U 9611   1.249   3.785  11.631
   14SBC   C00S 9612   1.179   3.796  11.750
   14SBC   C00T 9613   1.133   3.920  11.788
   14SBC   C00R 9614   1.161   3.688  11.828
   14SBC   C00Q 9615   1.103   3.698  11.951
   14SBC   C00V 9616   1.065   3.826  11.998
   14SBC   C024 9617   1.022   3.846  12.127
   14SBC   C00X 9618   0.997   3.737  12.199
   14SBC   C00P 9619   1.093   3.588  12.030
   14SBC   C00O 9620   1.152   3.463  12.001
   14SBC   C00K 9621   1.357   3.444  11.658
   14SBC   N000 9622   1.488   3.150  11.800
   14SBC   C00L 9623   1.466   3.436  11.577
   14SBC   H004 9624   1.757   2.811  11.272
   14SBC   C02Q 9625   1.719   3.149  11.285
   14SBC   C00E 9626   1.618   3.393  11.362
   14SBC   C030 9627   1.787   3.484  11.031
   14SBC   O003 9628   1.790   3.583  10.935
   14SBC   C02S 9629   1.578   3.632  11.287
   14SBC   C038 9630   1.724   3.703  10.962
   14SBC   C03L 9631   1.736   3.804  10.867
   14SBC   H008 9632   1.790   3.773  10.779
   14SBC   C02V 9633   1.523   3.862  11.219
   14SBC   C03K 9634   1.683   3.931  10.892
   14SBC   C0BK 9635   1.688   4.040  10.801
   14SBC   H00T 9636   1.721   4.018  10.701
   14SBC   C03H 9637   1.505   4.098  11.166
   14SBC   C0BL 9638   1.657   4.175  10.828
   14SBC   C0GU 9639   1.688   4.280  10.736
   14SBC   H01O 9640   1.735   4.252  10.643
   14SBC   C0GT 9641   1.681   4.418  10.773
   14SBC   H01P 9642   1.697   4.501  10.706
   14SBC   C0GS 9643   1.639   4.439  10.900
   14SBC   C0GV 9644   1.624   4.570  10.960
   14SBC   C0GW 9645   1.668   4.698  10.914
   14SBC   H01Q 9646   1.707   4.712  10.814
   14SBC   C0GX 9647   1.649   4.799  11.000
   14SBC   H01R 9648   1.683   4.899  10.978
   14SBC   O00L 9649   1.597   4.789  11.129
   14SBC   C0GQ 9650   1.560   4.558  11.087
   14SBC   C03A 9651   1.439   4.219  11.209
   14SBC   C05L 9652   1.539   4.672  11.171
   14SBC   C04W 9653   1.276   4.986  11.616
   14SBC   C05I 9654   1.248   5.114  11.663
   14SBC   C05O 9655   1.299   5.228  11.606
   14SBC   C052 9656   1.175   5.128  11.785
   14SBC   C04V 9657   1.224   4.877  11.690
   14SBC   C04U 9658   1.162   4.889  11.811
   14SBC   N009 9659   1.377   5.213  11.488
   14SBC   C0GP 9660   1.271   5.356  11.656
   14SBC   C05W 9661   1.194   5.371  11.771
   14SBC   C07D 9662   1.072   5.647  11.982
   14SBC   C06J 9663   0.999   5.420  12.131
   14SBC   C05P 9664   1.150   5.258  11.837
   14SBC   C05R 9665   0.992   5.188  12.157
   14SBC   C04Z 9666   1.138   5.016  11.859
   14SBC   C04C 9667   0.988   4.947  12.186
   14SBC   C04G 9668   0.986   4.702  12.212
   14SBC   C04J 9669   1.008   4.446  12.117
   14SBC   C04T 9670   1.130   4.782  11.891
   14SBC   N003 9671   1.233   4.746  11.636
   14SBC   C04P 9672   1.313   4.596  11.462
   14SBC   C03D 9673   1.320   4.339  11.362
   14SBC   C021 9674   1.263   4.126  11.517
   14SBC   C03F 9675   1.157   4.395  11.732
   14SBC   C022 9676   1.165   4.029  11.710
   14SBC   C02A 9677   1.074   4.303  11.940
   14SBC   C023 9678   1.075   3.932  11.913
   14SBC   C025 9679   0.996   3.972  12.178
   14SBC   C02D 9680   0.958   3.992  12.311
   14SBC   C02E 9681   0.936   3.880  12.387
   14SBC   C02N 9682   0.901   3.889  12.523
   14SBC   C04N 9683   1.027   4.320  12.069
   14SBC   C02P 9684   0.927   4.113  12.362
   14SBC   C04I 9685   0.961   4.461  12.244
   14SBC   C044 9686   0.885   4.500  12.508
   14SBC   C043 9687   0.889   4.133  12.492
   14SBC   C05N 9688   0.877   4.020  12.574
   14SBC   C09U 9689   0.803   4.091  12.982
   14SBC   C09V 9690   0.803   4.128  13.123
   14SBC   C09X 9691   0.820   4.034  13.221
   14SBC   C09Y 9692   0.832   4.051  13.360
   14SBC   C0A1 9693   0.826   4.178  13.404
   14SBC   C0A2 9694   0.804   4.278  13.311
   14SBC   C0A4 9695   0.795   4.407  13.362
   14SBC   C071 9696   0.779   4.511  13.271
   14SBC   C0A5 9697   0.778   4.640  13.317
   14SBC   C0A9 9698   0.778   4.663  13.458
   14SBC   C0A8 9699   0.792   4.556  13.545
   14SBC   C0AP 9700   0.811   4.580  13.680
   14SBC   C0BY 9701   0.826   4.473  13.764
   14SBC   C0BX 9702   0.840   4.343  13.720
   14SBC   C0C2 9703   0.875   4.245  13.812
   14SBC   C0C3 9704   0.888   4.118  13.767
   14SBC   C0CT 9705   0.862   4.091  13.633
   14SBC   C0C1 9706   0.908   4.279  13.947
   14SBC   C0C0 9707   0.879   4.412  13.999
   14SBC   C0A7 9708   0.825   4.322  13.587
   14SBC   C0BZ 9709   0.840   4.501  13.902
   14SBC   C0BO 9710   0.842   4.633  13.945
   14SBC   C0BN 9711   0.832   4.742  13.859
   14SBC   C0BM 9712   0.853   4.862  13.917
   14SBC   C0B9 9713   0.850   4.969  13.829
   14SBC   C0B8 9714   0.815   4.952  13.691
   14SBC   C0AD 9715   0.793   4.824  13.643
   14SBC   C0AF 9716   0.817   5.058  13.607
   14SBC   C0AG 9717   0.841   5.191  13.652
   14SBC   C0B7 9718   0.876   5.202  13.784
   14SBC   C0AE 9719   0.799   5.026  13.475
   14SBC   C0AB 9720   0.784   4.899  13.420
   14SBC   C0AA 9721   0.766   4.879  13.286
   14SBC   C0AJ 9722   0.789   5.135  13.392
   14SBC   C0AK 9723   0.763   5.119  13.259
   14SBC   C06W 9724   0.787   5.237  13.201
   14SBC   C0AI 9725   0.813   5.267  13.424
   14SBC   C0BP 9726   0.876   4.633  14.083
   14SBC   C0BQ 9727   0.903   4.764  14.145
   14SBC   C0BW 9728   0.812   4.717  13.731
   14SBC   C0AC 9729   0.787   4.793  13.513
   14SBC   C0A6 9730   0.806   4.426  13.500
   14SBC   C0A3 9731   0.834   4.194  13.541
   14SBC   C09Z 9732   0.846   3.945  13.450
   14SBC   C09W 9733   0.802   4.257  13.175
   14SBC   C072 9734   0.784   4.361  13.085
   14SBC   C09H 9735   0.818   3.904  13.177
   14SBC   C09G 9736   0.828   3.804  13.263
   14SBC   C09P 9737   0.833   3.689  13.186
   14SBC   C02O 9738   0.875   3.666  12.817
   14SBC   C02M 9739   0.891   3.775  12.605
   14SBC   C02F 9740   0.962   3.754  12.332
   14SBC   C00W 9741   1.025   3.612  12.144
   14SBC   C01R 9742   1.162   3.362  12.094
   14SBC   C01N 9743   0.989   3.407  12.418
   14SBC   C01L 9744   1.056   3.278  12.605
   14SBC   C01H 9745   1.268   2.988  12.650
   14SBC   C01K 9746   1.227   3.145  12.311
   14SBC   C01E 9747   1.422   2.958  12.246
   14SBC   C01G 9748   1.365   2.882  12.618
   14SBC   C01D 9749   1.510   2.858  12.219
   14SBC   C01A 9750   1.692   2.644  12.144
   14SBC   H001 9751   1.763   2.566  12.123
   14SBC   C01F 9752   1.533   2.672  12.531
   14SBC   C03P 9753   1.618   2.465  12.712
   14SBC   C03T 9754   1.508   2.571  12.888
   14SBC   C08I 9755   1.456   2.625  13.159
   14SBC   C08J 9756   1.422   2.651  13.291
   14SBC   C08L 9757   1.326   2.809  13.453
   14SBC   C093 9758   1.234   2.981  13.611
   14SBC   C08Z 9759   1.136   3.119  13.384
   14SBC   C09T 9760   1.041   3.397  13.770
   14SBC   C09S 9761   0.968   3.361  13.425
   14SBC   C09Q 9762   0.865   3.574  13.262
   14SBC   C09F 9763   0.855   3.819  13.401
   14SBC   C09E 9764   0.946   3.602  13.677
   14SBC   C0A0 9765   0.877   3.964  13.585
   14SBC   C0CU 9766   0.915   4.015  13.856
   14SBC   C0CR 9767   0.956   4.053  13.983
   14SBC   C0CZ 9768   0.974   3.954  14.081
   14SBC   C0DA 9769   1.011   3.549  13.796
   14SBC   C0D9 9770   1.113   3.542  14.134
   14SBC   H00V 9771   1.194   3.479  14.102
   14SBC   C0CY 9772   0.944   3.820  14.046
   14SBC   C0DF 9773   1.091   3.593  14.275
   14SBC   C0DE 9774   1.146   3.604  14.409
   14SBC   C0GI 9775   1.237   3.528  14.485
   14SBC   H01K 9776   1.280   3.433  14.457
   14SBC   C0GJ 9777   1.273   3.573  14.604
   14SBC   H01J 9778   1.338   3.506  14.658
   14SBC   O00I 9779   1.229   3.690  14.664
   14SBC   C0GH 9780   1.153   3.778  14.589
   14SBC   C0GG 9781   1.140   3.914  14.646
   14SBC   O00G 9782   1.168   3.937  14.779
   14SBC   C0G8 9783   1.186   4.063  14.826
   14SBC   C0G9 9784   1.229   4.070  14.957
   14SBC   H01G 9785   1.239   3.976  15.009
   14SBC   C0GA 9786   1.257   4.195  15.015
   14SBC   H01H 9787   1.295   4.202  15.116
   14SBC   C0GB 9788   1.222   4.316  14.954
   14SBC   C0EP 9789   1.171   4.310  14.823
   14SBC   C0E8 9790   1.133   4.438  14.760
   14SBC   C0CK 9791   1.070   4.484  14.636
   14SBC   C0CL 9792   1.100   4.407  14.525
   14SBC   C0E9 9793   1.128   4.268  14.526
   14SBC   C0GE 9794   1.132   4.158  14.618
   14SBC   C0E7 9795   1.170   4.558  14.818
   14SBC   C0CJ 9796   1.142   4.672  14.740
   14SBC   C0E6 9797   1.203   4.791  14.789
   14SBC   H00Y 9798   1.193   4.879  14.727
   14SBC   C0EO 9799   1.250   4.800  14.924
   14SBC   H011 9800   1.281   4.897  14.959
   14SBC   C0G6 9801   1.266   4.681  15.004
   14SBC   C0G5 9802   1.323   4.680  15.138
   14SBC   H01F 9803   1.361   4.772  15.179
   14SBC   C0GD 9804   1.335   4.559  15.197
   14SBC   H01I 9805   1.382   4.558  15.294
   14SBC   O00H 9806   1.295   4.437  15.144
   14SBC   C0EQ 9807   1.234   4.558  14.943
   14SBC   C0GC 9808   1.253   4.439  15.016
   14SBC   C0G7 9809   1.164   4.185  14.755
   14SBC   C0DD 9810   1.100   3.727  14.463
   14SBC   C0GF 9811   1.119   4.024  14.564
   14SBC   C0CO 9812   1.158   4.250  14.392
   14SBC   C0D0 9813   1.014   3.995  14.211
   14SBC   C0C4 9814   0.967   4.186  14.030
   14SBC   C0CN 9815   1.157   4.365  14.311
   14SBC   C0CP 9816   0.897   4.497  14.121
   14SBC   C0CM 9817   1.120   4.467  14.391
   14SBC   C0CI 9818   1.065   4.631  14.627
   14SBC   C0CD 9819   0.995   5.079  14.503
   14SBC   C0BR 9820   0.941   4.781  14.281
   14SBC   C0CS 9821   0.887   4.875  14.055
   14SBC   C0B6 9822   0.878   5.098  13.875
   14SBC   C0CG 9823   0.972   5.154  14.275
   14SBC   C0CF 9824   1.011   5.180  14.404
   14SBC   C0E5 9825   1.075   5.227  14.671
   14SBC   C0DT 9826   1.234   5.438  14.736
   14SBC   C0DL 9827   1.150   5.514  14.386
   14SBC   C0DM 9828   1.165   5.616  14.295
   14SBC   C0DY 9829   1.312   5.732  14.440
   14SBC   C0DU 9830   1.322   5.541  14.755
   14SBC   C0F0 9831   1.406   5.695  14.924
   14SBC   C0F4 9832   1.452   5.945  14.995
   14SBC   C0FG 9833   1.516   5.955  14.638
   14SBC   O00B 9834   1.486   6.176  14.916
   14SBC   C0FN 9835   1.511   6.065  14.570
   14SBC   C0DZ 9836   1.391   5.843  14.468
   14SBC   O00C 9837   1.310   6.052  14.177
   14SBC   C0FR 9838   1.232   6.060  14.064
   14SBC   O00D 9839   1.238   6.163  13.999
   14SBC   C0E0 9840   1.234   5.730  14.324
   14SBC   C0E3 9841   1.146   5.945  14.039
   14SBC   C0AW 9842   1.069   5.935  13.920
   14SBC   C0AV 9843   1.047   6.043  13.828
   14SBC   H00Q 9844   1.094   6.140  13.836
   14SBC   C0AU 9845   0.973   6.025  13.706
   14SBC   H00R 9846   0.961   6.108  13.639
   14SBC   C0AT 9847   0.934   5.894  13.677
   14SBC   C0AS 9848   0.877   5.826  13.559
   14SBC   C0AR 9849   0.799   5.889  13.454
   14SBC   C0BE 9850   0.947   5.794  13.771
   14SBC   C0DN 9851   1.097   5.603  14.175
   14SBC   C0AX 9852   0.999   5.817  13.897
   14SBC   C0BB 9853   0.984   5.468  14.005
   14SBC   C0BD 9854   0.898   5.672  13.724
   14SBC   C0B2 9855   0.904   5.329  13.826
   14SBC   C0AH 9856   0.838   5.300  13.561
   14SBC   C0BF 9857   0.859   5.685  13.589
   14SBC   C0AL 9858   0.813   5.337  13.298
   14SBC   C07U 9859   0.826   5.692  13.288
   14SBC   C0AQ 9860   0.797   5.825  13.327
   14SBC   C0BG 9861   0.721   6.007  13.442
   14SBC   C0FY 9862   0.484   6.049  13.169
   14SBC   C0BJ 9863   0.586   6.004  13.505
   14SBC   H00S 9864   0.569   5.958  13.601
   14SBC   C0FZ 9865   0.354   6.043  13.225
   14SBC   C07S 9866   0.514   5.990  13.044
   14SBC   C0G1 9867   0.168   5.951  12.930
   14SBC   C07K 9868   0.340   5.905  12.607
   14SBC   C07H 9869   0.557   5.881  12.790
   14SBC   C06B 9870   0.756   5.829  12.492
   14SBC   C06N 9871   0.808   5.615  12.553
   14SBC   C066 9872   0.732   5.744  12.907
   14SBC   C062 9873   0.844   5.465  12.997
   14SBC   C05Y 9874   0.854   5.363  12.623
   14SBC   C061 9875   0.879   5.332  12.991
   14SBC   C05H 9876   0.808   5.060  12.762
   14SBC   C06V 9877   0.817   5.227  13.068
   14SBC   C06Y 9878   0.758   4.987  13.199
   14SBC   C05C 9879   0.798   4.813  12.864
   14SBC   C06Z 9880   0.774   4.751  13.232
   14SBC   C070 9881   0.778   4.492  13.132
   14SBC   C05B 9882   0.797   4.679  12.818
   14SBC   C057 9883   0.832   4.409  12.725
   14SBC   C059 9884   0.794   4.328  12.949
   15SBC   C058 9885   6.647   9.864   7.142
   15SBC   C05A 9886   6.521   9.887   7.089
   15SBC   C06Q 9887   6.493   9.994   7.002
   15SBC   C06R 9888   6.365  10.017   6.950
   15SBC   C06S 9889   6.255   9.937   6.982
   15SBC   C06T 9890   6.127   9.972   6.932
   15SBC   C06U 9891   6.005   9.892   6.929
   15SBC   C06X 9892   5.972   9.767   6.982
   15SBC   C060 9893   5.842   9.728   6.931
   15SBC   C05Z 9894   5.728   9.659   6.996
   15SBC   C068 9895   5.610   9.735   6.943
   15SBC   C067 9896   5.466   9.716   6.969
   15SBC   C069 9897   5.425   9.600   7.049
   15SBC   C06A 9898   5.291   9.572   7.105
   15SBC   C073 9899   5.193   9.657   7.162
   15SBC   C07P 9900   5.142   9.624   7.290
   15SBC   C07O 9901   5.199   9.537   7.388
   15SBC   H00D 9902   5.293   9.489   7.364
   15SBC   C07N 9903   5.137   9.503   7.506
   15SBC   H00E 9904   5.190   9.448   7.581
   15SBC   C07M 9905   5.013   9.557   7.528
   15SBC   H00F 9906   4.964   9.533   7.622
   15SBC   C07L 9907   4.950   9.649   7.442
   15SBC   C07Q 9908   4.823   9.706   7.464
   15SBC   H00G 9909   4.755   9.666   7.538
   15SBC   O00F 9910   4.773   9.812   7.387
   15SBC   C07J 9911   4.846   9.847   7.276
   15SBC   C07I 9912   4.962   9.777   7.237
   15SBC   N004 9913   5.024   9.809   7.115
   15SBC   C07R 9914   4.955   9.907   7.031
   15SBC   C07T 9915   4.845   9.984   7.083
   15SBC   C0FX 9916   4.793  10.093   7.015
   15SBC   C0FW 9917   4.697  10.177   7.068
   15SBC   C0G0 9918   4.638  10.137   7.190
   15SBC   C0G2 9919   4.537  10.210   7.248
   15SBC   H01E 9920   4.499  10.182   7.345
   15SBC   C0G3 9921   4.494  10.328   7.184
   15SBC   H01C 9922   4.404  10.374   7.223
   15SBC   C0G4 9923   4.557  10.369   7.064
   15SBC   H01D 9924   4.514  10.446   7.001
   15SBC   O00E 9925   4.687  10.031   7.264
   15SBC   C0FV 9926   4.654  10.291   6.995
   15SBC   C0FU 9927   4.719  10.317   6.872
   15SBC   H01B 9928   4.703  10.413   6.826
   15SBC   C0FT 9929   4.811  10.225   6.813
   15SBC   C0FS 9930   4.901  10.214   6.705
   15SBC   C0BI 9931   4.949  10.079   6.702
   15SBC   C0BH 9932   5.064  10.061   6.623
   15SBC   C07F 9933   5.183  10.022   6.691
   15SBC   C07E 9934   5.213   9.919   6.773
   15SBC   C07G 9935   5.131   9.871   6.871
   15SBC   C074 9936   5.212   9.795   6.957
   15SBC   C065 9937   5.345   9.893   6.818
   15SBC   C064 9938   5.451   9.967   6.756
   15SBC   C063 9939   5.588   9.962   6.788
   15SBC   C075 9940   5.644  10.081   6.721
   15SBC   C0AM 9941   5.543  10.156   6.642
   15SBC   C0AN 9942   5.559  10.281   6.561
   15SBC   C0AO 9943   5.681  10.357   6.520
   15SBC   C0B1 9944   5.678  10.468   6.429
   15SBC   C0B0 9945   5.561  10.504   6.365
   15SBC   C0AZ 9946   5.541  10.612   6.278
   15SBC   C0AY 9947   5.416  10.644   6.229
   15SBC   N007 9948   5.404  10.750   6.134
   15SBC   C0E2 9949   5.274  10.787   6.093
   15SBC   C0E1 9950   5.263  10.894   6.017
   15SBC   C0E4 9951   5.134  10.939   5.979
   15SBC   C0FF 9952   5.116  11.058   5.903
   15SBC   C0FJ 9953   4.990  11.124   5.859
   15SBC   C0FK 9954   4.877  11.147   5.947
   15SBC   H016 9955   4.836  11.082   6.022
   15SBC   C0FL 9956   4.828  11.280   5.917
   15SBC   H017 9957   4.761  11.337   5.980
   15SBC   C0FM 9958   4.897  11.343   5.803
   15SBC   C0FH 9959   4.962  11.465   5.763
   15SBC   C0FI 9960   5.085  11.425   5.711
   15SBC   C0F3 9961   5.188  11.523   5.723
   15SBC   C0F2 9962   5.312  11.464   5.742
   15SBC   C0DW 9963   5.336  11.331   5.770
   15SBC   C0FE 9964   5.229  11.241   5.790
   15SBC   C0DV 9965   5.458  11.300   5.829
   15SBC   C0DX 9966   5.468  11.180   5.895
   15SBC   C0DK 9967   5.590  11.142   5.946
   15SBC   C0DJ 9968   5.703  11.226   5.928
   15SBC   C0DI 9969   5.826  11.198   5.978
   15SBC   C0DH 9970   5.841  11.068   6.034
   15SBC   C0DG 9971   5.736  10.984   6.054
   15SBC   C0BV 9972   5.754  10.867   6.128
   15SBC   C0BC 9973   5.643  10.787   6.160
   15SBC   C0BA 9974   5.879  10.838   6.176
   15SBC   C0B4 9975   5.890  10.732   6.263
   15SBC   C0B3 9976   5.778  10.656   6.299
   15SBC   C0B5 9977   6.015  10.688   6.298
   15SBC   C0BU 9978   6.135  10.764   6.254
   15SBC   C0BT 9979   6.119  10.879   6.183
   15SBC   C0BS 9980   6.228  10.952   6.140
   15SBC   C0CC 9981   6.208  11.076   6.087
   15SBC   C0CB 9982   6.314  11.162   6.070
   15SBC   C0CH 9983   6.276  11.296   6.082
   15SBC   C0DO 9984   6.148  11.350   6.047
   15SBC   C0DP 9985   6.124  11.485   6.028
   15SBC   C0EA 9986   6.221  11.586   6.055
   15SBC   H012 9987   6.323  11.573   6.089
   15SBC   O009 9988   6.195  11.718   6.045
   15SBC   C0EH 9989   6.075  11.759   6.000
   15SBC   C0EG 9990   6.051  11.895   5.989
   15SBC   C0EJ 9991   6.130  12.012   6.013
   15SBC   H010 9992   6.234  12.019   6.044
   15SBC   C0EK 9993   6.046  12.130   5.971
   15SBC   H00Z 9994   6.081  12.232   5.973
   15SBC   C0EL 9995   5.918  12.074   5.943
   15SBC   C0EM 9996   5.797  12.132   5.902
   15SBC   C0EW 9997   5.764  12.273   5.875
   15SBC   H013 9998   5.843  12.346   5.882
   15SBC   C0EX 9999   5.630  12.315   5.833
   15SBC   H01410000   5.620  12.413   5.788
   15SBC   C0F110001   5.523  12.219   5.836
   15SBC   C0EU10002   5.555  12.081   5.856
   15SBC   C0ET10003   5.466  11.975   5.847
   15SBC   C0ES10004   5.553  11.861   5.854
   15SBC   C0EE10005   5.685  11.898   5.885
   15SBC   C0ED10006   5.816  11.843   5.920
   15SBC   C0EC10007   5.842  11.704   5.918
   15SBC   C0EB10008   5.755  11.597   5.876
   15SBC   C0EN10009   5.625  11.625   5.817
   15SBC   C0ER10010   5.540  11.518   5.789
   15SBC   C0DS10011   5.778  11.458   5.903
   15SBC   C0DR10012   5.903  11.427   5.957
   15SBC   C0EY10013   5.529  11.738   5.801
   15SBC   C0EZ10014   5.400  11.693   5.759
   15SBC   C0F510015   5.264  11.755   5.753
   15SBC   C0F610016   5.240  11.892   5.772
   15SBC   N00810017   5.098  11.928   5.767
   15SBC   C0F710018   4.995  11.828   5.763
   15SBC   C0FQ10019   4.868  11.878   5.763
   15SBC   H01810020   4.780  11.816   5.774
   15SBC   C0FP10021   4.831  12.009   5.758
   15SBC   H01910022   4.730  12.040   5.776
   15SBC   C0FO10023   4.927  12.108   5.757
   15SBC   H01A10024   4.890  12.208   5.745
   15SBC   C0F810025   5.030  11.693   5.767
   15SBC   C0F910026   5.062  12.065   5.767
   15SBC   C0FA10027   5.159  12.168   5.765
   15SBC   H01510028   5.122  12.269   5.755
   15SBC   C0FB10029   5.296  12.139   5.795
   15SBC   C0FD10030   5.335  12.002   5.797
   15SBC   C0FC10031   5.390  12.247   5.801
   15SBC   O00A10032   5.357  12.359   5.760
   15SBC   C0EV10033   5.685  12.041   5.883
   15SBC   C0EF10034   5.924  11.933   5.950
   15SBC   C0EI10035   5.969  11.663   5.967
   15SBC   C0DQ10036   5.997  11.527   5.982
   15SBC   C0CE10037   6.051  11.255   6.032
   15SBC   H00U10038   6.358  11.362   6.105
   15SBC   C0CA10039   6.448  11.112   6.041
   15SBC   C0C910040   6.474  10.983   6.096
   15SBC   C0C810041   6.605  10.923   6.087
   15SBC   C0C710042   6.676  10.830   6.169
   15SBC   C0C610043   6.810  10.808   6.129
   15SBC   C0C510044   6.934  10.757   6.183
   15SBC   C0CQ10045   7.052  10.799   6.113
   15SBC   C0D110046   7.046  10.907   6.024
   15SBC   C0D810047   7.152  10.990   6.046
   15SBC   C0D710048   7.243  10.921   6.124
   15SBC   C0D610049   7.373  10.951   6.161
   15SBC   C0D510050   7.467  10.859   6.208
   15SBC   C0D410051   7.454  10.739   6.285
   15SBC   C0D310052   7.554  10.723   6.378
   15SBC   C0CX10053   7.501  10.633   6.481
   15SBC   C0CW10054   7.355  10.629   6.471
   15SBC   C0CV10055   7.241  10.574   6.545
   15SBC   C0D210056   7.265  10.503   6.664
   15SBC   C09D10057   7.380  10.491   6.740
   15SBC   C09C10058   7.387  10.417   6.858
   15SBC   C09B10059   7.502  10.381   6.939
   15SBC   C09A10060   7.625  10.433   6.890
   15SBC   C09910061   7.629  10.526   6.786
   15SBC   C09810062   7.756  10.524   6.728
   15SBC   C08Y10063   7.836  10.421   6.792
   15SBC   C08X10064   7.958  10.355   6.748
   15SBC   C08W10065   8.026  10.392   6.625
   15SBC   C08U10066   7.975  10.481   6.520
   15SBC   C08V10067   7.845  10.536   6.497
   15SBC   C0DC10068   7.855  10.606   6.371
   15SBC   H00W10069   7.767  10.646   6.321
   15SBC   C0DB10070   7.988  10.595   6.323
   15SBC   H00X10071   8.022  10.638   6.231
   15SBC   C08T10072   8.059  10.521   6.413
   15SBC   C08S10073   8.193  10.486   6.402
   15SBC   H00N10074   8.261  10.526   6.328
   15SBC   C08R10075   8.241  10.390   6.487
   15SBC   C08Q10076   8.375  10.336   6.480
   15SBC   H00O10077   8.444  10.380   6.410
   15SBC   C08P10078   8.422  10.224   6.555
   15SBC   C08O10079   8.550  10.170   6.542
   15SBC   H00P10080   8.621  10.231   6.488
   15SBC   C08N10081   8.588  10.053   6.607
   15SBC   C08M10082   8.721  10.002   6.590
   15SBC   O00810083   8.807  10.069   6.537
   15SBC   O00710084   8.746   9.884   6.645
   15SBC   C08H10085   8.656   9.808   6.713
   15SBC   C08G10086   8.672   9.673   6.762
   15SBC   C03V10087   8.776   9.587   6.746
   15SBC   H00910088   8.852   9.618   6.676
   15SBC   C03U10089   8.789   9.458   6.797
   15SBC   C03W10090   8.895   9.362   6.775
   15SBC   H00A10091   8.965   9.383   6.696
   15SBC   C03X10092   8.896   9.246   6.846
   15SBC   H00B10093   8.976   9.176   6.825
   15SBC   O00510094   8.796   9.207   6.928
   15SBC   C03O10095   8.687   9.289   6.945
   15SBC   C03N10096   8.583   9.246   7.020
   15SBC   O00010097   8.590   9.118   7.061
   15SBC   C01910098   8.487   9.070   7.132
   15SBC   C01810099   8.371   9.142   7.164
   15SBC   C01710100   8.367   9.273   7.123
   15SBC   C01610101   8.255   9.351   7.148
   15SBC   C01510102   8.154   9.281   7.221
   15SBC   C01410103   8.047   9.357   7.264
   15SBC   C01310104   8.024   9.487   7.216
   15SBC   C01210105   7.895   9.520   7.277
   15SBC   C01110106   7.865   9.411   7.361
   15SBC   C01010107   7.755   9.410   7.433
   15SBC   C00Z10108   7.703   9.313   7.521
   15SBC   C00Y10109   7.573   9.361   7.555
   15SBC   C01O10110   7.552   9.486   7.505
   15SBC   C01P10111   7.426   9.538   7.470
   15SBC   C02L10112   7.425   9.642   7.385
   15SBC   C02K10113   7.548   9.688   7.335
   15SBC   C01M10114   7.669   9.615   7.337
   15SBC   C02J10115   7.536   9.820   7.281
   15SBC   C02I10116   7.634   9.895   7.225
   15SBC   C02H10117   7.767   9.862   7.194
   15SBC   C01Q10118   7.842   9.744   7.209
   15SBC   C02G10119   7.967   9.763   7.140
   15SBC   C08910120   7.973   9.899   7.106
   15SBC   C08810121   8.062   9.927   7.008
   15SBC   C08710122   8.139   9.800   7.005
   15SBC   C08610123   8.265   9.771   6.938
   15SBC   C03S10124   8.348   9.653   6.948
   15SBC   N00610125   8.461   9.685   6.875
   15SBC   C08F10126   8.443   9.808   6.813
   15SBC   C01J10127   8.352   9.531   7.019
   15SBC   C03R10128   8.467   9.452   6.993
   15SBC   C03Q10129   8.574   9.493   6.910
   15SBC   C08E10130   8.328   9.864   6.852
   15SBC   C08D10131   8.290   9.996   6.813
   15SBC   C08K10132   8.373  10.054   6.719
   15SBC   C08C10133   8.169  10.070   6.844
   15SBC   C09110134   8.126  10.175   6.764
   15SBC   C09210135   8.208  10.231   6.663
   15SBC   C08B10136   8.080  10.058   6.947
   15SBC   C09010137   7.982  10.167   6.938
   15SBC   C09410138   7.864  10.184   7.018
   15SBC   C09510139   7.757  10.268   6.984
   15SBC   C09R10140   7.642  10.230   7.054
   15SBC   C09710141   7.667  10.113   7.115
   15SBC   C09610142   7.798  10.085   7.092
   15SBC   C01I10143   8.084   9.696   7.093
   15SBC   C08A10144   7.848   9.956   7.128
   15SBC   C09L10145   7.584  10.018   7.185
   15SBC   C09K10146   7.444  10.017   7.213
   15SBC   C09J10147   7.351  10.103   7.150
   15SBC   C09I10148   7.213  10.080   7.137
   15SBC   C09O10149   7.115   9.977   7.175
   15SBC   C09N10150   7.149   9.863   7.249
   15SBC   C09M10151   7.282   9.822   7.299
   15SBC   C06O10152   7.038   9.780   7.290
   15SBC   C05M10153   6.908   9.811   7.242
   15SBC   C06P10154   6.883   9.921   7.159
   15SBC   C04210155   6.797   9.728   7.281
   15SBC   C04110156   6.816   9.612   7.355
   15SBC   C04010157   6.711   9.528   7.385
   15SBC   C03Z10158   6.730   9.406   7.452
   15SBC   C03Y10159   6.851   9.373   7.503
   15SBC   C02710160   6.873   9.249   7.570
   15SBC   C02610161   7.002   9.213   7.606
   15SBC   C02810162   7.028   9.085   7.651
   15SBC   C02910163   6.922   8.994   7.663
   15SBC   C02B10164   6.949   8.860   7.700
   15SBC   C02C10165   6.846   8.765   7.711
   15SBC   C02X10166   6.878   8.635   7.736
   15SBC   C03E10167   6.779   8.542   7.717
   15SBC   C03G10168   6.654   8.569   7.674
   15SBC   C04Q10169   6.622   8.705   7.661
   15SBC   C04R10170   6.500   8.737   7.604
   15SBC   C04S10171   6.472   8.870   7.571
   15SBC   C04L10172   6.571   8.965   7.574
   15SBC   C04M10173   6.692   8.934   7.635
   15SBC   C04K10174   6.547   9.097   7.533
   15SBC   C04F10175   6.420   9.128   7.487
   15SBC   C04E10176   6.316   9.035   7.483
   15SBC   C04D10177   6.196   9.065   7.432
   15SBC   C05010178   6.092   8.972   7.430
   15SBC   C05110179   5.960   9.004   7.383
   15SBC   C05Q10180   5.863   8.910   7.386
   15SBC   C05V10181   5.735   8.951   7.343
   15SBC   N00510182   5.638   8.855   7.348
   15SBC   C07V10183   5.663   8.726   7.394
   15SBC   C08210184   5.558   8.633   7.404
   15SBC   C08110185   5.426   8.665   7.379
   15SBC   C07C10186   5.401   8.790   7.319
   15SBC   C07B10187   5.269   8.821   7.281
   15SBC   C08010188   5.169   8.729   7.300
   15SBC   C07Z10189   5.040   8.766   7.256
   15SBC   H00L10190   4.963   8.693   7.274
   15SBC   C07910191   5.012   8.890   7.197
   15SBC   C07810192   5.116   8.981   7.186
   15SBC   C07710193   5.094   9.110   7.132
   15SBC   C07X10194   4.969   9.141   7.079
   15SBC   H00I10195   4.939   9.235   7.035
   15SBC   C07Y10196   4.866   9.047   7.086
   15SBC   H00H10197   4.776   9.066   7.028
   15SBC   C07610198   5.193   9.209   7.131
   15SBC   C06C10199   5.168   9.344   7.112
   15SBC   H00C10200   5.073   9.394   7.102
   15SBC   C06F10201   5.327   9.168   7.163
   15SBC   C06E10202   5.433   9.257   7.149
   15SBC   C06G10203   5.562   9.232   7.184
   15SBC   C06H10204   5.585   9.107   7.240
   15SBC   C06I10205   5.489   9.008   7.246
   15SBC   C06L10206   5.662   9.328   7.163
   15SBC   C06M10207   5.642   9.454   7.102
   15SBC   C06K10208   5.790   9.295   7.219
   15SBC   C05S10209   5.812   9.167   7.278
   15SBC   C05U10210   5.893   9.385   7.211
   15SBC   C05X10211   5.875   9.508   7.140
   15SBC   C05G10212   6.000   9.585   7.130
   15SBC   C05F10213   6.111   9.544   7.203
   15SBC   C05E10214   6.221   9.626   7.177
   15SBC   C04810215   6.345   9.603   7.235
   15SBC   C05610216   6.440   9.695   7.205
   15SBC   C04510217   6.564   9.674   7.265
   15SBC   C04710218   6.355   9.492   7.315
   15SBC   C04910219   6.248   9.404   7.329
   15SBC   C04B10220   6.269   9.283   7.384
   15SBC   C04610221   6.477   9.467   7.368
   15SBC   C04H10222   6.501   9.340   7.415
   15SBC   C05D10223   6.183   9.726   7.094
   15SBC   C04A10224   6.121   9.429   7.280
   15SBC   C05T10225   6.014   9.344   7.280
   15SBC   C05510226   6.040   9.222   7.335
   15SBC   C06D10227   5.406   9.392   7.113
   15SBC   C07W10228   5.353   9.040   7.214
   15SBC   C08510229   4.884   8.924   7.147
   15SBC   H00M10230   4.808   8.848   7.144
   15SBC   C08410231   5.202   8.607   7.350
   15SBC   H00J10232   5.125   8.532   7.349
   15SBC   C07A10233   5.246   8.946   7.230
   15SBC   C08310234   5.325   8.574   7.402
   15SBC   H00K10235   5.342   8.478   7.446
   15SBC   O00K10236   5.586   8.505   7.452
   15SBC   C0GO10237   5.716   8.466   7.465
   15SBC   C0GN10238   5.742   8.334   7.486
   15SBC   H01L10239   5.660   8.264   7.484
   15SBC   C0GM10240   5.874   8.288   7.496
   15SBC   C0GL10241   5.903   8.154   7.501
   15SBC   H01M10242   5.821   8.086   7.488
   15SBC   O00J10243   6.032   8.105   7.499
   15SBC   C0GK10244   6.127   8.199   7.505
   15SBC   H01N10245   6.224   8.154   7.518
   15SBC   C05K10246   6.105   8.334   7.512
   15SBC   C05J10247   6.206   8.432   7.533
   15SBC   C04Y10248   6.339   8.404   7.567
   15SBC   C04X10249   6.430   8.502   7.604
   15SBC   O00610250   6.386   8.273   7.575
   15SBC   C05310251   6.512   8.232   7.611
   15SBC   C04O10252   6.603   8.329   7.652
   15SBC   C03C10253   6.739   8.304   7.691
   15SBC   C03B10254   6.817   8.183   7.706
   15SBC   C05410255   6.785   8.061   7.650
   15SBC   C0GR10256   6.875   7.954   7.655
   15SBC   C03M10257   7.018   7.933   7.674
   15SBC   C03I10258   7.113   8.032   7.705
   15SBC   C03J10259   7.254   7.997   7.716
   15SBC   N00210260   7.358   8.095   7.741
   15SBC   C02U10261   7.494   8.063   7.735
   15SBC   C02T10262   7.599   8.158   7.738
   15SBC   C02Z10263   7.728   8.119   7.730
   15SBC   N00110264   7.837   8.213   7.721
   15SBC   C02R10265   7.970   8.165   7.707
   15SBC   C03210266   8.000   8.029   7.711
   15SBC   C03110267   7.891   7.942   7.720
   15SBC   H00710268   7.913   7.837   7.705
   15SBC   C03310269   8.135   7.992   7.709
   15SBC   H00310270   8.148   7.885   7.709
   15SBC   O00410271   8.242   8.078   7.701
   15SBC   C03410272   8.213   8.215   7.686
   15SBC   C03510273   8.311   8.309   7.672
   15SBC   C03610274   8.281   8.448   7.669
   15SBC   H00510275   8.356   8.526   7.660
   15SBC   C03710276   8.150   8.491   7.682
   15SBC   H00610277   8.131   8.597   7.677
   15SBC   C00D10278   8.042   8.395   7.685
   15SBC   C00C10279   7.911   8.436   7.688
   15SBC   C00B10280   7.868   8.573   7.661
   15SBC   C00A10281   7.920   8.710   7.628
   15SBC   C00910282   7.807   8.799   7.655
   15SBC   C00810283   7.781   8.931   7.616
   15SBC   C00710284   7.879   8.983   7.534
   15SBC   C00610285   7.860   9.116   7.496
   15SBC   C00510286   7.960   9.172   7.411
   15SBC   C00410287   8.072   9.098   7.364
   15SBC   C00310288   8.085   8.961   7.405
   15SBC   C00210289   8.178   8.883   7.343
   15SBC   C01C10290   8.280   8.944   7.273
   15SBC   C01B10291   8.395   8.871   7.230
   15SBC   H00010292   8.410   8.767   7.259
   15SBC   C00110293   8.160   8.745   7.351
   15SBC   C00010294   8.067   8.690   7.437
   15SBC   C01U10295   8.069   8.554   7.409
   15SBC   H00210296   7.995   8.480   7.434
   15SBC   C01T10297   8.179   8.525   7.313
   15SBC   O00210298   8.223   8.421   7.261
   15SBC   O00110299   8.229   8.644   7.280
   15SBC   C01S10300   7.990   8.906   7.492
   15SBC   C00N10301   7.653   8.984   7.641
   15SBC   C00M10302   7.549   8.906   7.691
   15SBC   C00J10303   7.567   8.775   7.719
   15SBC   C00I10304   7.474   8.684   7.741
   15SBC   C00H10305   7.498   8.548   7.744
   15SBC   C00G10306   7.632   8.506   7.725
   15SBC   C00F10307   7.668   8.376   7.723
   15SBC   C01X10308   7.397   8.456   7.758
   15SBC   C01W10309   7.268   8.498   7.762
   15SBC   C01V10310   7.239   8.633   7.751
   15SBC   C02010311   7.111   8.681   7.750
   15SBC   C01Z10312   7.169   8.404   7.765
   15SBC   C02Y10313   7.044   8.457   7.764
   15SBC   C03910314   6.943   8.365   7.751
   15SBC   C02W10315   7.193   8.267   7.752
   15SBC   C01Y10316   7.432   8.322   7.752
   15SBC   C00U10317   7.340   8.728   7.736
   15SBC   C00S10318   7.312   8.860   7.708
   15SBC   C00T10319   7.182   8.905   7.702
   15SBC   C00R10320   7.416   8.947   7.686
   15SBC   C00Q10321   7.391   9.078   7.656
   15SBC   C00V10322   7.264   9.131   7.651
   15SBC   C02410323   7.236   9.258   7.603
   15SBC   C00X10324   7.343   9.338   7.577
   15SBC   C00P10325   7.499   9.157   7.624
   15SBC   C00O10326   7.629   9.109   7.610
   15SBC   C00K10327   7.701   8.730   7.710
   15SBC   N00010328   7.993   8.767   7.520
   15SBC   C00L10329   7.731   8.595   7.697
   15SBC   H00410330   8.412   8.271   7.666
   15SBC   C02Q10331   8.072   8.259   7.687
   15SBC   C00E10332   7.807   8.347   7.719
   15SBC   C03010333   7.757   7.978   7.731
   15SBC   O00310334   7.660   7.887   7.731
   15SBC   C02S10335   7.567   8.286   7.739
   15SBC   C03810336   7.530   7.931   7.725
   15SBC   C03L10337   7.435   7.828   7.719
   15SBC   H00810338   7.474   7.728   7.725
   15SBC   C02V10339   7.326   8.229   7.752
   15SBC   C03K10340   7.298   7.866   7.700
   15SBC   C0BK10341   7.198   7.777   7.664
   15SBC   H00T10342   7.232   7.675   7.656
   15SBC   C03H10343   7.088   8.171   7.727
   15SBC   C0BL10344   7.063   7.799   7.652
   15SBC   C0GU10345   6.978   7.694   7.621
   15SBC   H01O10346   7.016   7.593   7.608
   15SBC   C0GT10347   6.844   7.707   7.622
   15SBC   H01P10348   6.786   7.617   7.605
   15SBC   C0GS10349   6.793   7.838   7.628
   15SBC   C0GV10350   6.658   7.879   7.600
   15SBC   C0GW10351   6.537   7.810   7.565
   15SBC   H01Q10352   6.526   7.703   7.554
   15SBC   C0GX10353   6.429   7.885   7.540
   15SBC   H01R10354   6.342   7.836   7.500
   15SBC   O00L10355   6.416   8.023   7.563
   15SBC   C0GQ10356   6.653   8.015   7.625
   15SBC   C03A10357   6.957   8.234   7.720
   15SBC   C05L10358   6.533   8.091   7.602
   15SBC   C04W10359   6.175   8.570   7.526
   15SBC   C05I10360   6.048   8.609   7.492
   15SBC   C05O10361   5.945   8.518   7.483
   15SBC   C05210362   6.018   8.745   7.462
   15SBC   C04V10363   6.271   8.669   7.543
   15SBC   C04U10364   6.248   8.806   7.512
   15SBC   N00910365   5.977   8.382   7.497
   15SBC   C0GP10366   5.818   8.556   7.461
   15SBC   C05W10367   5.793   8.685   7.419
   15SBC   C07D10368   5.508   8.881   7.300
   15SBC   C06J10369   5.709   9.073   7.290
   15SBC   C05P10370   5.889   8.785   7.426
   15SBC   C05R10371   5.939   9.133   7.336
   15SBC   C04Z10372   6.121   8.841   7.469
   15SBC   C04C10373   6.169   9.189   7.383
   15SBC   C04G10374   6.397   9.247   7.425
   15SBC   C04J10375   6.647   9.193   7.529
   15SBC   C04T10376   6.345   8.907   7.520
   15SBC   N00310377   6.402   8.636   7.579
   15SBC   C04P10378   6.561   8.467   7.646
   15SBC   C03D10379   6.814   8.409   7.725
   15SBC   C02110380   7.010   8.591   7.759
   15SBC   C03F10381   6.718   8.804   7.682
   15SBC   C02210382   7.079   8.817   7.722
   15SBC   C02A10383   6.795   9.030   7.632
   15SBC   C02310384   7.159   9.041   7.671
   15SBC   C02510385   7.108   9.300   7.580
   15SBC   C02D10386   7.089   9.422   7.517
   15SBC   C02E10387   7.197   9.512   7.487
   15SBC   C02N10388   7.184   9.627   7.405
   15SBC   C04N10389   6.767   9.157   7.587
   15SBC   C02P10390   6.959   9.458   7.479
   15SBC   C04I10391   6.623   9.316   7.465
   15SBC   C04410392   6.581   9.559   7.341
   15SBC   C04310393   6.943   9.581   7.406
   15SBC   C05N10394   7.056   9.666   7.374
   15SBC   C09U10395   6.986  10.002   7.123
   15SBC   C09V10396   6.958  10.104   7.029
   15SBC   C09X10397   7.052  10.198   6.988
   15SBC   C09Y10398   7.044  10.287   6.879
   15SBC   C0A110399   6.921  10.301   6.823
   15SBC   C0A210400   6.816  10.219   6.872
   15SBC   C0A410401   6.693  10.241   6.817
   15SBC   C07110402   6.583  10.172   6.865
   15SBC   C0A510403   6.457  10.192   6.811
   15SBC   C0A910404   6.443  10.292   6.712
   15SBC   C0A810405   6.552  10.355   6.665
   15SBC   C0AP10406   6.534  10.449   6.566
   15SBC   C0BY10407   6.642  10.513   6.519
   15SBC   C0BX10408   6.774  10.495   6.560
   15SBC   C0C210409   6.881  10.562   6.505
   15SBC   C0C310410   7.011  10.536   6.546
   15SBC   C0CT10411   7.025  10.447   6.656
   15SBC   C0C110412   6.858  10.647   6.395
   15SBC   C0C010413   6.722  10.694   6.375
   15SBC   C0A710414   6.786  10.403   6.662
   15SBC   C0BZ10415   6.622  10.613   6.430
   15SBC   C0BO10416   6.493  10.660   6.402
   15SBC   C0BN10417   6.384  10.585   6.433
   15SBC   C0BM10418   6.263  10.624   6.387
   15SBC   C0B910419   6.152  10.551   6.426
   15SBC   C0B810420   6.172  10.449   6.520
   15SBC   C0AD10421   6.299  10.413   6.567
   15SBC   C0AF10422   6.062  10.385   6.569
   15SBC   C0AG10423   5.931  10.407   6.524
   15SBC   C0B710424   5.917  10.514   6.436
   15SBC   C0AE10425   6.089  10.288   6.666
   15SBC   C0AB10426   6.213  10.255   6.716
   15SBC   C0AA10427   6.224  10.156   6.813
   15SBC   C0AJ10428   5.978  10.222   6.706
   15SBC   C0AK10429   5.993  10.129   6.806
   15SBC   C06W10430   5.874  10.066   6.817
   15SBC   C0AI10431   5.841  10.241   6.673
   15SBC   C0BP10432   6.497  10.763   6.308
   15SBC   C0BQ10433   6.371  10.799   6.244
   15SBC   C0BW10434   6.406  10.479   6.517
   15SBC   C0AC10435   6.319  10.320   6.666
   15SBC   C0A610436   6.678  10.331   6.707
   15SBC   C0A310437   6.909  10.386   6.715
   15SBC   C09Z10438   7.151  10.368   6.840
   15SBC   C09W10439   6.833  10.122   6.973
   15SBC   C07210440   6.727  10.045   7.013
   15SBC   C09H10441   7.176  10.187   7.051
   15SBC   C09G10442   7.278  10.268   7.006
   15SBC   C09P10443   7.391  10.220   7.071
   15SBC   C02O10444   7.408   9.888   7.268
   15SBC   C02M10445   7.297   9.700   7.364
   15SBC   C02F10446   7.317   9.464   7.514
   15SBC   C00W10447   7.468   9.284   7.595
   15SBC   C01R10448   7.734   9.175   7.544
   15SBC   C01N10449   7.662   9.510   7.426
   15SBC   C01L10450   7.799   9.629   7.270
   15SBC   C01H10451   8.118   9.559   7.132
   15SBC   C01K10452   7.951   9.307   7.355
   15SBC   C01E10453   8.164   9.152   7.274
   15SBC   C01G10454   8.240   9.481   7.097
   15SBC   C01D10455   8.273   9.082   7.236
   15SBC   C01A10456   8.495   8.936   7.161
   15SBC   H00110457   8.580   8.885   7.117
   15SBC   C01F10458   8.470   9.324   7.047
   15SBC   C03P10459   8.687   9.417   6.885
   15SBC   C03T10460   8.570   9.615   6.844
   15SBC   C08I10461   8.532   9.869   6.737
   15SBC   C08J10462   8.498   9.993   6.689
   15SBC   C08L10463   8.333  10.167   6.645
   15SBC   C09310464   8.158  10.339   6.590
   15SBC   C08Z10465   8.011  10.239   6.816
   15SBC   C09T10466   7.727  10.536   6.588
   15SBC   C09S10467   7.748  10.372   6.897
   15SBC   C09Q10468   7.511  10.279   7.035
   15SBC   C09F10469   7.275  10.354   6.895
   15SBC   C09E10470   7.516  10.527   6.700
   15SBC   C0A010471   7.146  10.446   6.722
   15SBC   C0CU10472   7.115  10.597   6.484
   15SBC   C0CR10473   7.090  10.667   6.361
   15SBC   C0CZ10474   7.199  10.724   6.293
   15SBC   C0DA10475   7.580  10.559   6.579
   15SBC   C0D910476   7.619  10.860   6.382
   15SBC   H00V10477   7.682  10.908   6.454
   15SBC   C0CY10478   7.331  10.697   6.345
   15SBC   C0DF10479   7.571  10.933   6.264
   15SBC   C0DE10480   7.550  11.072   6.233
   15SBC   C0GI10481   7.629  11.185   6.252
   15SBC   H01K10482   7.729  11.179   6.292
   15SBC   C0GJ10483   7.576  11.303   6.216
   15SBC   H01J10484   7.632  11.390   6.246
   15SBC   O00I10485   7.448  11.321   6.160
   15SBC   C0GH10486   7.369  11.207   6.139
   15SBC   C0GG10487   7.245  11.230   6.072
   15SBC   O00G10488   7.224  11.359   6.039
   15SBC   C0G810489   7.111  11.401   5.978
   15SBC   C0G910490   7.118  11.531   5.930
   15SBC   H01G10491   7.214  11.581   5.932
   15SBC   C0GA10492   7.006  11.589   5.878
   15SBC   H01H10493   7.018  11.689   5.840
   15SBC   C0GB10494   6.880  11.526   5.877
   15SBC   C0EP10495   6.878  11.389   5.921
   15SBC   C0E810496   6.743  11.327   5.933
   15SBC   C0CK10497   6.683  11.206   5.977
   15SBC   C0CL10498   6.753  11.092   5.985
   15SBC   C0E910499   6.895  11.088   5.990
   15SBC   C0GE10500   7.012  11.182   5.992
   15SBC   C0E710501   6.633  11.394   5.883
   15SBC   C0CJ10502   6.512  11.322   5.891
   15SBC   C0E610503   6.400  11.372   5.832
   15SBC   H00Y10504   6.306  11.320   5.842
   15SBC   C0EO10505   6.407  11.506   5.790
   15SBC   H01110506   6.311  11.552   5.771
   15SBC   C0G610507   6.524  11.585   5.789
   15SBC   C0G510508   6.529  11.728   5.774
   15SBC   H01F10509   6.441  11.790   5.767
   15SBC   C0GD10510   6.647  11.791   5.784
   15SBC   H01I10511   6.653  11.898   5.772
   15SBC   O00H10512   6.773  11.729   5.809
   15SBC   C0EQ10513   6.647  11.525   5.828
   15SBC   C0GC10514   6.763  11.594   5.836
   15SBC   C0G710515   6.997  11.317   5.965
   15SBC   C0DD10516   7.422  11.082   6.168
   15SBC   C0GF10517   7.139  11.132   6.038
   15SBC   C0CO10518   6.918  10.951   5.988
   15SBC   C0D010519   7.169  10.815   6.189
   15SBC   C0C410520   6.961  10.693   6.312
   15SBC   C0CN10521   6.806  10.866   5.995
   15SBC   C0CP10522   6.640  10.782   6.288
   15SBC   C0CM10523   6.698  10.956   5.980
   15SBC   C0CI10524   6.539  11.207   5.972
   15SBC   C0CD10525   6.076  11.123   6.064
   15SBC   C0BR10526   6.364  10.912   6.161
   15SBC   C0CS10527   6.260  10.726   6.298
   15SBC   C0B610528   6.026  10.584   6.383
   15SBC   C0CG10529   5.990  10.917   6.147
   15SBC   C0CF10530   5.971  11.034   6.079
   15SBC   C0E510531   5.925  11.293   5.988
   15SBC   C0DT10532   5.682  11.356   5.883
   15SBC   C0DL10533   5.610  11.017   6.008
   15SBC   C0DM10534   5.502  10.937   6.032
   15SBC   C0DY10535   5.360  11.093   5.919
   15SBC   C0DU10536   5.562  11.387   5.829
   15SBC   C0F010537   5.415  11.555   5.757
   15SBC   C0F410538   5.165  11.658   5.741
   15SBC   C0FG10539   5.109  11.288   5.737
   15SBC   O00B10540   4.932  11.597   5.786
   15SBC   C0FN10541   4.987  11.233   5.770
   15SBC   C0DZ10542   5.236  11.126   5.867
   15SBC   O00C10543   5.025  10.862   6.003
   15SBC   C0FR10544   5.028  10.754   6.086
   15SBC   O00D10545   4.919  10.704   6.110
   15SBC   C0E010546   5.377  10.973   5.988
   15SBC   C0E310547   5.160  10.712   6.127
   15SBC   C0AW10548   5.177  10.600   6.210
   15SBC   C0AV10549   5.074  10.505   6.251
   15SBC   H00Q10550   4.975  10.513   6.207
   15SBC   C0AU10551   5.098  10.404   6.342
   15SBC   H00R10552   5.011  10.342   6.361
   15SBC   C0AT10553   5.229  10.380   6.393
   15SBC   C0AS10554   5.303  10.292   6.481
   15SBC   C0AR10555   5.229  10.212   6.566
   15SBC   C0BE10556   5.327  10.463   6.340
   15SBC   C0DN10557   5.521  10.826   6.106
   15SBC   C0AX10558   5.302  10.576   6.258
   15SBC   C0BB10559   5.653  10.688   6.249
   15SBC   C0BD10560   5.450  10.427   6.392
   15SBC   C0B210561   5.789  10.548   6.393
   15SBC   C0AH10562   5.811  10.340   6.570
   15SBC   C0BF10563   5.445  10.325   6.488
   15SBC   C0AL10564   5.771  10.140   6.747
   15SBC   C07U10565   5.425  10.080   6.676
   15SBC   C0AQ10566   5.290  10.107   6.644
   15SBC   C0BG10567   5.086  10.189   6.566
   15SBC   C0FY10568   4.931  10.020   6.830
   15SBC   C0BJ10569   4.990  10.287   6.616
   15SBC   H00S10570   4.978  10.393   6.600
   15SBC   C0FZ10571   4.844  10.114   6.887
   15SBC   C07S10572   5.006   9.926   6.903
   15SBC   C0G110573   4.793   9.961   7.209
   15SBC   C07K10574   5.019   9.681   7.320
   15SBC   C07H10575   5.148   9.754   7.074
   15SBC   C06B10576   5.273   9.436   7.107
   15SBC   C06N10577   5.500   9.485   7.092
   15SBC   C06610578   5.353   9.793   6.918
   15SBC   C06210579   5.657   9.849   6.860
   15SBC   C05Y10580   5.750   9.539   7.080
   15SBC   C06110581   5.794   9.834   6.849
   15SBC   C05H10582   6.051   9.698   7.061
   15SBC   C06V10583   5.887   9.937   6.867
   15SBC   C06Y10584   6.116  10.089   6.859
   15SBC   C05C10585   6.287   9.823   7.068
   15SBC   C06Z10586   6.351  10.123   6.860
   15SBC   C07010587   6.601  10.066   6.958
   15SBC   C05B10588   6.418   9.803   7.120
   15SBC   C05710589   6.669   9.758   7.234
   15SBC   C05910590   6.754   9.945   7.110
   16SBC   C05810591  11.695   5.626  12.744
   16SBC   C05A10592  11.654   5.691  12.626
   16SBC   C06Q10593  11.704   5.818  12.589
   16SBC   C06R10594  11.654   5.885  12.477
   16SBC   C06S10595  11.539   5.836  12.405
   16SBC   C06T10596  11.492   5.915  12.299
   16SBC   C06U10597  11.359   5.905  12.225
   16SBC   C06X10598  11.256   5.805  12.219
   16SBC   C06010599  11.136   5.861  12.145
   16SBC   C05Z10600  11.053   5.792  12.049
   16SBC   C06810601  11.043   5.893  11.936
   16SBC   C06710602  10.955   5.894  11.817
   16SBC   C06910603  10.861   5.778  11.799
   16SBC   C06A10604  10.757   5.764  11.694
   16SBC   C07310605  10.672   5.861  11.629
   16SBC   C07P10606  10.534   5.831  11.619
   16SBC   C07O10607  10.456   5.729  11.687
   16SBC   H00D10608  10.504   5.694  11.777
   16SBC   C07N10609  10.335   5.683  11.639
   16SBC   H00E10610  10.292   5.597  11.690
   16SBC   C07M10611  10.279   5.738  11.531
   16SBC   H00F10612  10.188   5.699  11.488
   16SBC   C07L10613  10.333   5.858  11.478
   16SBC   C07Q10614  10.267   5.938  11.380
   16SBC   H00G10615  10.166   5.908  11.358
   16SBC   O00F10616  10.312   6.056  11.335
   16SBC   C07J10617  10.441   6.090  11.366
   16SBC   C07I10618  10.513   6.018  11.464
   16SBC   N00410619  10.656   6.048  11.476
   16SBC   C07R10620  10.714   6.144  11.387
   16SBC   C07T10621  10.623   6.229  11.317
   16SBC   C0FX10622  10.669   6.347  11.259
   16SBC   C0FW10623  10.590   6.453  11.214
   16SBC   C0G010624  10.453   6.424  11.215
   16SBC   C0G210625  10.363   6.526  11.174
   16SBC   H01E10626  10.257   6.511  11.185
   16SBC   C0G310627  10.412   6.657  11.143
   16SBC   H01C10628  10.342   6.735  11.119
   16SBC   C0G410629  10.549   6.678  11.134
   16SBC   H01D10630  10.589   6.771  11.097
   16SBC   O00E10631  10.409   6.303  11.257
   16SBC   C0FV10632  10.639   6.577  11.169
   16SBC   C0FU10633  10.780   6.592  11.171
   16SBC   H01B10634  10.821   6.689  11.147
   16SBC   C0FT10635  10.862   6.485  11.208
   16SBC   C0FS10636  11.001   6.463  11.242
   16SBC   C0BI10637  11.020   6.324  11.276
   16SBC   C0BH10638  11.128   6.318  11.368
   16SBC   C07F10639  11.109   6.260  11.498
   16SBC   C07E10640  11.034   6.153  11.550
   16SBC   C07G10641  10.921   6.106  11.492
   16SBC   C07410642  10.870   6.017  11.583
   16SBC   C06510643  11.045   6.104  11.680
   16SBC   C06410644  11.125   6.174  11.767
   16SBC   C06310645  11.164   6.140  11.898
   16SBC   C07510646  11.261   6.243  11.932
   16SBC   C0AM10647  11.273   6.346  11.832
   16SBC   C0AN10648  11.353   6.472  11.836
   16SBC   C0AO10649  11.453   6.530  11.930
   16SBC   C0B110650  11.499   6.664  11.920
   16SBC   C0B010651  11.445   6.749  11.831
   16SBC   C0AZ10652  11.480   6.880  11.815
   16SBC   C0AY10653  11.417   6.965  11.718
   16SBC   N00710654  11.450   7.096  11.704
   16SBC   C0E210655  11.375   7.173  11.611
   16SBC   C0E110656  11.412   7.306  11.603
   16SBC   C0E410657  11.341   7.393  11.507
   16SBC   C0FF10658  11.374   7.528  11.497
   16SBC   C0FJ10659  11.299   7.634  11.425
   16SBC   C0FK10660  11.156   7.638  11.417
   16SBC   H01610661  11.085   7.557  11.421
   16SBC   C0FL10662  11.117   7.782  11.418
   16SBC   H01710663  11.018   7.823  11.432
   16SBC   C0FM10664  11.238   7.860  11.422
   16SBC   C0FH10665  11.293   7.972  11.501
   16SBC   C0FI10666  11.425   7.932  11.531
   16SBC   C0F310667  11.484   7.980  11.646
   16SBC   C0F210668  11.585   7.905  11.696
   16SBC   C0DW10669  11.598   7.769  11.672
   16SBC   C0FE10670  11.524   7.708  11.576
   16SBC   C0DV10671  11.666   7.683  11.757
   16SBC   C0DX10672  11.637   7.544  11.758
   16SBC   C0DK10673  11.705   7.467  11.852
   16SBC   C0DJ10674  11.779   7.522  11.951
   16SBC   C0DI10675  11.850   7.442  12.043
   16SBC   C0DH10676  11.833   7.303  12.045
   16SBC   C0DG10677  11.742   7.249  11.951
   16SBC   C0BV10678  11.714   7.112  11.960
   16SBC   C0BC10679  11.617   7.059  11.881
   16SBC   C0BA10680  11.776   7.034  12.053
   16SBC   C0B410681  11.746   6.898  12.058
   16SBC   C0B310682  11.643   6.841  11.985
   16SBC   C0B510683  11.807   6.814  12.154
   16SBC   C0BU10684  11.910   6.867  12.235
   16SBC   C0BT10685  11.945   7.002  12.231
   16SBC   C0BS10686  12.040   7.057  12.316
   16SBC   C0CC10687  12.059   7.198  12.308
   16SBC   C0CB10688  12.151   7.257  12.393
   16SBC   C0CH10689  12.125   7.396  12.420
   16SBC   C0DO10690  12.062   7.482  12.332
   16SBC   C0DP10691  12.074   7.618  12.343
   16SBC   C0EA10692  12.157   7.674  12.445
   16SBC   H01210693  12.214   7.616  12.515
   16SBC   O00910694  12.180   7.812  12.443
   16SBC   C0EH10695  12.083   7.886  12.386
   16SBC   C0EG10696  12.066   8.020  12.420
   16SBC   C0EJ10697  12.122   8.106  12.521
   16SBC   H01010698  12.204   8.094  12.590
   16SBC   C0EK10699  12.048   8.233  12.522
   16SBC   H00Z10700  12.068   8.321  12.581
   16SBC   C0EL10701  11.944   8.215  12.427
   16SBC   C0EM10702  11.845   8.303  12.373
   16SBC   C0EW10703  11.818   8.435  12.419
   16SBC   H01310704  11.870   8.480  12.502
   16SBC   C0EX10705  11.720   8.516  12.342
   16SBC   H01410706  11.721   8.619  12.373
   16SBC   C0F110707  11.647   8.462  12.228
   16SBC   C0EU10708  11.667   8.327  12.202
   16SBC   C0ET10709  11.598   8.253  12.103
   16SBC   C0ES10710  11.670   8.132  12.108
   16SBC   C0EE10711  11.768   8.127  12.211
   16SBC   C0ED10712  11.882   8.048  12.255
   16SBC   C0EC10713  11.910   7.916  12.210
   16SBC   C0EB10714  11.864   7.865  12.086
   16SBC   C0EN10715  11.776   7.940  11.996
   16SBC   C0ER10716  11.742   7.873  11.878
   16SBC   C0DS10717  11.870   7.723  12.063
   16SBC   C0DR10718  11.935   7.637  12.151
   16SBC   C0EY10719  11.694   8.055  11.996
   16SBC   C0EZ10720  11.608   8.060  11.876
   16SBC   C0F510721  11.492   8.139  11.834
   16SBC   C0F610722  11.446   8.254  11.901
   16SBC   N00810723  11.339   8.325  11.832
   16SBC   C0F710724  11.263   8.260  11.727
   16SBC   C0FQ10725  11.143   8.324  11.681
   16SBC   H01810726  11.081   8.258  11.622
   16SBC   C0FP10727  11.113   8.452  11.720
   16SBC   H01910728  11.029   8.504  11.677
   16SBC   C0FO10729  11.197   8.518  11.807
   16SBC   H01A10730  11.168   8.621  11.824
   16SBC   C0F810731  11.307   8.133  11.682
   16SBC   C0F910732  11.303   8.455  11.875
   16SBC   C0FA10733  11.381   8.526  11.968
   16SBC   H01510734  11.350   8.625  11.999
   16SBC   C0FB10735  11.480   8.455  12.046
   16SBC   C0FD10736  11.507   8.320  12.012
   16SBC   C0FC10737  11.552   8.527  12.150
   16SBC   O00A10738  11.532   8.648  12.166
   16SBC   C0EV10739  11.767   8.252  12.267
   16SBC   C0EF10740  11.966   8.089  12.363
   16SBC   C0EI10741  12.002   7.836  12.283
   16SBC   C0DQ10742  12.008   7.697  12.257
   16SBC   C0CE10743  11.991   7.420  12.230
   16SBC   H00U10744  12.168   7.428  12.513
   16SBC   C0CA10745  12.256   7.178  12.453
   16SBC   C0C910746  12.242   7.034  12.460
   16SBC   C0C810747  12.341   6.957  12.526
   16SBC   C0C710748  12.348   6.828  12.587
   16SBC   C0C610749  12.463   6.792  12.661
   16SBC   C0C510750  12.498   6.706  12.774
   16SBC   C0CQ10751  12.605   6.753  12.851
   16SBC   C0D110752  12.664   6.879  12.835
   16SBC   C0D810753  12.689   6.933  12.953
   16SBC   C0D710754  12.694   6.826  13.045
   16SBC   C0D610755  12.726   6.844  13.182
   16SBC   C0D510756  12.719   6.736  13.276
   16SBC   C0D410757  12.670   6.598  13.273
   16SBC   C0D310758  12.618   6.559  13.397
   16SBC   C0CX10759  12.514   6.453  13.375
   16SBC   C0CW10760  12.495   6.448  13.228
   16SBC   C0CV10761  12.423   6.370  13.131
   16SBC   C0D210762  12.384   6.237  13.161
   16SBC   C09D10763  12.427   6.160  13.268
   16SBC   C09C10764  12.395   6.020  13.280
   16SBC   C09B10765  12.416   5.940  13.392
   16SBC   C09A10766  12.481   5.999  13.498
   16SBC   C09910767  12.524   6.126  13.493
   16SBC   C09810768  12.543   6.176  13.618
   16SBC   C08Y10769  12.502   6.073  13.719
   16SBC   C08X10770  12.479   6.090  13.862
   16SBC   C08W10771  12.514   6.213  13.933
   16SBC   C08U10772  12.542   6.343  13.872
   16SBC   C08V10773  12.543   6.392  13.736
   16SBC   C0DC10774  12.626   6.511  13.741
   16SBC   H00W10775  12.670   6.554  13.652
   16SBC   C0DB10776  12.642   6.554  13.879
   16SBC   H00X10777  12.687   6.646  13.914
   16SBC   C08T10778  12.598   6.447  13.954
   16SBC   C08S10779  12.610   6.424  14.091
   16SBC   H00N10780  12.649   6.509  14.146
   16SBC   C08R10781  12.565   6.308  14.155
   16SBC   C08Q10782  12.565   6.287  14.296
   16SBC   H00O10783  12.614   6.359  14.360
   16SBC   C08P10784  12.527   6.172  14.368
   16SBC   C08O10785  12.529   6.156  14.508
   16SBC   H00P10786  12.567   6.236  14.570
   16SBC   C08N10787  12.484   6.032  14.571
   16SBC   C08M10788  12.489   6.014  14.712
   16SBC   O00810789  12.530   6.090  14.799
   16SBC   O00710790  12.432   5.905  14.764
   16SBC   C08H10791  12.375   5.811  14.679
   16SBC   C08G10792  12.313   5.689  14.734
   16SBC   C03V10793  12.302   5.654  14.868
   16SBC   H00910794  12.352   5.713  14.943
   16SBC   C03U10795  12.228   5.540  14.914
   16SBC   C03W10796  12.193   5.517  15.054
   16SBC   H00A10797  12.218   5.581  15.137
   16SBC   C03X10798  12.130   5.405  15.085
   16SBC   H00B10799  12.106   5.386  15.188
   16SBC   O00510800  12.084   5.312  14.994
   16SBC   C03O10801  12.098   5.345  14.861
   16SBC   C03N10802  12.032   5.271  14.768
   16SBC   O00010803  11.948   5.177  14.812
   16SBC   C01910804  11.881   5.096  14.725
   16SBC   C01810805  11.878   5.117  14.584
   16SBC   C01710806  11.963   5.217  14.532
   16SBC   C01610807  11.980   5.236  14.392
   16SBC   C01510808  11.915   5.150  14.313
   16SBC   C01410809  11.927   5.166  14.172
   16SBC   C01310810  12.003   5.268  14.111
   16SBC   C01210811  11.984   5.241  13.969
   16SBC   C01110812  11.899   5.124  13.964
   16SBC   C01010813  11.880   5.062  13.847
   16SBC   C00Z10814  11.789   4.966  13.822
   16SBC   C00Y10815  11.774   4.976  13.679
   16SBC   C01O10816  11.858   5.068  13.624
   16SBC   C01P10817  11.829   5.144  13.509
   16SBC   C02L10818  11.901   5.257  13.479
   16SBC   C02K10819  11.979   5.304  13.583
   16SBC   C01M10820  11.982   5.253  13.720
   16SBC   C02J10821  12.067   5.405  13.537
   16SBC   C02I10822  12.160   5.470  13.617
   16SBC   C02H10823  12.180   5.470  13.753
   16SBC   C01Q10824  12.128   5.403  13.861
   16SBC   C02G10825  12.177   5.454  13.981
   16SBC   C08910826  12.281   5.541  13.942
   16SBC   C08810827  12.316   5.631  14.043
   16SBC   C08710828  12.244   5.567  14.159
   16SBC   C08610829  12.250   5.616  14.292
   16SBC   C03S10830  12.204   5.544  14.407
   16SBC   N00610831  12.258   5.618  14.511
   16SBC   C08F10832  12.329   5.726  14.469
   16SBC   C01J10833  12.127   5.429  14.444
   16SBC   C03R10834  12.119   5.401  14.583
   16SBC   C03Q10835  12.189   5.476  14.681
   16SBC   C08E10836  12.323   5.731  14.336
   16SBC   C08D10837  12.385   5.835  14.269
   16SBC   C08K10838  12.437   5.949  14.348
   16SBC   C08C10839  12.403   5.852  14.130
   16SBC   C09110840  12.440   5.978  14.074
   16SBC   C09210841  12.485   6.090  14.150
   16SBC   C08B10842  12.378   5.764  14.023
   16SBC   C09010843  12.409   5.836  13.901
   16SBC   C09410844  12.393   5.779  13.776
   16SBC   C09510845  12.417   5.838  13.653
   16SBC   C09R10846  12.366   5.769  13.544
   16SBC   C09710847  12.307   5.656  13.599
   16SBC   C09610848  12.328   5.661  13.734
   16SBC   C01I10849  12.159   5.448  14.122
   16SBC   C08A10850  12.267   5.564  13.806
   16SBC   C09L10851  12.222   5.563  13.532
   16SBC   C09K10852  12.168   5.552  13.402
   16SBC   C09J10853  12.200   5.635  13.295
   16SBC   C09I10854  12.122   5.652  13.174
   16SBC   C09O10855  11.998   5.595  13.118
   16SBC   C09N10856  11.929   5.485  13.174
   16SBC   C09M10857  11.958   5.421  13.301
   16SBC   C06O10858  11.813   5.440  13.104
   16SBC   C05M10859  11.773   5.503  12.988
   16SBC   C06P10860  11.844   5.612  12.936
   16SBC   C04210861  11.659   5.461  12.915
   16SBC   C04110862  11.583   5.352  12.970
   16SBC   C04010863  11.470   5.305  12.900
   16SBC   C03Z10864  11.383   5.211  12.955
   16SBC   C03Y10865  11.423   5.148  13.073
   16SBC   C02710866  11.342   5.044  13.119
   16SBC   C02610867  11.374   4.992  13.243
   16SBC   C02810868  11.283   4.905  13.302
   16SBC   C02910869  11.159   4.880  13.243
   16SBC   C02B10870  11.073   4.790  13.302
   16SBC   C02C10871  10.947   4.772  13.243
   16SBC   C02X10872  10.850   4.701  13.315
   16SBC   C03E10873  10.727   4.685  13.259
   16SBC   C03G10874  10.683   4.740  13.143
   16SBC   C04Q10875  10.778   4.812  13.073
   16SBC   C04R10876  10.745   4.873  12.955
   16SBC   C04S10877  10.841   4.953  12.891
   16SBC   C04L10878  10.971   4.972  12.944
   16SBC   C04M10879  11.004   4.909  13.062
   16SBC   C04K10880  11.061   5.054  12.884
   16SBC   C04F10881  11.023   5.118  12.767
   16SBC   C04E10882  10.898   5.094  12.711
   16SBC   C04D10883  10.862   5.160  12.591
   16SBC   C05010884  10.741   5.126  12.531
   16SBC   C05110885  10.710   5.184  12.408
   16SBC   C05Q10886  10.591   5.147  12.345
   16SBC   C05V10887  10.573   5.199  12.218
   16SBC   N00510888  10.451   5.166  12.157
   16SBC   C07V10889  10.361   5.083  12.218
   16SBC   C08210890  10.243   5.051  12.146
   16SBC   C08110891  10.226   5.082  12.016
   16SBC   C07C10892  10.318   5.159  11.950
   16SBC   C07B10893  10.315   5.180  11.811
   16SBC   C08010894  10.214   5.120  11.731
   16SBC   C07Z10895  10.232   5.127  11.592
   16SBC   H00L10896  10.164   5.073  11.528
   16SBC   C07910897  10.336   5.190  11.527
   16SBC   C07810898  10.425   5.262  11.607
   16SBC   C07710899  10.521   5.347  11.550
   16SBC   C07X10900  10.524   5.358  11.410
   16SBC   H00I10901  10.590   5.429  11.362
   16SBC   C07Y10902  10.444   5.282  11.327
   16SBC   H00H10903  10.449   5.284  11.219
   16SBC   C07610904  10.593   5.436  11.632
   16SBC   C06C10905  10.658   5.553  11.583
   16SBC   H00C10906  10.648   5.604  11.488
   16SBC   C06F10907  10.601   5.400  11.768
   16SBC   C06E10908  10.682   5.463  11.851
   16SBC   C06G10909  10.710   5.431  11.980
   16SBC   C06H10910  10.634   5.336  12.033
   16SBC   C06I10911  10.524   5.279  11.962
   16SBC   C06L10912  10.820   5.491  12.048
   16SBC   C06M10913  10.891   5.606  12.000
   16SBC   C06K10914  10.854   5.433  12.169
   16SBC   C05S10915  10.767   5.338  12.227
   16SBC   C05U10916  10.975   5.468  12.231
   16SBC   C05X10917  11.057   5.574  12.183
   16SBC   C05G10918  11.181   5.585  12.258
   16SBC   C05F10919  11.216   5.496  12.358
   16SBC   C05E10920  11.335   5.531  12.419
   16SBC   C04810921  11.374   5.475  12.539
   16SBC   C05610922  11.479   5.526  12.606
   16SBC   C04510923  11.518   5.472  12.728
   16SBC   C04710924  11.291   5.378  12.595
   16SBC   C04910925  11.168   5.350  12.533
   16SBC   C04B10926  11.076   5.266  12.590
   16SBC   C04610927  11.328   5.322  12.716
   16SBC   C04H10928  11.241   5.230  12.769
   16SBC   C05D10929  11.380   5.651  12.370
   16SBC   C04A10930  11.132   5.402  12.413
   16SBC   C05T10931  11.008   5.397  12.348
   16SBC   C05510932  10.916   5.310  12.409
   16SBC   C06D10933  10.758   5.571  11.803
   16SBC   C07W10934  10.517   5.306  11.825
   16SBC   C08510935  10.353   5.196  11.387
   16SBC   H00M10936  10.285   5.147  11.319
   16SBC   C08410937  10.105   5.062  11.799
   16SBC   H00J10938  10.025   5.029  11.735
   16SBC   C07A10939  10.418   5.250  11.745
   16SBC   C08310940  10.120   5.046  11.936
   16SBC   H00K10941  10.030   5.005  11.980
   16SBC   O00K10942  10.145   4.986  12.212
   16SBC   C0GO10943  10.162   4.951  12.347
   16SBC   C0GN10944  10.059   4.890  12.415
   16SBC   H01L10945   9.966   4.869  12.365
   16SBC   C0GM10946  10.082   4.832  12.551
   16SBC   C0GL10947   9.979   4.781  12.621
   16SBC   H01M10948   9.883   4.775  12.570
   16SBC   O00J10949   9.983   4.750  12.749
   16SBC   C0GK10950  10.108   4.766  12.806
   16SBC   H01N10951  10.105   4.740  12.911
   16SBC   C05K10952  10.215   4.820  12.737
   16SBC   C05J10953  10.344   4.831  12.803
   16SBC   C04Y10954  10.380   4.779  12.933
   16SBC   C04X10955  10.512   4.792  12.984
   16SBC   O00610956  10.293   4.710  13.008
   16SBC   C05310957  10.317   4.673  13.138
   16SBC   C04O10958  10.446   4.664  13.179
   16SBC   C03C10959  10.497   4.606  13.299
   16SBC   C03B10960  10.441   4.543  13.414
   16SBC   C05410961  10.305   4.554  13.446
   16SBC   C0GR10962  10.252   4.479  13.557
   16SBC   C03M10963  10.310   4.430  13.685
   16SBC   C03I10964  10.438   4.457  13.739
   16SBC   C03J10965  10.464   4.435  13.882
   16SBC   N00210966  10.587   4.474  13.943
   16SBC   C02U10967  10.605   4.460  14.084
   16SBC   C02T10968  10.728   4.496  14.143
   16SBC   C02Z10969  10.749   4.476  14.278
   16SBC   N00110970  10.878   4.504  14.334
   16SBC   C02R10971  10.889   4.508  14.477
   16SBC   C03210972  10.785   4.457  14.557
   16SBC   C03110973  10.667   4.416  14.498
   16SBC   H00710974  10.581   4.377  14.550
   16SBC   C03310975  10.810   4.453  14.696
   16SBC   H00310976  10.726   4.424  14.757
   16SBC   O00410977  10.924   4.500  14.752
   16SBC   C03410978  11.012   4.567  14.671
   16SBC   C03510979  11.109   4.652  14.732
   16SBC   C03610980  11.202   4.723  14.655
   16SBC   H00510981  11.278   4.783  14.702
   16SBC   C03710982  11.202   4.708  14.516
   16SBC   H00610983  11.276   4.751  14.451
   16SBC   C00D10984  11.109   4.620  14.454
   16SBC   C00C10985  11.113   4.591  14.319
   16SBC   C00B10986  11.228   4.610  14.228
   16SBC   C00A10987  11.374   4.649  14.227
   16SBC   C00910988  11.403   4.667  14.085
   16SBC   C00810989  11.501   4.753  14.024
   16SBC   C00710990  11.586   4.821  14.108
   16SBC   C00610991  11.677   4.910  14.047
   16SBC   C00510992  11.759   4.981  14.140
   16SBC   C00410993  11.750   4.967  14.279
   16SBC   C00310994  11.664   4.871  14.329
   16SBC   C00210995  11.657   4.846  14.469
   16SBC   C01C10996  11.732   4.935  14.552
   16SBC   C01B10997  11.717   4.926  14.694
   16SBC   H00010998  11.649   4.858  14.743
   16SBC   C00110999  11.578   4.745  14.525
   16SBC   C00011000  11.493   4.681  14.433
   16SBC   C01U11001  11.459   4.562  14.500
   16SBC   H00211002  11.407   4.474  14.464
   16SBC   C01T11003  11.519   4.565  14.635
   16SBC   O00211004  11.508   4.479  14.723
   16SBC   O00111005  11.597   4.675  14.640
   16SBC   C01S11006  11.579   4.801  14.246
   16SBC   C00N11007  11.486   4.781  13.889
   16SBC   C00M11008  11.377   4.733  13.813
   16SBC   C00J11009  11.273   4.667  13.878
   16SBC   C00I11010  11.150   4.649  13.827
   16SBC   C00H11011  11.047   4.600  13.904
   16SBC   C00G11012  11.064   4.578  14.038
   16SBC   C00F11013  10.960   4.549  14.121
   16SBC   C01X11014  10.925   4.582  13.852
   16SBC   C01W11015  10.908   4.607  13.716
   16SBC   C01V11016  11.014   4.655  13.639
   16SBC   C02011017  10.999   4.678  13.504
   16SBC   C01Z11018  10.784   4.580  13.658
   16SBC   C02Y11019  10.779   4.602  13.522
   16SBC   C03911020  10.659   4.581  13.461
   16SBC   C02W11021  10.671   4.535  13.728
   16SBC   C01Y11022  10.814   4.547  13.930
   16SBC   C00U11023  11.132   4.682  13.697
   16SBC   C00S11024  11.237   4.736  13.622
   16SBC   C00T11025  11.215   4.773  13.491
   16SBC   C00R11026  11.357   4.765  13.684
   16SBC   C00Q11027  11.446   4.845  13.622
   16SBC   C00V11028  11.429   4.884  13.491
   16SBC   C02411029  11.521   4.967  13.425
   16SBC   C00X11030  11.637   5.004  13.491
   16SBC   C00P11031  11.561   4.878  13.688
   16SBC   C00O11032  11.578   4.851  13.822
   16SBC   C00K11033  11.296   4.631  14.013
   16SBC   N00011034  11.477   4.716  14.300
   16SBC   C00L11035  11.195   4.593  14.094
   16SBC   H00411036  11.099   4.660  14.840
   16SBC   C02Q11037  11.005   4.565  14.529
   16SBC   C00E11038  10.990   4.547  14.258
   16SBC   C03011039  10.643   4.431  14.358
   16SBC   O00311040  10.521   4.392  14.301
   16SBC   C02S11041  10.832   4.530  14.063
   16SBC   C03811042  10.507   4.404  14.165
   16SBC   C03L11043  10.391   4.370  14.103
   16SBC   H00811044  10.308   4.328  14.157
   16SBC   C02V11045  10.693   4.523  13.863
   16SBC   C03K11046  10.370   4.376  13.964
   16SBC   C0BK11047  10.253   4.342  13.903
   16SBC   H00T11048  10.192   4.281  13.968
   16SBC   C03H11049  10.545   4.512  13.663
   16SBC   C0BL11050  10.215   4.360  13.767
   16SBC   C0GU11051  10.087   4.328  13.723
   16SBC   H01O11052  10.017   4.281  13.791
   16SBC   C0GT11053  10.031   4.370  13.597
   16SBC   H01P11054   9.934   4.345  13.556
   16SBC   C0GS11055  10.116   4.452  13.519
   16SBC   C0GV11056  10.084   4.524  13.399
   16SBC   C0GW11057   9.964   4.534  13.330
   16SBC   H01Q11058   9.870   4.495  13.367
   16SBC   C0GX11059   9.966   4.604  13.214
   16SBC   H01R11060   9.871   4.615  13.164
   16SBC   O00L11061  10.078   4.652  13.151
   16SBC   C0GQ11062  10.202   4.579  13.346
   16SBC   C03A11063  10.542   4.534  13.519
   16SBC   C05L11064  10.201   4.639  13.217
   16SBC   C04W11065  10.446   4.892  12.728
   16SBC   C05I11066  10.424   4.945  12.601
   16SBC   C05O11067  10.303   4.925  12.541
   16SBC   C05211068  10.527   5.016  12.533
   16SBC   C04V11069  10.578   4.904  12.776
   16SBC   C04U11070  10.682   4.980  12.711
   16SBC   N00911071  10.203   4.857  12.606
   16SBC   C0GP11072  10.286   4.968  12.411
   16SBC   C05W11073  10.384   5.037  12.347
   16SBC   C07D11074  10.434   5.198  12.021
   16SBC   C06J11075  10.656   5.292  12.158
   16SBC   C05P11076  10.500   5.066  12.409
   16SBC   C05R11077  10.797   5.276  12.347
   16SBC   C04Z11078  10.652   5.039  12.589
   16SBC   C04C11079  10.953   5.242  12.530
   16SBC   C04G11080  11.116   5.201  12.708
   16SBC   C04J11081  11.187   5.079  12.943
   16SBC   C04T11082  10.807   5.007  12.772
   16SBC   N00311083  10.613   4.860  12.907
   16SBC   C04P11084  10.548   4.730  13.106
   16SBC   C03D11085  10.633   4.616  13.330
   16SBC   C02111086  10.874   4.661  13.445
   16SBC   C03F11087  10.913   4.832  13.123
   16SBC   C02211088  11.099   4.736  13.431
   16SBC   C02A11089  11.124   4.936  13.121
   16SBC   C02311090  11.309   4.855  13.425
   16SBC   C02511091  11.491   5.027  13.306
   16SBC   C02D11092  11.574   5.123  13.254
   16SBC   C02E11093  11.690   5.164  13.319
   16SBC   C02N11094  11.771   5.272  13.274
   16SBC   C04N11095  11.218   5.017  13.063
   16SBC   C02P11096  11.544   5.185  13.141
   16SBC   C04I11097  11.267   5.175  12.892
   16SBC   C04411098  11.440   5.365  12.783
   16SBC   C04311099  11.624   5.287  13.088
   16SBC   C05N11100  11.734   5.336  13.155
   16SBC   C09U11101  11.959   5.665  13.005
   16SBC   C09V11102  12.016   5.785  12.955
   16SBC   C09X11103  12.126   5.842  13.016
   16SBC   C09Y11104  12.182   5.966  12.989
   16SBC   C0A111105  12.130   6.037  12.887
   16SBC   C0A211106  12.028   5.975  12.809
   16SBC   C0A411107  11.981   6.038  12.697
   16SBC   C07111108  11.877   5.984  12.623
   16SBC   C0A511109  11.828   6.048  12.514
   16SBC   C0A911110  11.875   6.177  12.489
   16SBC   C0A811111  11.980   6.229  12.556
   16SBC   C0AP11112  12.026   6.359  12.533
   16SBC   C0BY11113  12.128   6.412  12.611
   16SBC   C0BX11114  12.175   6.351  12.724
   16SBC   C0C211115  12.268   6.418  12.802
   16SBC   C0C311116  12.315   6.358  12.917
   16SBC   C0CT11117  12.265   6.230  12.949
   16SBC   C0C111118  12.309   6.548  12.770
   16SBC   C0C011119  12.238   6.625  12.669
   16SBC   C0A711120  12.130   6.223  12.745
   16SBC   C0BZ11121  12.159   6.543  12.592
   16SBC   C0BO11122  12.100   6.621  12.502
   16SBC   C0BN11123  12.005   6.566  12.417
   16SBC   C0BM11124  11.944   6.655  12.335
   16SBC   C0B911125  11.841   6.604  12.256
   16SBC   C0B811126  11.805   6.471  12.266
   16SBC   C0AD11127  11.867   6.386  12.363
   16SBC   C0AF11128  11.698   6.424  12.193
   16SBC   C0AG11129  11.628   6.503  12.105
   16SBC   C0B711130  11.667   6.630  12.091
   16SBC   C0AE11131  11.677   6.290  12.211
   16SBC   C0AB11132  11.723   6.209  12.312
   16SBC   C0AA11133  11.672   6.080  12.339
   16SBC   C0AJ11134  11.560   6.247  12.152
   16SBC   C0AK11135  11.511   6.120  12.172
   16SBC   C06W11136  11.385   6.121  12.120
   16SBC   C0AI11137  11.478   6.318  12.063
   16SBC   C0BP11138  12.136   6.753  12.499
   16SBC   C0BQ11139  12.080   6.846  12.403
   16SBC   C0BW11140  11.969   6.437  12.435
   16SBC   C0AC11141  11.821   6.256  12.385
   16SBC   C0A611142  12.034   6.160  12.662
   16SBC   C0A311143  12.180   6.165  12.859
   16SBC   C09Z11144  12.269   6.030  13.074
   16SBC   C09W11145  11.967   5.852  12.846
   16SBC   C07211146  11.866   5.794  12.776
   16SBC   C09H11147  12.183   5.767  13.115
   16SBC   C09G11148  12.288   5.824  13.192
   16SBC   C09P11149  12.288   5.753  13.305
   16SBC   C02O11150  12.059   5.460  13.400
   16SBC   C02M11151  11.881   5.315  13.351
   16SBC   C02F11152  11.721   5.107  13.442
   16SBC   C00W11153  11.656   4.944  13.615
   16SBC   C01R11154  11.677   4.910  13.903
   16SBC   C01N11155  11.915   5.130  13.731
   16SBC   C01L11156  12.036   5.303  13.846
   16SBC   C01H11157  12.078   5.359  14.197
   16SBC   C01K11158  11.849   5.084  14.084
   16SBC   C01E11159  11.832   5.048  14.361
   16SBC   C01G11160  12.060   5.346  14.342
   16SBC   C01D11161  11.815   5.029  14.501
   16SBC   C01A11162  11.798   5.001  14.779
   16SBC   H00111163  11.787   4.980  14.884
   16SBC   C01F11164  12.036   5.298  14.625
   16SBC   C03P11165  12.177   5.452  14.818
   16SBC   C03T11166  12.256   5.590  14.646
   16SBC   C08I11167  12.381   5.825  14.543
   16SBC   C08J11168  12.435   5.935  14.488
   16SBC   C08L11169  12.482   6.068  14.286
   16SBC   C09311170  12.519   6.207  14.079
   16SBC   C08Z11171  12.439   5.971  13.932
   16SBC   C09T11172  12.529   6.312  13.613
   16SBC   C09S11173  12.476   5.960  13.631
   16SBC   C09Q11174  12.357   5.814  13.416
   16SBC   C09F11175  12.319   5.965  13.180
   16SBC   C09E11176  12.482   6.211  13.396
   16SBC   C0A011177  12.303   6.167  13.063
   16SBC   C0CU11178  12.400   6.427  13.003
   16SBC   C0CR11179  12.463   6.541  12.956
   16SBC   C0CZ11180  12.568   6.598  13.034
   16SBC   C0DA11181  12.502   6.336  13.462
   16SBC   C0D911182  12.594   6.689  13.464
   16SBC   H00V11183  12.513   6.705  13.534
   16SBC   C0CY11184  12.582   6.549  13.172
   16SBC   C0DF11185  12.673   6.790  13.397
   16SBC   C0DE11186  12.683   6.935  13.388
   16SBC   C0GI11187  12.678   7.040  13.487
   16SBC   H01K11188  12.657   7.028  13.592
   16SBC   C0GJ11189  12.701   7.168  13.447
   16SBC   H01J11190  12.691   7.239  13.527
   16SBC   O00I11191  12.724   7.202  13.315
   16SBC   C0GH11192  12.730   7.100  13.219
   16SBC   C0GG11193  12.740   7.149  13.085
   16SBC   O00G11194  12.764   7.282  13.073
   16SBC   C0G811195  12.712   7.358  12.973
   16SBC   C0G911196  12.728   7.500  12.984
   16SBC   H01G11197  12.750   7.528  13.086
   16SBC   C0GA11198  12.708   7.582  12.873
   16SBC   H01H11199  12.730   7.687  12.884
   16SBC   C0GB11200  12.649   7.533  12.757
   16SBC   C0EP11201  12.605   7.394  12.757
   16SBC   C0E811202  12.512   7.349  12.651
   16SBC   C0CK11203  12.438   7.235  12.623
   16SBC   C0CL11204  12.508   7.113  12.635
   16SBC   C0E911205  12.602   7.083  12.740
   16SBC   C0GE11206  12.654   7.155  12.858
   16SBC   C0E711207  12.505   7.431  12.536
   16SBC   C0CJ11208  12.416   7.383  12.447
   16SBC   C0E611209  12.401   7.446  12.328
   16SBC   H00Y11210  12.343   7.404  12.247
   16SBC   C0EO11211  12.457   7.575  12.319
   16SBC   H01111212  12.436   7.624  12.225
   16SBC   C0G611213  12.534   7.631  12.425
   16SBC   C0G511214  12.588   7.764  12.420
   16SBC   H01F11215  12.564   7.827  12.335
   16SBC   C0GD11216  12.664   7.808  12.523
   16SBC   H01I11217  12.698   7.911  12.515
   16SBC   O00H11218  12.687   7.735  12.640
   16SBC   C0EQ11219  12.562   7.556  12.537
   16SBC   C0GC11220  12.632   7.611  12.644
   16SBC   C0G711221  12.653   7.298  12.858
   16SBC   C0DD11222  12.719   6.964  13.258
   16SBC   C0GF11223  12.702   7.078  12.970
   16SBC   C0CO11224  12.623   6.949  12.726
   16SBC   C0D011225  12.626   6.716  12.983
   16SBC   C0C411226  12.422   6.599  12.831
   16SBC   C0CN11227  12.549   6.895  12.617
   16SBC   C0CP11228  12.228   6.755  12.607
   16SBC   C0CM11229  12.482   6.999  12.548
   16SBC   C0CI11230  12.361   7.260  12.505
   16SBC   C0CD11231  11.984   7.276  12.221
   16SBC   C0BR11232  12.115   6.980  12.399
   16SBC   C0CS11233  11.979   6.787  12.327
   16SBC   C0B611234  11.772   6.679  12.163
   16SBC   C0CG11235  11.871   7.086  12.142
   16SBC   C0CF11236  11.900   7.224  12.132
   16SBC   C0E511237  11.926   7.499  12.140
   16SBC   C0DT11238  11.806   7.657  11.958
   16SBC   C0DL11239  11.676   7.332  11.858
   16SBC   C0DM11240  11.583   7.278  11.771
   16SBC   C0DY11241  11.542   7.491  11.669
   16SBC   C0DU11242  11.742   7.732  11.860
   16SBC   C0F011243  11.653   7.952  11.804
   16SBC   C0F411244  11.429   8.084  11.718
   16SBC   C0FG11245  11.452   7.799  11.490
   16SBC   O00B11246  11.239   8.070  11.577
   16SBC   C0FN11247  11.345   7.764  11.412
   16SBC   C0DZ11248  11.481   7.577  11.574
   16SBC   O00C11249  11.253   7.339  11.422
   16SBC   C0FR11250  11.216   7.209  11.422
   16SBC   O00D11251  11.144   7.173  11.334
   16SBC   C0E011252  11.519   7.357  11.675
   16SBC   C0E311253  11.278   7.122  11.524
   16SBC   C0AW11254  11.243   6.991  11.544
   16SBC   C0AV11255  11.132   6.923  11.475
   16SBC   H00Q11256  11.059   6.976  11.416
   16SBC   C0AU11257  11.098   6.789  11.501
   16SBC   H00R11258  11.004   6.758  11.458
   16SBC   C0AT11259  11.176   6.717  11.595
   16SBC   C0AS11260  11.210   6.575  11.626
   16SBC   C0AR11261  11.205   6.466  11.535
   16SBC   C0BE11262  11.276   6.787  11.668
   16SBC   C0DN11263  11.554   7.141  11.785
   16SBC   C0AX11264  11.311   6.920  11.643
   16SBC   C0BB11265  11.581   6.930  11.894
   16SBC   C0BD11266  11.341   6.702  11.756
   16SBC   C0B211267  11.604   6.711  12.001
   16SBC   C0AH11268  11.520   6.451  12.028
   16SBC   C0BF11269  11.302   6.570  11.741
   16SBC   C0AL11270  11.362   6.235  12.040
   16SBC   C07U11271  11.186   6.293  11.725
   16SBC   C0AQ11272  11.174   6.340  11.593
   16SBC   C0BG11273  11.177   6.453  11.391
   16SBC   C0FY11274  10.897   6.268  11.293
   16SBC   C0BJ11275  11.101   6.546  11.312
   16SBC   H00S11276  11.104   6.654  11.302
   16SBC   C0FZ11277  10.805   6.362  11.247
   16SBC   C07S11278  10.853   6.164  11.385
   16SBC   C0G111279  10.487   6.206  11.312
   16SBC   C07K11280  10.461   5.905  11.521
   16SBC   C07H11281  10.737   5.970  11.566
   16SBC   C06B11282  10.731   5.625  11.676
   16SBC   C06N11283  10.832   5.657  11.882
   16SBC   C06611284  10.955   5.994  11.703
   16SBC   C06211285  11.124   6.014  11.974
   16SBC   C05Y11286  11.000   5.658  12.079
   16SBC   C06111287  11.172   5.991  12.106
   16SBC   C05H11288  11.285   5.682  12.267
   16SBC   C06V11289  11.308   6.012  12.149
   16SBC   C06Y11290  11.561   6.033  12.272
   16SBC   C05C11291  11.489   5.712  12.446
   16SBC   C06Z11292  11.719   6.002  12.441
   16SBC   C07011293  11.817   5.863  12.661
   16SBC   C05B11294  11.543   5.642  12.556
   16SBC   C05711295  11.623   5.526  12.797
   16SBC   C05911296  11.805   5.672  12.818
   17SBC   C05811297   3.320   5.022   8.909
   17SBC   C05A11298   3.218   4.967   8.990
   17SBC   C06Q11299   3.116   5.042   9.043
   17SBC   C06R11300   3.016   4.983   9.131
   17SBC   C06S11301   3.006   4.845   9.147
   17SBC   C06T11302   2.899   4.802   9.226
   17SBC   C06U11303   2.865   4.662   9.271
   17SBC   C06X11304   2.924   4.533   9.242
   17SBC   C06011305   2.850   4.426   9.309
   17SBC   C05Z11306   2.884   4.300   9.372
   17SBC   C06811307   2.772   4.285   9.470
   17SBC   C06711308   2.712   4.167   9.537
   17SBC   C06911309   2.786   4.045   9.532
   17SBC   C06A11310   2.755   3.925   9.612
   17SBC   C07311311   2.666   3.894   9.717
   17SBC   C07P11312   2.726   3.822   9.822
   17SBC   C07O11313   2.860   3.811   9.849
   17SBC   H00D11314   2.921   3.882   9.795
   17SBC   C07N11315   2.919   3.721   9.936
   17SBC   H00E11316   3.026   3.702   9.938
   17SBC   C07M11317   2.827   3.638  10.007
   17SBC   H00F11318   2.872   3.569  10.076
   17SBC   C07L11319   2.687   3.662  10.002
   17SBC   C07Q11320   2.588   3.604  10.088
   17SBC   H00G11321   2.621   3.537  10.166
   17SBC   O00F11322   2.456   3.630  10.088
   17SBC   C07J11323   2.418   3.728  10.003
   17SBC   C07I11324   2.508   3.783   9.907
   17SBC   N00411325   2.458   3.884   9.825
   17SBC   C07R11326   2.317   3.925   9.833
   17SBC   C07T11327   2.236   3.866   9.926
   17SBC   C0FX11328   2.109   3.913   9.958
   17SBC   C0FW11329   2.041   3.889  10.076
   17SBC   C0G011330   2.094   3.784  10.148
   17SBC   C0G211331   2.021   3.731  10.255
   17SBC   H01E11332   2.057   3.643  10.306
   17SBC   C0G311333   1.897   3.785  10.288
   17SBC   H01C11334   1.840   3.741  10.369
   17SBC   C0G411335   1.854   3.901  10.220
   17SBC   H01D11336   1.764   3.949  10.256
   17SBC   O00E11337   2.207   3.718  10.110
   17SBC   C0FV11338   1.916   3.946  10.108
   17SBC   C0FU11339   1.879   4.057  10.029
   17SBC   H01B11340   1.795   4.122  10.042
   17SBC   C0FT11341   1.950   4.091   9.909
   17SBC   C0FS11342   1.960   4.201   9.826
   17SBC   C0BI11343   2.051   4.173   9.718
   17SBC   C0BH11344   2.108   4.298   9.676
   17SBC   C07F11345   2.247   4.311   9.672
   17SBC   C07E11346   2.351   4.224   9.642
   17SBC   C07G11347   2.362   4.099   9.674
   17SBC   C07411348   2.493   4.061   9.658
   17SBC   C06511349   2.483   4.273   9.618
   17SBC   C06411350   2.506   4.406   9.633
   17SBC   C06311351   2.620   4.476   9.596
   17SBC   C07511352   2.587   4.617   9.629
   17SBC   C0AM11353   2.464   4.624   9.700
   17SBC   C0AN11354   2.404   4.740   9.773
   17SBC   C0AO11355   2.436   4.885   9.764
   17SBC   C0B111356   2.388   4.978   9.861
   17SBC   C0B011357   2.319   4.933   9.966
   17SBC   C0AZ11358   2.272   5.011  10.070
   17SBC   C0AY11359   2.185   4.960  10.165
   17SBC   N00711360   2.150   5.035  10.280
   17SBC   C0E211361   2.062   4.980  10.371
   17SBC   C0E111362   2.030   5.070  10.476
   17SBC   C0E411363   1.933   5.026  10.563
   17SBC   C0FF11364   1.896   5.097  10.682
   17SBC   C0FJ11365   1.785   5.084  10.783
   17SBC   C0FK11366   1.650   5.053  10.741
   17SBC   H01611367   1.614   5.006  10.651
   17SBC   C0FL11368   1.563   5.124  10.833
   17SBC   H01711369   1.456   5.135  10.833
   17SBC   C0FM11370   1.647   5.196  10.931
   17SBC   C0FH11371   1.650   5.320  11.009
   17SBC   C0FI11372   1.784   5.360  10.985
   17SBC   C0F311373   1.818   5.493  10.985
   17SBC   C0F211374   1.935   5.521  10.918
   17SBC   C0DW11375   1.994   5.432  10.828
   17SBC   C0FE11376   1.957   5.299  10.822
   17SBC   C0DV11377   2.080   5.481  10.731
   17SBC   C0DX11378   2.110   5.399  10.623
   17SBC   C0DK11379   2.185   5.456  10.515
   17SBC   C0DJ11380   2.211   5.591  10.511
   17SBC   C0DI11381   2.262   5.648  10.393
   17SBC   C0DH11382   2.301   5.570  10.285
   17SBC   C0DG11383   2.277   5.431  10.291
   17SBC   C0BV11384   2.302   5.356  10.177
   17SBC   C0BC11385   2.270   5.221  10.180
   17SBC   C0BA11386   2.362   5.412  10.066
   17SBC   C0B411387   2.401   5.327   9.960
   17SBC   C0B311388   2.377   5.197   9.965
   17SBC   C0B511389   2.457   5.383   9.851
   17SBC   C0BU11390   2.476   5.522   9.841
   17SBC   C0BT11391   2.450   5.604   9.949
   17SBC   C0BS11392   2.460   5.748   9.941
   17SBC   C0CC11393   2.424   5.825  10.052
   17SBC   C0CB11394   2.444   5.965  10.046
   17SBC   C0CH11395   2.444   6.035  10.172
   17SBC   C0DO11396   2.388   5.981  10.285
   17SBC   C0DP11397   2.349   6.062  10.392
   17SBC   C0EA11398   2.382   6.203  10.396
   17SBC   H01211399   2.431   6.253  10.314
   17SBC   O00911400   2.345   6.282  10.501
   17SBC   C0EH11401   2.263   6.227  10.593
   17SBC   C0EG11402   2.212   6.316  10.683
   17SBC   C0EJ11403   2.229   6.454  10.717
   17SBC   H01011404   2.302   6.512  10.663
   17SBC   C0EK11405   2.135   6.497  10.823
   17SBC   H00Z11406   2.121   6.598  10.859
   17SBC   C0EL11407   2.071   6.378  10.852
   17SBC   C0EM11408   1.953   6.347  10.934
   17SBC   C0EW11409   1.889   6.434  11.024
   17SBC   H01311410   1.928   6.534  11.036
   17SBC   C0EX11411   1.776   6.389  11.109
   17SBC   H01411412   1.733   6.459  11.179
   17SBC   C0F111413   1.729   6.253  11.101
   17SBC   C0EU11414   1.795   6.173  11.005
   17SBC   C0ET11415   1.774   6.034  10.984
   17SBC   C0ES11416   1.871   5.996  10.886
   17SBC   C0EE11417   1.949   6.109  10.854
   17SBC   C0ED11418   2.058   6.139  10.771
   17SBC   C0EC11419   2.129   6.042  10.691
   17SBC   C0EB11420   2.114   5.898  10.693
   17SBC   C0EN11421   2.042   5.833  10.802
   17SBC   C0ER11422   2.053   5.698  10.822
   17SBC   C0DS11423   2.180   5.811  10.602
   17SBC   C0DR11424   2.242   5.869  10.492
   17SBC   C0EY11425   1.938   5.871  10.892
   17SBC   C0EZ11426   1.877   5.760  10.946
   17SBC   C0F511427   1.753   5.733  11.016
   17SBC   C0F611428   1.661   5.832  11.069
   17SBC   N00811429   1.554   5.776  11.139
   17SBC   C0F711430   1.512   5.641  11.127
   17SBC   C0FQ11431   1.388   5.605  11.189
   17SBC   H01811432   1.353   5.504  11.173
   17SBC   C0FP11433   1.300   5.686  11.268
   17SBC   H01911434   1.212   5.639  11.311
   17SBC   C0FO11435   1.344   5.817  11.279
   17SBC   H01A11436   1.267   5.882  11.319
   17SBC   C0F811437   1.600   5.548  11.058
   17SBC   C0F911438   1.462   5.862  11.207
   17SBC   C0FA11439   1.486   6.002  11.217
   17SBC   H01511440   1.426   6.069  11.277
   17SBC   C0FB11441   1.603   6.061  11.155
   17SBC   C0FD11442   1.675   5.973  11.076
   17SBC   C0FC11443   1.620   6.199  11.173
   17SBC   O00A11444   1.548   6.273  11.237
   17SBC   C0EV11445   1.901   6.220  10.927
   17SBC   C0EF11446   2.111   6.275  10.766
   17SBC   C0EI11447   2.220   6.091  10.592
   17SBC   C0DQ11448   2.275   6.005  10.494
   17SBC   C0CE11449   2.346   5.846  10.278
   17SBC   H00U11450   2.496   6.129  10.169
   17SBC   C0CA11451   2.451   6.027   9.918
   17SBC   C0C911452   2.488   5.950   9.803
   17SBC   C0C811453   2.528   6.021   9.680
   17SBC   C0C711454   2.612   5.991   9.568
   17SBC   C0C611455   2.637   6.094   9.477
   17SBC   C0C511456   2.748   6.140   9.396
   17SBC   C0CQ11457   2.758   6.278   9.365
   17SBC   C0D111458   2.688   6.366   9.448
   17SBC   C0D811459   2.773   6.466   9.494
   17SBC   C0D711460   2.881   6.474   9.397
   17SBC   C0D611461   2.997   6.554   9.402
   17SBC   C0D511462   3.117   6.535   9.329
   17SBC   C0D411463   3.160   6.436   9.232
   17SBC   C0D311464   3.299   6.426   9.231
   17SBC   C0CX11465   3.335   6.298   9.177
   17SBC   C0CW11466   3.214   6.220   9.179
   17SBC   C0CV11467   3.169   6.088   9.131
   17SBC   C0D211468   3.242   6.014   9.038
   17SBC   C09D11469   3.348   6.061   8.956
   17SBC   C09C11470   3.396   5.982   8.846
   17SBC   C09B11471   3.506   6.020   8.766
   17SBC   C09A11472   3.557   6.151   8.784
   17SBC   C09911473   3.494   6.242   8.866
   17SBC   C09811474   3.582   6.341   8.909
   17SBC   C08Y11475   3.712   6.298   8.856
   17SBC   C08X11476   3.843   6.356   8.885
   17SBC   C08W11477   3.858   6.466   8.974
   17SBC   C08U11478   3.754   6.522   9.064
   17SBC   C08V11479   3.622   6.491   9.093
   17SBC   C0DC11480   3.569   6.601   9.160
   17SBC   H00W11481   3.463   6.612   9.177
   17SBC   C0DB11482   3.668   6.697   9.183
   17SBC   H00X11483   3.660   6.787   9.243
   17SBC   C08T11484   3.784   6.646   9.121
   17SBC   C08S11485   3.904   6.712   9.111
   17SBC   H00N11486   3.913   6.801   9.172
   17SBC   C08R11487   4.011   6.655   9.048
   17SBC   C08Q11488   4.143   6.709   9.050
   17SBC   H00O11489   4.155   6.804   9.101
   17SBC   C08P11490   4.257   6.654   8.991
   17SBC   C08O11491   4.391   6.710   8.997
   17SBC   H00P11492   4.406   6.807   9.042
   17SBC   C08N11493   4.502   6.638   8.947
   17SBC   C08M11494   4.636   6.686   8.965
   17SBC   O00811495   4.664   6.783   9.033
   17SBC   O00711496   4.734   6.616   8.907
   17SBC   C08H11497   4.712   6.504   8.839
   17SBC   C08G11498   4.820   6.420   8.786
   17SBC   C03V11499   4.959   6.441   8.804
   17SBC   H00911500   4.986   6.528   8.861
   17SBC   C03U11501   5.056   6.359   8.746
   17SBC   C03W11502   5.198   6.374   8.766
   17SBC   H00A11503   5.243   6.450   8.827
   17SBC   C03X11504   5.283   6.283   8.710
   17SBC   H00B11505   5.385   6.305   8.737
   17SBC   O00511506   5.243   6.172   8.636
   17SBC   C03O11507   5.107   6.171   8.607
   17SBC   C03N11508   5.066   6.074   8.511
   17SBC   O00011509   5.166   6.004   8.445
   17SBC   C01911510   5.127   5.891   8.386
   17SBC   C01811511   5.001   5.836   8.401
   17SBC   C01711512   4.894   5.917   8.442
   17SBC   C01611513   4.768   5.867   8.458
   17SBC   C01511514   4.753   5.736   8.407
   17SBC   C01411515   4.623   5.680   8.404
   17SBC   C01311516   4.508   5.751   8.448
   17SBC   C01211517   4.396   5.658   8.433
   17SBC   C01111518   4.456   5.541   8.399
   17SBC   C01011519   4.387   5.432   8.370
   17SBC   C00Z11520   4.440   5.301   8.376
   17SBC   C00Y11521   4.319   5.231   8.403
   17SBC   C01O11522   4.203   5.301   8.401
   17SBC   C01P11523   4.088   5.259   8.472
   17SBC   C02L11524   4.002   5.353   8.517
   17SBC   C02K11525   4.049   5.484   8.508
   17SBC   C01M11526   4.177   5.535   8.456
   17SBC   C02J11527   3.946   5.571   8.545
   17SBC   C02I11528   3.952   5.708   8.548
   17SBC   C02H11529   4.059   5.796   8.538
   17SBC   C01Q11530   4.193   5.781   8.511
   17SBC   C02G11531   4.263   5.901   8.531
   17SBC   C08911532   4.166   5.999   8.550
   17SBC   C08811533   4.226   6.114   8.607
   17SBC   C08711534   4.370   6.089   8.592
   17SBC   C08611535   4.467   6.181   8.637
   17SBC   C03S11536   4.608   6.165   8.621
   17SBC   N00611537   4.659   6.283   8.689
   17SBC   C08F11538   4.561   6.357   8.736
   17SBC   C01J11539   4.696   6.074   8.564
   17SBC   C03R11540   4.832   6.114   8.575
   17SBC   C03Q11541   4.877   6.224   8.648
   17SBC   C08E11542   4.436   6.303   8.713
   17SBC   C08D11543   4.321   6.364   8.771
   17SBC   C08K11544   4.340   6.478   8.852
   17SBC   C08C11545   4.189   6.321   8.757
   17SBC   C09111546   4.087   6.382   8.826
   17SBC   C09211547   4.103   6.488   8.912
   17SBC   C08B11548   4.138   6.217   8.678
   17SBC   C09011549   3.992   6.215   8.709
   17SBC   C09411550   3.900   6.107   8.681
   17SBC   C09511551   3.762   6.105   8.697
   17SBC   C09R11552   3.715   5.979   8.662
   17SBC   C09711553   3.821   5.900   8.620
   17SBC   C09611554   3.933   5.981   8.619
   17SBC   C01I11555   4.401   5.955   8.539
   17SBC   C08A11556   4.046   5.934   8.568
   17SBC   C09L11557   3.832   5.763   8.596
   17SBC   C09K11558   3.744   5.656   8.611
   17SBC   C09J11559   3.610   5.669   8.653
   17SBC   C09I11560   3.536   5.562   8.716
   17SBC   C09O11561   3.556   5.415   8.743
   17SBC   C09N11562   3.665   5.340   8.692
   17SBC   C09M11563   3.782   5.394   8.622
   17SBC   C06O11564   3.655   5.199   8.706
   17SBC   C05M11565   3.543   5.141   8.773
   17SBC   C06P11566   3.440   5.218   8.823
   17SBC   C04211567   3.538   5.001   8.798
   17SBC   C04111568   3.647   4.920   8.768
   17SBC   C04011569   3.638   4.783   8.794
   17SBC   C03Z11570   3.750   4.706   8.767
   17SBC   C03Y11571   3.860   4.759   8.694
   17SBC   C02711572   3.971   4.676   8.669
   17SBC   C02611573   4.080   4.732   8.611
   17SBC   C02811574   4.203   4.663   8.609
   17SBC   C02911575   4.210   4.531   8.653
   17SBC   C02B11576   4.326   4.456   8.651
   17SBC   C02C11577   4.325   4.326   8.691
   17SBC   C02X11578   4.442   4.251   8.678
   17SBC   C03E11579   4.443   4.122   8.718
   17SBC   C03G11580   4.339   4.061   8.781
   17SBC   C04Q11581   4.223   4.132   8.796
   17SBC   C04R11582   4.120   4.088   8.872
   17SBC   C04S11583   4.003   4.161   8.882
   17SBC   C04L11584   3.994   4.288   8.823
   17SBC   C04M11585   4.102   4.343   8.763
   17SBC   C04K11586   3.880   4.367   8.841
   17SBC   C04F11587   3.771   4.312   8.915
   17SBC   C04E11588   3.779   4.184   8.966
   17SBC   C04D11589   3.669   4.129   9.032
   17SBC   C05011590   3.677   3.999   9.075
   17SBC   C05111591   3.566   3.950   9.148
   17SBC   C05Q11592   3.572   3.812   9.193
   17SBC   C05V11593   3.455   3.762   9.253
   17SBC   N00511594   3.461   3.626   9.289
   17SBC   C07V11595   3.581   3.552   9.276
   17SBC   C08211596   3.591   3.426   9.328
   17SBC   C08111597   3.482   3.359   9.386
   17SBC   C07C11598   3.363   3.430   9.388
   17SBC   C07B11599   3.248   3.362   9.437
   17SBC   C08011600   3.257   3.231   9.475
   17SBC   C07Z11601   3.140   3.177   9.535
   17SBC   H00L11602   3.144   3.074   9.568
   17SBC   C07911603   3.018   3.244   9.556
   17SBC   C07811604   3.016   3.383   9.524
   17SBC   C07711605   2.897   3.458   9.546
   17SBC   C07X11606   2.787   3.390   9.596
   17SBC   H00I11607   2.694   3.440   9.616
   17SBC   C07Y11608   2.786   3.261   9.643
   17SBC   H00H11609   2.706   3.213   9.697
   17SBC   C07611610   2.897   3.595   9.506
   17SBC   C06C11611   2.790   3.676   9.554
   17SBC   H00C11612   2.705   3.639   9.608
   17SBC   C06F11613   3.008   3.651   9.448
   17SBC   C06E11614   3.011   3.784   9.412
   17SBC   C06G11615   3.119   3.856   9.360
   17SBC   C06H11616   3.233   3.773   9.337
   17SBC   C06I11617   3.237   3.638   9.368
   17SBC   C06L11618   3.113   3.994   9.330
   17SBC   C06M11619   3.002   4.079   9.374
   17SBC   C06K11620   3.222   4.050   9.261
   17SBC   C05S11621   3.335   3.969   9.243
   17SBC   C05U11622   3.214   4.182   9.213
   17SBC   C05X11623   3.102   4.267   9.238
   17SBC   C05G11624   3.115   4.402   9.179
   17SBC   C05F11625   3.228   4.430   9.104
   17SBC   C05E11626   3.228   4.566   9.072
   17SBC   C04811627   3.330   4.620   8.994
   17SBC   C05611628   3.321   4.754   8.973
   17SBC   C04511629   3.425   4.807   8.898
   17SBC   C04711630   3.434   4.540   8.960
   17SBC   C04911631   3.440   4.408   9.012
   17SBC   C04B11632   3.553   4.332   8.997
   17SBC   C04611633   3.537   4.594   8.891
   17SBC   C04H11634   3.648   4.519   8.873
   17SBC   C05D11635   3.106   4.630   9.106
   17SBC   C04A11636   3.338   4.352   9.087
   17SBC   C05T11637   3.332   4.226   9.140
   17SBC   C05511638   3.447   4.154   9.126
   17SBC   C06D11639   2.912   3.865   9.462
   17SBC   C07W11640   3.126   3.577   9.424
   17SBC   C08511641   2.900   3.185   9.613
   17SBC   H00M11642   2.912   3.081   9.641
   17SBC   C08411643   3.375   3.160   9.483
   17SBC   H00J11644   3.380   3.062   9.528
   17SBC   C07A11645   3.129   3.439   9.457
   17SBC   C08311646   3.488   3.230   9.439
   17SBC   H00K11647   3.578   3.171   9.437
   17SBC   O00K11648   3.701   3.345   9.311
   17SBC   C0GO11649   3.814   3.402   9.264
   17SBC   C0GN11650   3.933   3.333   9.275
   17SBC   H01L11651   3.925   3.234   9.316
   17SBC   C0GM11652   4.049   3.401   9.239
   17SBC   C0GL11653   4.165   3.338   9.257
   17SBC   H01M11654   4.157   3.236   9.291
   17SBC   O00J11655   4.288   3.394   9.242
   17SBC   C0GK11656   4.282   3.519   9.175
   17SBC   H01N11657   4.375   3.566   9.147
   17SBC   C05K11658   4.166   3.582   9.140
   17SBC   C05J11659   4.162   3.705   9.066
   17SBC   C04Y11660   4.264   3.763   8.984
   17SBC   C04X11661   4.256   3.887   8.917
   17SBC   O00611662   4.383   3.694   8.963
   17SBC   C05311663   4.498   3.748   8.908
   17SBC   C04O11664   4.483   3.867   8.829
   17SBC   C03C11665   4.593   3.929   8.755
   17SBC   C03B11666   4.739   3.909   8.732
   17SBC   C05411667   4.812   3.832   8.821
   17SBC   C0GR11668   4.954   3.823   8.804
   17SBC   C03M11669   5.066   3.898   8.742
   17SBC   C03I11670   5.051   4.029   8.686
   17SBC   C03J11671   5.171   4.094   8.633
   17SBC   N00211672   5.164   4.231   8.588
   17SBC   C02U11673   5.276   4.306   8.551
   17SBC   C02T11674   5.268   4.439   8.518
   17SBC   C02Z11675   5.380   4.502   8.466
   17SBC   N00111676   5.370   4.638   8.415
   17SBC   C02R11677   5.485   4.702   8.367
   17SBC   C03211678   5.610   4.642   8.374
   17SBC   C03111679   5.625   4.515   8.434
   17SBC   H00711680   5.725   4.478   8.451
   17SBC   C03311681   5.718   4.721   8.317
   17SBC   H00311682   5.820   4.686   8.313
   17SBC   O00411683   5.704   4.848   8.267
   17SBC   C03411684   5.580   4.895   8.250
   17SBC   C03511685   5.564   5.010   8.172
   17SBC   C03611686   5.443   5.065   8.159
   17SBC   H00511687   5.433   5.144   8.086
   17SBC   C03711688   5.334   5.007   8.225
   17SBC   H00611689   5.238   5.051   8.205
   17SBC   C00D11690   5.351   4.895   8.308
   17SBC   C00C11691   5.245   4.842   8.379
   17SBC   C00B11692   5.123   4.923   8.398
   17SBC   C00A11693   5.041   5.055   8.371
   17SBC   C00911694   4.906   5.018   8.389
   17SBC   C00811695   4.793   5.101   8.402
   17SBC   C00711696   4.806   5.233   8.373
   17SBC   C00611697   4.688   5.316   8.377
   17SBC   C00511698   4.707   5.453   8.367
   17SBC   C00411699   4.836   5.509   8.359
   17SBC   C00311700   4.953   5.425   8.345
   17SBC   C00211701   5.080   5.484   8.332
   17SBC   C01C11702   5.092   5.623   8.328
   17SBC   C01B11703   5.217   5.684   8.308
   17SBC   H00011704   5.301   5.637   8.259
   17SBC   C00111705   5.189   5.400   8.336
   17SBC   C00011706   5.177   5.257   8.351
   17SBC   C01U11707   5.294   5.217   8.412
   17SBC   H00211708   5.320   5.128   8.467
   17SBC   C01T11709   5.387   5.333   8.398
   17SBC   O00211710   5.507   5.332   8.429
   17SBC   O00111711   5.318   5.442   8.354
   17SBC   C01S11712   4.937   5.286   8.356
   17SBC   C00N11713   4.675   5.038   8.423
   17SBC   C00M11714   4.673   4.904   8.460
   17SBC   C00J11715   4.787   4.831   8.466
   17SBC   C00I11716   4.796   4.701   8.503
   17SBC   C00H11717   4.913   4.634   8.504
   17SBC   C00G11718   5.031   4.697   8.479
   17SBC   C00F11719   5.150   4.640   8.481
   17SBC   C01X11720   4.912   4.505   8.548
   17SBC   C01W11721   4.796   4.438   8.588
   17SBC   C01V11722   4.681   4.507   8.580
   17SBC   C02011723   4.557   4.450   8.611
   17SBC   C01Z11724   4.805   4.304   8.619
   17SBC   C02Y11725   4.680   4.249   8.645
   17SBC   C03911726   4.682   4.112   8.668
   17SBC   C02W11727   4.925   4.234   8.634
   17SBC   C01Y11728   5.035   4.434   8.551
   17SBC   C00U11729   4.677   4.640   8.536
   17SBC   C00S11730   4.562   4.709   8.534
   17SBC   C00T11731   4.442   4.646   8.563
   17SBC   C00R11732   4.558   4.840   8.500
   17SBC   C00Q11733   4.442   4.908   8.494
   17SBC   C00V11734   4.323   4.850   8.530
   17SBC   C02411735   4.198   4.921   8.530
   17SBC   C00X11736   4.195   5.051   8.489
   17SBC   C00P11737   4.441   5.039   8.451
   17SBC   C00O11738   4.561   5.109   8.423
   17SBC   C00K11739   4.901   4.893   8.434
   17SBC   N00011740   5.050   5.196   8.356
   17SBC   C00L11741   5.029   4.833   8.443
   17SBC   H00411742   5.649   5.039   8.111
   17SBC   C02Q11743   5.470   4.830   8.314
   17SBC   C00E11744   5.254   4.711   8.425
   17SBC   C03011745   5.511   4.440   8.472
   17SBC   O00311746   5.516   4.305   8.506
   17SBC   C02S11747   5.155   4.505   8.520
   17SBC   C03811748   5.401   4.239   8.547
   17SBC   C03L11749   5.409   4.110   8.590
   17SBC   H00811750   5.506   4.061   8.593
   17SBC   C02V11751   5.039   4.300   8.592
   17SBC   C03K11752   5.298   4.034   8.636
   17SBC   C0BK11753   5.302   3.909   8.688
   17SBC   H00T11754   5.397   3.856   8.686
   17SBC   C03H11755   4.931   4.101   8.672
   17SBC   C0BL11756   5.194   3.836   8.741
   17SBC   C0GU11757   5.219   3.711   8.798
   17SBC   H01O11758   5.318   3.669   8.794
   17SBC   C0GT11759   5.120   3.649   8.872
   17SBC   H01P11760   5.138   3.557   8.926
   17SBC   C0GS11761   4.987   3.700   8.867
   17SBC   C0GV11762   4.865   3.647   8.924
   17SBC   C0GW11763   4.851   3.532   9.002
   17SBC   H01Q11764   4.934   3.471   9.037
   17SBC   C0GX11765   4.725   3.497   9.035
   17SBC   H01R11766   4.704   3.412   9.098
   17SBC   O00L11767   4.614   3.559   8.998
   17SBC   C0GQ11768   4.754   3.724   8.887
   17SBC   C03A11769   4.798   4.036   8.683
   17SBC   C05L11770   4.625   3.677   8.923
   17SBC   C04W11771   4.038   3.777   9.061
   17SBC   C05I11772   3.924   3.726   9.115
   17SBC   C05O11773   3.922   3.592   9.162
   17SBC   C05211774   3.803   3.801   9.125
   17SBC   C04V11775   4.025   3.907   9.009
   17SBC   C04U11776   3.911   3.982   9.006
   17SBC   N00911777   4.044   3.525   9.177
   17SBC   C0GP11778   3.808   3.536   9.217
   17SBC   C05W11779   3.692   3.615   9.228
   17SBC   C07D11780   3.353   3.563   9.349
   17SBC   C06J11781   3.344   3.836   9.281
   17SBC   C05P11782   3.690   3.742   9.185
   17SBC   C05R11783   3.446   4.025   9.168
   17SBC   C04Z11784   3.797   3.929   9.069
   17SBC   C04C11785   3.557   4.203   9.051
   17SBC   C04G11786   3.657   4.388   8.926
   17SBC   C04J11787   3.869   4.494   8.791
   17SBC   C04T11788   3.894   4.105   8.952
   17SBC   N00311789   4.133   3.961   8.937
   17SBC   C04P11790   4.358   3.937   8.840
   17SBC   C03D11791   4.565   4.049   8.699
   17SBC   C02111792   4.559   4.317   8.640
   17SBC   C03F11793   4.216   4.264   8.747
   17SBC   C02211794   4.444   4.519   8.604
   17SBC   C02A11795   4.094   4.473   8.707
   17SBC   C02311796   4.323   4.722   8.572
   17SBC   C02511797   4.078   4.863   8.575
   17SBC   C02D11798   3.969   4.945   8.593
   17SBC   C02E11799   3.976   5.080   8.563
   17SBC   C02N11800   3.872   5.168   8.598
   17SBC   C04N11801   3.979   4.550   8.722
   17SBC   C02P11802   3.856   4.891   8.655
   17SBC   C04I11803   3.756   4.574   8.811
   17SBC   C04411804   3.530   4.725   8.857
   17SBC   C04311805   3.753   4.977   8.694
   17SBC   C05N11806   3.757   5.117   8.664
   17SBC   C09U11807   3.448   5.354   8.806
   17SBC   C09V11808   3.344   5.430   8.867
   17SBC   C09X11809   3.340   5.568   8.864
   17SBC   C09Y11810   3.256   5.653   8.932
   17SBC   C0A111811   3.167   5.597   9.016
   17SBC   C0A211812   3.149   5.459   9.010
   17SBC   C0A411813   3.051   5.407   9.097
   17SBC   C07111814   3.033   5.270   9.097
   17SBC   C0A511815   2.939   5.218   9.181
   17SBC   C0A911816   2.862   5.303   9.262
   17SBC   C0A811817   2.879   5.438   9.257
   17SBC   C0AP11818   2.807   5.517   9.344
   17SBC   C0BY11819   2.826   5.651   9.336
   17SBC   C0BX11820   2.919   5.709   9.257
   17SBC   C0C211821   2.935   5.846   9.266
   17SBC   C0C311822   3.028   5.904   9.185
   17SBC   C0CT11823   3.109   5.819   9.108
   17SBC   C0C111824   2.859   5.927   9.353
   17SBC   C0C011825   2.784   5.857   9.454
   17SBC   C0A711826   2.994   5.627   9.173
   17SBC   C0BZ11827   2.771   5.726   9.429
   17SBC   C0BO11828   2.684   5.673   9.523
   17SBC   C0BN11829   2.661   5.536   9.533
   17SBC   C0BM11830   2.589   5.488   9.634
   17SBC   C0B911831   2.574   5.353   9.641
   17SBC   C0B811832   2.629   5.273   9.540
   17SBC   C0AD11833   2.702   5.326   9.441
   17SBC   C0AF11834   2.603   5.138   9.543
   17SBC   C0AG11835   2.532   5.081   9.652
   17SBC   C0B711836   2.480   5.166   9.750
   17SBC   C0AE11837   2.665   5.066   9.448
   17SBC   C0AB11838   2.748   5.114   9.356
   17SBC   C0AA11839   2.825   5.027   9.274
   17SBC   C0AJ11840   2.650   4.933   9.457
   17SBC   C0AK11841   2.722   4.842   9.387
   17SBC   C06W11842   2.692   4.720   9.426
   17SBC   C0AI11843   2.579   4.866   9.563
   17SBC   C0BP11844   2.640   5.767   9.618
   17SBC   C0BQ11845   2.554   5.720   9.723
   17SBC   C0BW11846   2.723   5.462   9.438
   17SBC   C0AC11847   2.769   5.251   9.351
   17SBC   C0A611848   2.975   5.494   9.175
   17SBC   C0A311849   3.093   5.680   9.099
   17SBC   C09Z11850   3.272   5.794   8.933
   17SBC   C09W11851   3.238   5.373   8.941
   17SBC   C07211852   3.224   5.238   8.945
   17SBC   C09H11853   3.427   5.622   8.772
   17SBC   C09G11854   3.435   5.761   8.766
   17SBC   C09P11855   3.549   5.791   8.703
   17SBC   C02O11856   3.812   5.535   8.593
   17SBC   C02M11857   3.881   5.310   8.578
   17SBC   C02F11858   4.085   5.131   8.509
   17SBC   C00W11859   4.319   5.103   8.449
   17SBC   C01R11860   4.569   5.246   8.393
   17SBC   C01N11861   4.250   5.432   8.403
   17SBC   C01L11862   4.254   5.662   8.467
   17SBC   C01H11863   4.523   5.889   8.504
   17SBC   C01K11864   4.595   5.545   8.385
   17SBC   C01E11865   4.852   5.646   8.365
   17SBC   C01G11866   4.660   5.947   8.505
   17SBC   C01D11867   4.981   5.702   8.364
   17SBC   C01A11868   5.235   5.818   8.335
   17SBC   H00111869   5.333   5.861   8.328
   17SBC   C01F11870   4.923   6.037   8.504
   17SBC   C03P11871   5.013   6.254   8.669
   17SBC   C03T11872   4.789   6.308   8.716
   17SBC   C08I11873   4.578   6.466   8.814
   17SBC   C08J11874   4.475   6.531   8.872
   17SBC   C08L11875   4.233   6.536   8.920
   17SBC   C09311876   3.988   6.535   8.975
   17SBC   C08Z11877   3.961   6.318   8.808
   17SBC   C09T11878   3.542   6.384   9.035
   17SBC   C09S11879   3.685   6.190   8.770
   17SBC   C09Q11880   3.591   5.926   8.706
   17SBC   C09F11881   3.361   5.852   8.848
   17SBC   C09E11882   3.416   6.190   8.970
   17SBC   C0A011883   3.208   5.878   9.024
   17SBC   C0CU11884   3.051   6.044   9.192
   17SBC   C0CR11885   2.960   6.124   9.270
   17SBC   C0CZ11886   2.985   6.261   9.281
   17SBC   C0DA11887   3.435   6.283   9.076
   17SBC   C0D911888   3.340   6.488   9.360
   17SBC   H00V11889   3.433   6.465   9.409
   17SBC   C0CY11890   3.116   6.304   9.236
   17SBC   C0DF11891   3.228   6.573   9.411
   17SBC   C0DE11892   3.175   6.633   9.532
   17SBC   C0GI11893   3.240   6.698   9.640
   17SBC   H01K11894   3.346   6.690   9.661
   17SBC   C0GJ11895   3.162   6.778   9.718
   17SBC   H01J11896   3.209   6.832   9.799
   17SBC   O00I11897   3.019   6.781   9.707
   17SBC   C0GH11898   2.957   6.678   9.634
   17SBC   C0GG11899   2.826   6.649   9.666
   17SBC   O00G11900   2.780   6.732   9.763
   17SBC   C0G811901   2.661   6.693   9.820
   17SBC   C0G911902   2.597   6.794   9.893
   17SBC   H01G11903   2.639   6.892   9.904
   17SBC   C0GA11904   2.485   6.761   9.965
   17SBC   H01H11905   2.445   6.835  10.033
   17SBC   C0GB11906   2.422   6.635   9.963
   17SBC   C0EP11907   2.481   6.534   9.883
   17SBC   C0E811908   2.438   6.396   9.899
   17SBC   C0CK11909   2.486   6.274   9.858
   17SBC   C0CL11910   2.509   6.269   9.721
   17SBC   C0E911911   2.570   6.371   9.646
   17SBC   C0GE11912   2.641   6.490   9.691
   17SBC   C0E711913   2.329   6.367   9.976
   17SBC   C0CJ11914   2.308   6.232   9.995
   17SBC   C0E611915   2.197   6.194  10.065
   17SBC   H00Y11916   2.166   6.091  10.071
   17SBC   C0EO11917   2.117   6.296  10.122
   17SBC   H01111918   2.031   6.274  10.184
   17SBC   C0G611919   2.149   6.433  10.118
   17SBC   C0G511920   2.080   6.535  10.193
   17SBC   H01F11921   1.988   6.516  10.246
   17SBC   C0GD11922   2.128   6.658  10.190
   17SBC   H01I11923   2.086   6.721  10.267
   17SBC   O00H11924   2.236   6.699  10.113
   17SBC   C0EQ11925   2.266   6.471  10.045
   17SBC   C0GC11926   2.304   6.606  10.039
   17SBC   C0G711927   2.594   6.566   9.801
   17SBC   C0DD11928   3.033   6.620   9.531
   17SBC   C0GF11929   2.749   6.543   9.611
   17SBC   C0CO11930   2.586   6.320   9.521
   17SBC   C0D011931   2.883   6.340   9.344
   17SBC   C0C411932   2.854   6.064   9.339
   17SBC   C0CN11933   2.533   6.185   9.508
   17SBC   C0CP11934   2.700   5.887   9.570
   17SBC   C0CM11935   2.484   6.152   9.637
   17SBC   C0CI11936   2.413   6.166   9.923
   17SBC   C0CD11937   2.380   5.766  10.167
   17SBC   C0BR11938   2.496   5.807   9.817
   17SBC   C0CS11939   2.543   5.579   9.732
   17SBC   C0B611940   2.501   5.302   9.744
   17SBC   C0CG11941   2.396   5.545  10.060
   17SBC   C0CF11942   2.366   5.630  10.173
   17SBC   C0E511943   2.279   5.788  10.386
   17SBC   C0DT11944   2.174   5.673  10.613
   17SBC   C0DL11945   2.217   5.374  10.405
   17SBC   C0DM11946   2.171   5.245  10.399
   17SBC   C0DY11947   2.056   5.270  10.611
   17SBC   C0DU11948   2.113   5.613  10.722
   17SBC   C0F011949   1.956   5.657  10.905
   17SBC   C0F411950   1.730   5.589  11.029
   17SBC   C0FG11951   1.862   5.266  10.919
   17SBC   O00B11952   1.552   5.418  11.032
   17SBC   C0FN11953   1.783   5.154  10.905
   17SBC   C0DZ11954   1.967   5.218  10.706
   17SBC   O00C11955   1.868   4.905  10.540
   17SBC   C0FR11956   1.888   4.819  10.437
   17SBC   O00D11957   1.809   4.721  10.429
   17SBC   C0E011958   2.091   5.193  10.501
   17SBC   C0E311959   2.001   4.853  10.354
   17SBC   C0AW11960   2.049   4.772  10.252
   17SBC   C0AV11961   2.015   4.635  10.226
   17SBC   H00Q11962   1.950   4.588  10.299
   17SBC   C0AU11963   2.051   4.563  10.107
   17SBC   H00R11964   2.026   4.458  10.100
   17SBC   C0AT11965   2.143   4.626  10.022
   17SBC   C0AS11966   2.207   4.597   9.893
   17SBC   C0AR11967   2.175   4.496   9.789
   17SBC   C0BE11968   2.184   4.753  10.055
   17SBC   C0DN11969   2.200   5.167  10.288
   17SBC   C0AX11970   2.134   4.833  10.163
   17SBC   C0BB11971   2.307   5.143  10.072
   17SBC   C0BD11972   2.270   4.803   9.958
   17SBC   C0B211973   2.416   5.115   9.859
   17SBC   C0AH11974   2.509   4.943   9.662
   17SBC   C0BF11975   2.304   4.709   9.863
   17SBC   C0AL11976   2.614   4.726   9.544
   17SBC   C07U11977   2.412   4.487   9.692
   17SBC   C0AQ11978   2.281   4.440   9.716
   17SBC   C0BG11979   2.062   4.402   9.764
   17SBC   C0FY11980   2.126   4.053   9.757
   17SBC   C0BJ11981   1.969   4.340   9.858
   17SBC   H00S11982   1.932   4.387   9.948
   17SBC   C0FZ11983   2.052   4.006   9.871
   17SBC   C07S11984   2.265   4.022   9.748
   17SBC   C0G111985   2.287   3.771  10.009
   17SBC   C07K11986   2.642   3.755   9.907
   17SBC   C07H11987   2.542   3.949   9.730
   17SBC   C06B11988   2.815   3.815   9.547
   17SBC   C06N11989   2.907   4.007   9.457
   17SBC   C06611990   2.575   4.167   9.600
   17SBC   C06211991   2.708   4.417   9.487
   17SBC   C05Y11992   2.999   4.217   9.333
   17SBC   C06111993   2.741   4.483   9.373
   17SBC   C05H11994   3.035   4.518   9.172
   17SBC   C06V11995   2.761   4.622   9.361
   17SBC   C06Y11996   2.817   4.893   9.288
   17SBC   C05C11997   3.103   4.776   9.083
   17SBC   C06Z11998   2.923   5.079   9.188
   17SBC   C07011999   3.122   5.185   9.029
   17SBC   C05B12000   3.213   4.831   9.016
   17SBC   C05712001   3.427   4.944   8.865
   17SBC   C05912002   3.326   5.162   8.888
   18SBC   C05812003   7.344   1.149   5.042
   18SBC   C05A12004   7.437   1.042   5.039
   18SBC   C06Q12005   7.425   0.944   4.946
   18SBC   C06R12006   7.509   0.835   4.945
   18SBC   C06S12007   7.613   0.818   5.042
   18SBC   C06T12008   7.706   0.707   5.021
   18SBC   C06U12009   7.815   0.658   5.107
   18SBC   C06X12010   7.859   0.696   5.240
   18SBC   C06012011   7.986   0.630   5.273
   18SBC   C05Z12012   8.027   0.572   5.401
   18SBC   C06812013   8.089   0.435   5.360
   18SBC   C06712014   8.153   0.329   5.451
   18SBC   C06912015   8.186   0.372   5.591
   18SBC   C06A12016   8.246   0.289   5.692
   18SBC   C07312017   8.266   0.153   5.711
   18SBC   C07P12018   8.275   0.104   5.842
   18SBC   C07O12019   8.200   0.154   5.949
   18SBC   H00D12020   8.113   0.213   5.922
   18SBC   C07N12021   8.232   0.132   6.081
   18SBC   H00E12022   8.161   0.168   6.153
   18SBC   C07M12023   8.339   0.057   6.111
   18SBC   H00F12024   8.356   0.036   6.216
   18SBC   C07L12025   8.416  -0.004   6.009
   18SBC   C07Q12026   8.530  -0.093   6.027
   18SBC   H00G12027   8.548  -0.138   6.123
   18SBC   O00F12028   8.612  -0.135   5.925
   18SBC   C07J12029   8.572  -0.097   5.795
   18SBC   C07I12030   8.443  -0.044   5.769
   18SBC   N00412031   8.402  -0.021   5.635
   18SBC   C07R12032   8.467  -0.101   5.537
   18SBC   C07T12033   8.599  -0.147   5.568
   18SBC   C0FX12034   8.686  -0.184   5.469
   18SBC   C0FW12035   8.820  -0.198   5.479
   18SBC   C0G012036   8.873  -0.190   5.616
   18SBC   C0G212037   9.010  -0.202   5.642
   18SBC   H01E12038   9.046  -0.205   5.744
   18SBC   C0G312039   9.090  -0.214   5.533
   18SBC   H01C12040   9.195  -0.233   5.542
   18SBC   C0G412041   9.035  -0.216   5.399
   18SBC   H01D12042   9.104  -0.221   5.316
   18SBC   O00E12043   8.789  -0.157   5.721
   18SBC   C0FV12044   8.901  -0.213   5.371
   18SBC   C0FU12045   8.844  -0.202   5.241
   18SBC   H01B12046   8.903  -0.203   5.151
   18SBC   C0FT12047   8.706  -0.198   5.222
   18SBC   C0FS12048   8.613  -0.180   5.115
   18SBC   C0BI12049   8.485  -0.193   5.179
   18SBC   C0BH12050   8.379  -0.150   5.094
   18SBC   C07F12051   8.315  -0.025   5.122
   18SBC   C07E12052   8.277   0.027   5.248
   18SBC   C07G12053   8.319  -0.009   5.374
   18SBC   C07412054   8.275   0.087   5.465
   18SBC   C06512055   8.216   0.152   5.261
   18SBC   C06412056   8.170   0.201   5.140
   18SBC   C06312057   8.088   0.313   5.119
   18SBC   C07512058   8.045   0.303   4.976
   18SBC   C0AM12059   8.101   0.183   4.910
   18SBC   C0AN12060   8.066   0.114   4.788
   18SBC   C0AO12061   7.941   0.115   4.705
   18SBC   C0B112062   7.913   0.021   4.607
   18SBC   C0B012063   8.001  -0.083   4.571
   18SBC   C0AZ12064   7.984  -0.179   4.479
   18SBC   C0AY12065   8.090  -0.265   4.449
   18SBC   N00712066   8.064  -0.375   4.367
   18SBC   C0E212067   8.162  -0.478   4.355
   18SBC   C0E112068   8.130  -0.577   4.269
   18SBC   C0E412069   8.229  -0.678   4.253
   18SBC   C0FF12070   8.206  -0.789   4.167
   18SBC   C0FJ12071   8.280  -0.911   4.149
   18SBC   C0FK12072   8.370  -0.973   4.243
   18SBC   H01612073   8.415  -0.929   4.331
   18SBC   C0FL12074   8.364  -1.119   4.214
   18SBC   H01712075   8.397  -1.200   4.277
   18SBC   C0FM12076   8.284  -1.146   4.095
   18SBC   C0FH12077   8.170  -1.237   4.043
   18SBC   C0FI12078   8.090  -1.143   3.974
   18SBC   C0F312079   7.951  -1.171   3.963
   18SBC   C0F212080   7.873  -1.058   3.947
   18SBC   C0DW12081   7.906  -0.932   3.992
   18SBC   C0FE12082   8.038  -0.901   4.017
   18SBC   C0DV12083   7.816  -0.829   4.005
   18SBC   C0DX12084   7.850  -0.713   4.071
   18SBC   C0DK12085   7.753  -0.622   4.098
   18SBC   C0DJ12086   7.618  -0.647   4.061
   18SBC   C0DI12087   7.521  -0.551   4.083
   18SBC   C0DH12088   7.556  -0.433   4.140
   18SBC   C0DG12089   7.684  -0.418   4.193
   18SBC   C0BV12090   7.713  -0.301   4.265
   18SBC   C0BC12091   7.835  -0.289   4.323
   18SBC   C0BA12092   7.618  -0.207   4.286
   18SBC   C0B412093   7.649  -0.095   4.368
   18SBC   C0B312094   7.769  -0.088   4.435
   18SBC   C0B512095   7.552   0.001   4.382
   18SBC   C0BU12096   7.433  -0.002   4.309
   18SBC   C0BT12097   7.403  -0.110   4.233
   18SBC   C0BS12098   7.279  -0.114   4.166
   18SBC   C0CC12099   7.240  -0.244   4.119
   18SBC   C0CB12100   7.110  -0.264   4.074
   18SBC   C0CH12101   7.076  -0.403   4.069
   18SBC   C0DO12102   7.166  -0.510   4.049
   18SBC   C0DP12103   7.127  -0.637   4.018
   18SBC   C0EA12104   6.989  -0.666   3.993
   18SBC   H01212105   6.915  -0.588   3.986
   18SBC   O00912106   6.942  -0.794   3.967
   18SBC   C0EH12107   7.037  -0.891   3.963
   18SBC   C0EG12108   6.998  -1.023   3.937
   18SBC   C0EJ12109   6.864  -1.083   3.914
   18SBC   H01012110   6.772  -1.028   3.907
   18SBC   C0EK12111   6.881  -1.227   3.906
   18SBC   H00Z12112   6.805  -1.301   3.889
   18SBC   C0EL12113   7.020  -1.249   3.919
   18SBC   C0EM12114   7.095  -1.371   3.926
   18SBC   C0EW12115   7.053  -1.507   3.921
   18SBC   H01312116   6.951  -1.541   3.915
   18SBC   C0EX12117   7.149  -1.616   3.943
   18SBC   H01412118   7.122  -1.720   3.944
   18SBC   C0F112119   7.291  -1.588   3.961
   18SBC   C0EU12120   7.327  -1.454   3.964
   18SBC   C0ET12121   7.456  -1.405   3.978
   18SBC   C0ES12122   7.438  -1.267   3.981
   18SBC   C0EE12123   7.307  -1.231   3.960
   18SBC   C0ED12124   7.225  -1.113   3.960
   18SBC   C0EC12125   7.271  -0.977   3.973
   18SBC   C0EB12126   7.409  -0.937   3.980
   18SBC   C0EN12127   7.517  -1.035   3.964
   18SBC   C0ER12128   7.646  -0.984   3.954
   18SBC   C0DS12129   7.450  -0.804   4.005
   18SBC   C0DR12130   7.355  -0.704   4.028
   18SBC   C0EY12131   7.542  -1.174   3.957
   18SBC   C0EZ12132   7.680  -1.214   3.959
   18SBC   C0F512133   7.765  -1.326   3.987
   18SBC   C0F612134   7.710  -1.455   3.996
   18SBC   N00812135   7.810  -1.555   4.018
   18SBC   C0F712136   7.947  -1.527   4.046
   18SBC   C0FQ12137   8.038  -1.634   4.085
   18SBC   H01812138   8.134  -1.613   4.128
   18SBC   C0FP12139   7.986  -1.764   4.090
   18SBC   H01912140   8.039  -1.848   4.131
   18SBC   C0FO12141   7.854  -1.792   4.056
   18SBC   H01A12142   7.814  -1.890   4.079
   18SBC   C0F812143   7.987  -1.393   4.032
   18SBC   C0F912144   7.764  -1.688   4.017
   18SBC   C0FA12145   7.633  -1.731   3.990
   18SBC   H01512146   7.608  -1.836   3.986
   18SBC   C0FB12147   7.533  -1.628   3.985
   18SBC   C0FD12148   7.570  -1.494   3.983
   18SBC   C0FC12149   7.396  -1.682   3.968
   18SBC   O00A12150   7.374  -1.801   3.962
   18SBC   C0EV12151   7.234  -1.351   3.944
   18SBC   C0EF12152   7.088  -1.126   3.941
   18SBC   C0EI12153   7.178  -0.869   3.978
   18SBC   C0DQ12154   7.222  -0.735   4.004
   18SBC   C0CE12155   7.300  -0.479   4.071
   18SBC   H00U12156   6.970  -0.424   4.075
   18SBC   C0CA12157   7.022  -0.154   4.039
   18SBC   C0C912158   7.061  -0.020   4.083
   18SBC   C0C812159   6.969   0.091   4.037
   18SBC   C0C712160   6.962   0.228   4.084
   18SBC   C0C612161   6.853   0.305   4.031
   18SBC   C0C512162   6.758   0.415   4.065
   18SBC   C0CQ12163   6.635   0.422   3.996
   18SBC   C0D112164   6.586   0.306   3.946
   18SBC   C0D812165   6.454   0.281   3.988
   18SBC   C0D712166   6.405   0.402   4.027
   18SBC   C0D612167   6.278   0.430   4.085
   18SBC   C0D512168   6.240   0.558   4.132
   18SBC   C0D412169   6.312   0.681   4.147
   18SBC   C0D312170   6.256   0.745   4.260
   18SBC   C0CX12171   6.343   0.846   4.313
   18SBC   C0CW12172   6.475   0.799   4.268
   18SBC   C0CV12173   6.610   0.835   4.286
   18SBC   C0D212174   6.645   0.954   4.355
   18SBC   C09D12175   6.555   1.069   4.364
   18SBC   C09C12176   6.606   1.193   4.417
   18SBC   C09B12177   6.530   1.308   4.442
   18SBC   C09A12178   6.396   1.304   4.403
   18SBC   C09912179   6.352   1.205   4.324
   18SBC   C09812180   6.212   1.211   4.328
   18SBC   C08Y12181   6.173   1.311   4.426
   18SBC   C08X12182   6.047   1.334   4.492
   18SBC   C08W12183   5.934   1.245   4.478
   18SBC   C08U12184   5.933   1.111   4.418
   18SBC   C08V12185   6.041   1.026   4.367
   18SBC   C0DC12186   5.975   0.915   4.304
   18SBC   H00W12187   6.025   0.853   4.231
   18SBC   C0DB12188   5.836   0.920   4.326
   18SBC   H00X12189   5.763   0.848   4.293
   18SBC   C08T12190   5.812   1.048   4.387
   18SBC   C08S12191   5.687   1.103   4.410
   18SBC   H00N12192   5.596   1.048   4.390
   18SBC   C08R12193   5.682   1.225   4.474
   18SBC   C08Q12194   5.561   1.288   4.511
   18SBC   H00O12195   5.473   1.243   4.469
   18SBC   C08P12196   5.541   1.401   4.587
   18SBC   C08O12197   5.411   1.448   4.636
   18SBC   H00P12198   5.321   1.389   4.622
   18SBC   C08N12199   5.411   1.566   4.717
   18SBC   C08M12200   5.286   1.618   4.774
   18SBC   O00812201   5.171   1.577   4.744
   18SBC   O00712202   5.293   1.718   4.866
   18SBC   C08H12203   5.403   1.785   4.896
   18SBC   C08G12204   5.403   1.900   4.985
   18SBC   C03V12205   5.293   1.962   5.054
   18SBC   H00912206   5.193   1.937   5.022
   18SBC   C03U12207   5.313   2.075   5.141
   18SBC   C03W12208   5.206   2.142   5.209
   18SBC   H00A12209   5.101   2.126   5.190
   18SBC   C03X12210   5.233   2.227   5.314
   18SBC   H00B12211   5.154   2.281   5.364
   18SBC   O00512212   5.357   2.270   5.343
   18SBC   C03O12213   5.462   2.217   5.269
   18SBC   C03N12214   5.593   2.242   5.309
   18SBC   O00012215   5.598   2.334   5.413
   18SBC   C01912216   5.714   2.340   5.484
   18SBC   C01812217   5.836   2.277   5.434
   18SBC   C01712218   5.831   2.203   5.311
   18SBC   C01612219   5.943   2.136   5.262
   18SBC   C01512220   6.062   2.155   5.337
   18SBC   C01412221   6.178   2.090   5.288
   18SBC   C01312222   6.183   2.014   5.173
   18SBC   C01212223   6.330   1.991   5.160
   18SBC   C01112224   6.389   2.061   5.268
   18SBC   C01012225   6.523   2.060   5.278
   18SBC   C00Z12226   6.604   2.110   5.380
   18SBC   C00Y12227   6.731   2.055   5.353
   18SBC   C01O12228   6.733   1.975   5.241
   18SBC   C01P12229   6.819   1.871   5.223
   18SBC   C02L12230   6.787   1.786   5.127
   18SBC   C02K12231   6.658   1.804   5.058
   18SBC   C01M12232   6.555   1.899   5.097
   18SBC   C02J12233   6.655   1.730   4.936
   18SBC   C02I12234   6.547   1.730   4.847
   18SBC   C02H12235   6.418   1.779   4.865
   18SBC   C01Q12236   6.353   1.849   4.964
   18SBC   C02G12237   6.212   1.850   4.943
   18SBC   C08912238   6.191   1.789   4.821
   18SBC   C08812239   6.062   1.758   4.794
   18SBC   C08712240   5.992   1.829   4.902
   18SBC   C08612241   5.848   1.848   4.906
   18SBC   C03S12242   5.775   1.926   4.996
   18SBC   N00612243   5.643   1.905   4.964
   18SBC   C08F12244   5.637   1.802   4.879
   18SBC   C01J12245   5.806   2.019   5.094
   18SBC   C03R12246   5.691   2.079   5.151
   18SBC   C03Q12247   5.558   2.053   5.105
   18SBC   C08E12248   5.756   1.757   4.842
   18SBC   C08D12249   5.772   1.647   4.748
   18SBC   C08K12250   5.656   1.579   4.708
   18SBC   C08C12251   5.890   1.602   4.687
   18SBC   C09112252   5.897   1.491   4.605
   18SBC   C09212253   5.780   1.416   4.575
   18SBC   C08B12254   6.026   1.650   4.698
   18SBC   C09012255   6.110   1.556   4.613
   18SBC   C09412256   6.249   1.580   4.587
   18SBC   C09512257   6.329   1.483   4.532
   18SBC   C09R12258   6.461   1.494   4.565
   18SBC   C09712259   6.469   1.597   4.660
   18SBC   C09612260   6.342   1.647   4.676
   18SBC   C01I12261   6.087   1.896   4.989
   18SBC   C08A12262   6.316   1.740   4.775
   18SBC   C09L12263   6.575   1.639   4.745
   18SBC   C09K12264   6.710   1.596   4.763
   18SBC   C09J12265   6.763   1.482   4.698
   18SBC   C09I12266   6.882   1.410   4.741
   18SBC   C09O12267   6.980   1.407   4.850
   18SBC   C09N12268   6.970   1.498   4.957
   18SBC   C09M12269   6.876   1.607   4.980
   18SBC   C06O12270   7.070   1.480   5.056
   18SBC   C05M12271   7.166   1.372   5.050
   18SBC   C06P12272   7.161   1.279   4.948
   18SBC   C04212273   7.264   1.352   5.151
   18SBC   C04112274   7.275   1.441   5.256
   18SBC   C04012275   7.362   1.416   5.359
   18SBC   C03Z12276   7.360   1.491   5.481
   18SBC   C03Y12277   7.272   1.595   5.491
   18SBC   C02712278   7.278   1.681   5.604
   18SBC   C02612279   7.194   1.793   5.609
   18SBC   C02812280   7.198   1.871   5.721
   18SBC   C02912281   7.278   1.835   5.831
   18SBC   C02B12282   7.271   1.908   5.949
   18SBC   C02C12283   7.350   1.868   6.051
   18SBC   C02X12284   7.330   1.924   6.173
   18SBC   C03E12285   7.407   1.888   6.282
   18SBC   C03G12286   7.498   1.791   6.278
   18SBC   C04Q12287   7.511   1.722   6.158
   18SBC   C04R12288   7.589   1.609   6.157
   18SBC   C04S12289   7.592   1.535   6.041
   18SBC   C04L12290   7.517   1.573   5.925
   18SBC   C04M12291   7.441   1.686   5.929
   18SBC   C04K12292   7.519   1.498   5.810
   18SBC   C04F12293   7.597   1.388   5.806
   18SBC   C04E12294   7.673   1.352   5.915
   18SBC   C04D12295   7.758   1.241   5.913
   18SBC   C05012296   7.833   1.199   6.024
   18SBC   C05112297   7.909   1.085   6.018
   18SBC   C05Q12298   7.977   1.045   6.127
   18SBC   C05V12299   8.063   0.939   6.115
   18SBC   N00512300   8.147   0.905   6.226
   18SBC   C07V12301   8.128   0.967   6.348
   18SBC   C08212302   8.209   0.933   6.452
   18SBC   C08112303   8.312   0.844   6.450
   18SBC   C07C12304   8.330   0.782   6.325
   18SBC   C07B12305   8.422   0.676   6.321
   18SBC   C08012306   8.500   0.640   6.430
   18SBC   C07Z12307   8.590   0.534   6.414
   18SBC   H00L12308   8.665   0.518   6.490
   18SBC   C07912309   8.604   0.453   6.301
   18SBC   C07812310   8.527   0.489   6.191
   18SBC   C07712311   8.526   0.415   6.074
   18SBC   C07X12312   8.621   0.311   6.060
   18SBC   H00I12313   8.634   0.258   5.967
   18SBC   C07Y12314   8.706   0.276   6.170
   18SBC   H00H12315   8.779   0.198   6.152
   18SBC   C07612316   8.435   0.445   5.974
   18SBC   C06C12317   8.411   0.347   5.874
   18SBC   H00C12318   8.460   0.251   5.867
   18SBC   C06F12319   8.345   0.551   5.983
   18SBC   C06E12320   8.254   0.579   5.882
   18SBC   C06G12321   8.172   0.684   5.880
   18SBC   C06H12322   8.161   0.758   5.996
   18SBC   C06I12323   8.248   0.734   6.102
   18SBC   C06L12324   8.091   0.702   5.766
   18SBC   C06M12325   8.084   0.614   5.648
   18SBC   C06K12326   8.006   0.813   5.772
   18SBC   C05S12327   8.003   0.895   5.887
   18SBC   C05U12328   7.935   0.854   5.660
   18SBC   C05X12329   7.930   0.774   5.540
   18SBC   C05G12330   7.841   0.835   5.440
   18SBC   C05F12331   7.779   0.954   5.456
   18SBC   C05E12332   7.697   0.985   5.351
   18SBC   C04812333   7.617   1.097   5.352
   18SBC   C05612334   7.532   1.119   5.242
   18SBC   C04512335   7.455   1.234   5.239
   18SBC   C04712336   7.619   1.172   5.461
   18SBC   C04912337   7.694   1.132   5.573
   18SBC   C04B12338   7.688   1.203   5.689
   18SBC   C04612339   7.533   1.281   5.456
   18SBC   C04H12340   7.528   1.353   5.578
   18SBC   C05D12341   7.701   0.887   5.254
   18SBC   C04A12342   7.776   1.020   5.574
   18SBC   C05T12343   7.857   0.971   5.675
   18SBC   C05512344   7.848   1.054   5.792
   18SBC   C06D12345   8.247   0.493   5.773
   18SBC   C07W12346   8.347   0.631   6.094
   18SBC   C08512347   8.681   0.338   6.292
   18SBC   H00M12348   8.734   0.316   6.384
   18SBC   C08412349   8.490   0.714   6.551
   18SBC   H00J12350   8.551   0.697   6.639
   18SBC   C07A12351   8.433   0.600   6.203
   18SBC   C08312352   8.394   0.814   6.557
   18SBC   H00K12353   8.392   0.860   6.655
   18SBC   O00K12354   8.189   0.990   6.576
   18SBC   C0GO12355   8.101   1.100   6.588
   18SBC   C0GN12356   8.091   1.169   6.710
   18SBC   H01L12357   8.152   1.126   6.787
   18SBC   C0GM12358   8.034   1.297   6.719
   18SBC   C0GL12359   8.073   1.387   6.809
   18SBC   H01M12360   8.126   1.356   6.898
   18SBC   O00J12361   8.038   1.519   6.802
   18SBC   C0GK12362   7.947   1.556   6.702
   18SBC   H01N12363   7.940   1.663   6.692
   18SBC   C05K12364   7.910   1.466   6.607
   18SBC   C05J12365   7.830   1.509   6.493
   18SBC   C04Y12366   7.745   1.621   6.494
   18SBC   C04X12367   7.654   1.649   6.388
   18SBC   O00612368   7.745   1.714   6.603
   18SBC   C05312369   7.654   1.817   6.612
   18SBC   C04O12370   7.554   1.834   6.515
   18SBC   C03C12371   7.444   1.925   6.517
   18SBC   C03B12372   7.384   2.011   6.610
   18SBC   C05412373   7.442   2.058   6.725
   18SBC   C0GR12374   7.381   2.159   6.811
   18SBC   C03M12375   7.251   2.233   6.818
   18SBC   C03I12376   7.156   2.241   6.709
   18SBC   C03J12377   7.029   2.300   6.732
   18SBC   N00212378   6.930   2.310   6.631
   18SBC   C02U12379   6.798   2.366   6.648
   18SBC   C02T12380   6.703   2.373   6.544
   18SBC   C02Z12381   6.581   2.427   6.573
   18SBC   N00112382   6.476   2.441   6.472
   18SBC   C02R12383   6.355   2.510   6.503
   18SBC   C03212384   6.324   2.550   6.631
   18SBC   C03112385   6.421   2.528   6.729
   18SBC   H00712386   6.403   2.544   6.834
   18SBC   C03312387   6.195   2.610   6.645
   18SBC   H00312388   6.165   2.635   6.745
   18SBC   O00412389   6.106   2.644   6.544
   18SBC   C03412390   6.149   2.605   6.422
   18SBC   C03512391   6.068   2.660   6.321
   18SBC   C03612392   6.101   2.632   6.184
   18SBC   H00512393   6.051   2.668   6.095
   18SBC   C03712394   6.208   2.547   6.162
   18SBC   H00612395   6.230   2.546   6.056
   18SBC   C00D12396   6.289   2.494   6.266
   18SBC   C00C12397   6.406   2.426   6.234
   18SBC   C00B12398   6.450   2.381   6.097
   18SBC   C00A12399   6.416   2.375   5.953
   18SBC   C00912400   6.530   2.334   5.882
   18SBC   C00812401   6.540   2.264   5.760
   18SBC   C00712402   6.429   2.253   5.681
   18SBC   C00612403   6.438   2.199   5.554
   18SBC   C00512404   6.314   2.180   5.483
   18SBC   C00412405   6.190   2.231   5.533
   18SBC   C00312406   6.186   2.279   5.664
   18SBC   C00212407   6.066   2.328   5.713
   18SBC   C01C12408   5.956   2.348   5.630
   18SBC   C01B12409   5.842   2.420   5.672
   18SBC   H00012410   5.840   2.469   5.768
   18SBC   C00112411   6.060   2.341   5.851
   18SBC   C00012412   6.173   2.320   5.931
   18SBC   C01U12413   6.121   2.301   6.060
   18SBC   H00212414   6.169   2.275   6.153
   18SBC   C01T12415   5.977   2.339   6.059
   18SBC   O00212416   5.903   2.364   6.147
   18SBC   O00112417   5.946   2.354   5.925
   18SBC   C01S12418   6.309   2.293   5.738
   18SBC   C00N12419   6.666   2.216   5.725
   18SBC   C00M12420   6.768   2.206   5.819
   18SBC   C00J12421   6.753   2.266   5.940
   18SBC   C00I12422   6.841   2.244   6.039
   18SBC   C00H12423   6.807   2.284   6.167
   18SBC   C00G12424   6.679   2.329   6.201
   18SBC   C00F12425   6.634   2.351   6.321
   18SBC   C01X12426   6.894   2.257   6.269
   18SBC   C01W12427   7.011   2.189   6.245
   18SBC   C01V12428   7.043   2.142   6.116
   18SBC   C02012429   7.148   2.050   6.090
   18SBC   C01Z12430   7.101   2.159   6.344
   18SBC   C02Y12431   7.201   2.071   6.313
   18SBC   C03912432   7.278   2.031   6.421
   18SBC   C02W12433   7.080   2.205   6.479
   18SBC   C01Y12434   6.864   2.292   6.395
   18SBC   C00U12435   6.957   2.169   6.011
   18SBC   C00S12436   6.976   2.115   5.885
   18SBC   C00T12437   7.084   2.031   5.862
   18SBC   C00R12438   6.883   2.131   5.788
   18SBC   C00Q12439   6.896   2.067   5.670
   18SBC   C00V12440   7.009   1.986   5.640
   18SBC   C02412441   7.027   1.924   5.516
   18SBC   C00X12442   6.926   1.941   5.422
   18SBC   C00P12443   6.806   2.093   5.571
   18SBC   C00O12444   6.685   2.168   5.596
   18SBC   C00K12445   6.630   2.319   5.967
   18SBC   N00012446   6.299   2.326   5.880
   18SBC   C00L12447   6.588   2.341   6.099
   18SBC   H00412448   5.983   2.722   6.344
   18SBC   C02Q12449   6.264   2.530   6.397
   18SBC   C00E12450   6.502   2.398   6.338
   18SBC   C03012451   6.547   2.472   6.703
   18SBC   O00312452   6.637   2.456   6.806
   18SBC   C02S12453   6.733   2.337   6.418
   18SBC   C03812454   6.772   2.413   6.774
   18SBC   C03L12455   6.870   2.411   6.876
   18SBC   H00812456   6.835   2.430   6.977
   18SBC   C02V12457   6.954   2.265   6.500
   18SBC   C03K12458   6.995   2.355   6.856
   18SBC   C0BK12459   7.099   2.355   6.946
   18SBC   H00T12460   7.082   2.411   7.036
   18SBC   C03H12461   7.170   2.182   6.584
   18SBC   C0BL12462   7.228   2.305   6.932
   18SBC   C0GU12463   7.319   2.299   7.033
   18SBC   H01O12464   7.295   2.337   7.131
   18SBC   C0GT12465   7.446   2.239   7.033
   18SBC   H01P12466   7.507   2.224   7.121
   18SBC   C0GS12467   7.474   2.162   6.920
   18SBC   C0GV12468   7.582   2.072   6.899
   18SBC   C0GW12469   7.706   2.055   6.969
   18SBC   H01Q12470   7.732   2.111   7.057
   18SBC   C0GX12471   7.790   1.959   6.924
   18SBC   H01R12472   7.886   1.949   6.972
   18SBC   O00L12473   7.762   1.877   6.811
   18SBC   C0GQ12474   7.565   2.007   6.776
   18SBC   C03A12475   7.275   2.083   6.551
   18SBC   C05L12476   7.653   1.905   6.729
   18SBC   C04W12477   7.822   1.429   6.378
   18SBC   C05I12478   7.897   1.312   6.367
   18SBC   C05O12479   7.958   1.266   6.486
   18SBC   C05212480   7.898   1.238   6.254
   18SBC   C04V12481   7.743   1.461   6.267
   18SBC   C04U12482   7.745   1.387   6.148
   18SBC   N00912483   7.966   1.342   6.602
   18SBC   C0GP12484   8.029   1.146   6.478
   18SBC   C05W12485   8.035   1.071   6.359
   18SBC   C07D12486   8.244   0.808   6.221
   18SBC   C06J12487   8.071   0.861   5.998
   18SBC   C05P12488   7.970   1.120   6.246
   18SBC   C05R12489   7.921   1.012   5.898
   18SBC   C04Z12490   7.822   1.270   6.143
   18SBC   C04C12491   7.769   1.166   5.797
   18SBC   C04G12492   7.604   1.310   5.692
   18SBC   C04J12493   7.436   1.534   5.706
   18SBC   C04T12494   7.673   1.426   6.031
   18SBC   N00312495   7.660   1.573   6.273
   18SBC   C04P12496   7.572   1.760   6.396
   18SBC   C03D12497   7.381   1.949   6.401
   18SBC   C02112498   7.235   2.016   6.193
   18SBC   C03F12499   7.441   1.766   6.046
   18SBC   C02212500   7.171   1.997   5.967
   18SBC   C02A12501   7.363   1.727   5.823
   18SBC   C02312502   7.098   1.963   5.742
   18SBC   C02512503   7.110   1.819   5.500
   18SBC   C02D12504   7.105   1.731   5.389
   18SBC   C02E12505   7.008   1.757   5.293
   18SBC   C02N12506   6.992   1.672   5.180
   18SBC   C04N12507   7.358   1.647   5.711
   18SBC   C02P12508   7.187   1.622   5.381
   18SBC   C04I12509   7.440   1.458   5.587
   18SBC   C04412510   7.451   1.313   5.351
   18SBC   C04312511   7.177   1.539   5.267
   18SBC   C05N12512   7.084   1.568   5.161
   18SBC   C09U12513   7.067   1.296   4.847
   18SBC   C09V12514   7.055   1.188   4.753
   18SBC   C09X12515   6.952   1.177   4.662
   18SBC   C09Y12516   6.921   1.071   4.575
   18SBC   C0A112517   7.008   0.967   4.575
   18SBC   C0A212518   7.123   0.972   4.654
   18SBC   C0A412519   7.206   0.864   4.651
   18SBC   C07112520   7.312   0.862   4.741
   18SBC   C0A512521   7.393   0.752   4.742
   18SBC   C0A912522   7.372   0.649   4.646
   18SBC   C0A812523   7.263   0.655   4.561
   18SBC   C0AP12524   7.242   0.548   4.479
   18SBC   C0BY12525   7.124   0.549   4.405
   18SBC   C0BX12526   7.034   0.644   4.405
   18SBC   C0C212527   6.916   0.634   4.329
   18SBC   C0C312528   6.826   0.742   4.332
   18SBC   C0CT12529   6.860   0.853   4.411
   18SBC   C0C112530   6.892   0.522   4.245
   18SBC   C0C012531   6.989   0.408   4.254
   18SBC   C0A712532   7.063   0.755   4.488
   18SBC   C0BZ12533   7.096   0.436   4.333
   18SBC   C0BO12534   7.184   0.328   4.330
   18SBC   C0BN12535   7.306   0.328   4.403
   18SBC   C0BM12536   7.381   0.213   4.395
   18SBC   C0B912537   7.493   0.213   4.479
   18SBC   C0B812538   7.521   0.319   4.559
   18SBC   C0AD12539   7.436   0.432   4.566
   18SBC   C0AF12540   7.636   0.326   4.632
   18SBC   C0AG12541   7.721   0.215   4.637
   18SBC   C0B712542   7.696   0.108   4.548
   18SBC   C0AE12543   7.652   0.438   4.711
   18SBC   C0AB12544   7.560   0.538   4.730
   18SBC   C0AA12545   7.583   0.636   4.824
   18SBC   C0AJ12546   7.764   0.433   4.792
   18SBC   C0AK12547   7.776   0.522   4.893
   18SBC   C06W12548   7.888   0.488   4.961
   18SBC   C0AI12549   7.865   0.338   4.797
   18SBC   C0BP12550   7.141   0.223   4.251
   18SBC   C0BQ12551   7.226   0.107   4.235
   18SBC   C0BW12552   7.326   0.437   4.479
   18SBC   C0AC12553   7.458   0.541   4.646
   18SBC   C0A612554   7.175   0.755   4.568
   18SBC   C0A312555   6.972   0.857   4.494
   18SBC   C09Z12556   6.814   1.074   4.486
   18SBC   C09W12557   7.138   1.074   4.749
   18SBC   C07212558   7.235   1.071   4.844
   18SBC   C09H12559   6.875   1.289   4.658
   18SBC   C09G12560   6.768   1.286   4.572
   18SBC   C09P12561   6.690   1.399   4.598
   18SBC   C02O12562   6.757   1.642   4.894
   18SBC   C02M12563   6.883   1.687   5.095
   18SBC   C02F12564   6.924   1.857   5.309
   18SBC   C00W12565   6.831   2.037   5.448
   18SBC   C01R12566   6.575   2.160   5.510
   18SBC   C01N12567   6.602   1.984   5.193
   18SBC   C01L12568   6.414   1.907   5.070
   18SBC   C01H12569   6.062   1.987   5.097
   18SBC   C01K12570   6.303   2.119   5.352
   18SBC   C01E12571   6.074   2.225   5.457
   18SBC   C01G12572   5.936   2.052   5.146
   18SBC   C01D12573   5.953   2.281   5.505
   18SBC   C01A12574   5.727   2.428   5.591
   18SBC   H00112575   5.639   2.482   5.622
   18SBC   C01F12576   5.708   2.175   5.253
   18SBC   C03P12577   5.446   2.117   5.170
   18SBC   C03T12578   5.529   1.952   5.020
   18SBC   C08I12579   5.524   1.734   4.842
   18SBC   C08J12580   5.527   1.625   4.757
   18SBC   C08L12581   5.658   1.468   4.618
   18SBC   C09312582   5.800   1.293   4.508
   18SBC   C08Z12583   6.026   1.452   4.562
   18SBC   C09T12584   6.178   1.070   4.338
   18SBC   C09S12585   6.292   1.376   4.451
   18SBC   C09Q12586   6.564   1.408   4.536
   18SBC   C09F12587   6.728   1.186   4.485
   18SBC   C09E12588   6.415   1.082   4.335
   18SBC   C0A012589   6.775   0.964   4.413
   18SBC   C0CU12590   6.704   0.732   4.263
   18SBC   C0CR12591   6.677   0.617   4.183
   18SBC   C0CZ12592   6.551   0.603   4.132
   18SBC   C0DA12593   6.307   0.990   4.325
   18SBC   C0D912594   6.173   0.657   4.335
   18SBC   H00V12595   6.153   0.669   4.440
   18SBC   C0CY12596   6.450   0.695   4.175
   18SBC   C0DF12597   6.165   0.536   4.256
   18SBC   C0DE12598   6.139   0.397   4.262
   18SBC   C0GI12599   6.050   0.324   4.351
   18SBC   H01K12600   5.990   0.374   4.426
   18SBC   C0GJ12601   6.043   0.193   4.326
   18SBC   H01J12602   5.982   0.141   4.398
   18SBC   O00I12603   6.109   0.126   4.233
   18SBC   C0GH12604   6.203   0.194   4.157
   18SBC   C0GG12605   6.282   0.113   4.068
   18SBC   O00G12606   6.238  -0.015   4.047
   18SBC   C0G812607   6.306  -0.097   3.952
   18SBC   C0G912608   6.236  -0.199   3.890
   18SBC   H01G12609   6.129  -0.203   3.897
   18SBC   C0GA12610   6.310  -0.303   3.827
   18SBC   H01H12611   6.250  -0.384   3.789
   18SBC   C0GB12612   6.454  -0.310   3.828
   18SBC   C0EP12613   6.518  -0.197   3.885
   18SBC   C0E812614   6.662  -0.214   3.916
   18SBC   C0CK12615   6.765  -0.137   3.978
   18SBC   C0CL12616   6.757   0.002   3.948
   18SBC   C0E912617   6.633   0.076   3.941
   18SBC   C0GE12618   6.493   0.045   3.963
   18SBC   C0E712619   6.730  -0.320   3.856
   18SBC   C0CJ12620   6.872  -0.315   3.881
   18SBC   C0E612621   6.955  -0.404   3.811
   18SBC   H00Y12622   7.063  -0.404   3.814
   18SBC   C0EO12623   6.882  -0.498   3.738
   18SBC   H01112624   6.934  -0.580   3.692
   18SBC   C0G612625   6.745  -0.510   3.719
   18SBC   C0G512626   6.677  -0.620   3.651
   18SBC   H01F12627   6.729  -0.703   3.606
   18SBC   C0GD12628   6.539  -0.624   3.645
   18SBC   H01I12629   6.496  -0.700   3.582
   18SBC   O00H12630   6.459  -0.519   3.691
   18SBC   C0EQ12631   6.663  -0.412   3.776
   18SBC   C0GC12632   6.525  -0.418   3.768
   18SBC   C0G712633   6.445  -0.084   3.937
   18SBC   C0DD12634   6.209   0.331   4.163
   18SBC   C0GF12635   6.404   0.150   4.006
   18SBC   C0CO12636   6.674   0.207   3.921
   18SBC   C0D012637   6.526   0.484   4.053
   18SBC   C0C412638   6.777   0.513   4.164
   18SBC   C0CN12639   6.812   0.225   3.920
   18SBC   C0CP12640   7.023   0.275   4.197
   18SBC   C0CM12641   6.867   0.092   3.940
   18SBC   C0CI12642   6.898  -0.201   3.971
   18SBC   C0CD12643   7.335  -0.348   4.112
   18SBC   C0BR12644   7.184  -0.007   4.163
   18SBC   C0CS12645   7.345   0.103   4.314
   18SBC   C0B612646   7.576   0.103   4.474
   18SBC   C0CG12647   7.494  -0.214   4.222
   18SBC   C0CF12648   7.462  -0.326   4.151
   18SBC   C0E512649   7.393  -0.579   4.057
   18SBC   C0DT12650   7.583  -0.768   4.010
   18SBC   C0DL12651   7.785  -0.514   4.177
   18SBC   C0DM12652   7.912  -0.499   4.232
   18SBC   C0DY12653   7.980  -0.699   4.123
   18SBC   C0DU12654   7.683  -0.851   3.984
   18SBC   C0F012655   7.742  -1.084   3.935
   18SBC   C0F412656   7.899  -1.299   3.995
   18SBC   C0FG12657   8.124  -1.013   4.000
   18SBC   O00B12658   8.122  -1.366   4.069
   18SBC   C0FN12659   8.249  -1.012   4.054
   18SBC   C0DZ12660   8.080  -0.794   4.101
   18SBC   O00C12661   8.353  -0.666   4.312
   18SBC   C0FR12662   8.387  -0.565   4.395
   18SBC   O00D12663   8.503  -0.586   4.441
   18SBC   C0E012664   8.007  -0.595   4.209
   18SBC   C0E312665   8.286  -0.464   4.417
   18SBC   C0AW12666   8.306  -0.354   4.502
   18SBC   C0AV12667   8.429  -0.334   4.577
   18SBC   H00Q12668   8.518  -0.393   4.560
   18SBC   C0AU12669   8.439  -0.233   4.675
   18SBC   H00R12670   8.526  -0.224   4.738
   18SBC   C0AT12671   8.336  -0.138   4.686
   18SBC   C0AS12672   8.301  -0.031   4.774
   18SBC   C0AR12673   8.367  -0.019   4.900
   18SBC   C0BE12674   8.220  -0.160   4.606
   18SBC   C0DN12675   7.937  -0.385   4.300
   18SBC   C0AX12676   8.209  -0.266   4.516
   18SBC   C0BB12677   7.864  -0.187   4.415
   18SBC   C0BD12678   8.122  -0.074   4.638
   18SBC   C0B212679   7.791   0.013   4.532
   18SBC   C0AH12680   7.845   0.217   4.712
   18SBC   C0BF12681   8.163   0.014   4.739
   18SBC   C0AL12682   7.955   0.381   4.896
   18SBC   C07U12683   8.191   0.137   5.010
   18SBC   C0AQ12684   8.289   0.037   5.005
   18SBC   C0BG12685   8.441  -0.127   4.968
   18SBC   C0FY12686   8.493  -0.181   5.317
   18SBC   C0BJ12687   8.587  -0.135   4.978
   18SBC   H00S12688   8.657  -0.091   4.908
   18SBC   C0FZ12689   8.627  -0.194   5.337
   18SBC   C07S12690   8.415  -0.109   5.407
   18SBC   C0G112691   8.654  -0.134   5.692
   18SBC   C07K12692   8.378   0.022   5.874
   18SBC   C07H12693   8.301   0.072   5.603
   18SBC   C06B12694   8.309   0.371   5.786
   18SBC   C06N12695   8.163   0.495   5.667
   18SBC   C06612696   8.208   0.199   5.395
   18SBC   C06212697   8.072   0.424   5.214
   18SBC   C05Y12698   8.010   0.650   5.530
   18SBC   C06112699   8.022   0.544   5.164
   18SBC   C05H12700   7.799   0.797   5.309
   18SBC   C06V12701   7.907   0.555   5.078
   18SBC   C06Y12702   7.683   0.625   4.916
   18SBC   C05C12703   7.617   0.912   5.137
   18SBC   C06Z12704   7.494   0.743   4.837
   18SBC   C07012705   7.326   0.961   4.840
   18SBC   C05B12706   7.529   1.027   5.138
   18SBC   C05712707   7.360   1.251   5.139
   18SBC   C05912708   7.248   1.168   4.945
   19SBC   C05812709   6.382   9.672   6.744
   19SBC   C05A12710   6.256   9.711   6.687
   19SBC   C06Q12711   6.247   9.818   6.604
   19SBC   C06R12712   6.122   9.854   6.546
   19SBC   C06S12713   6.008   9.777   6.566
   19SBC   C06T12714   5.887   9.825   6.517
   19SBC   C06U12715   5.750   9.764   6.527
   19SBC   C06X12716   5.694   9.650   6.589
   19SBC   C06012717   5.559   9.634   6.545
   19SBC   C05Z12718   5.444   9.565   6.597
   19SBC   C06812719   5.332   9.653   6.545
   19SBC   C06712720   5.186   9.645   6.579
   19SBC   C06912721   5.135   9.525   6.644
   19SBC   C06A12722   5.001   9.504   6.694
   19SBC   C07312723   4.907   9.603   6.744
   19SBC   C07P12724   4.839   9.580   6.867
   19SBC   C07O12725   4.862   9.471   6.956
   19SBC   H00D12726   4.935   9.397   6.930
   19SBC   C07N12727   4.788   9.448   7.073
   19SBC   H00E12728   4.814   9.360   7.131
   19SBC   C07M12729   4.683   9.536   7.103
   19SBC   H00F12730   4.626   9.520   7.193
   19SBC   C07L12731   4.663   9.650   7.026
   19SBC   C07Q12732   4.564   9.753   7.069
   19SBC   H00G12733   4.508   9.755   7.161
   19SBC   O00F12734   4.538   9.862   6.985
   19SBC   C07J12735   4.600   9.870   6.867
   19SBC   C07I12736   4.696   9.774   6.822
   19SBC   N00412737   4.762   9.791   6.698
   19SBC   C07R12738   4.709   9.891   6.602
   19SBC   C07T12739   4.608   9.981   6.651
   19SBC   C0FX12740   4.559  10.081   6.576
   19SBC   C0FW12741   4.473  10.186   6.616
   19SBC   C0G012742   4.437  10.184   6.751
   19SBC   C0G212743   4.367  10.289   6.813
   19SBC   H01E12744   4.340  10.287   6.918
   19SBC   C0G312745   4.334  10.398   6.733
   19SBC   H01C12746   4.278  10.473   6.786
   19SBC   C0G412747   4.377  10.407   6.600
   19SBC   H01D12748   4.349  10.493   6.540
   19SBC   O00E12749   4.472  10.075   6.826
   19SBC   C0FV12750   4.452  10.302   6.540
   19SBC   C0FU12751   4.516  10.309   6.415
   19SBC   H01B12752   4.506  10.398   6.355
   19SBC   C0FT12753   4.595  10.202   6.367
   19SBC   C0FS12754   4.679  10.167   6.251
   19SBC   C0BI12755   4.716  10.024   6.259
   19SBC   C0BH12756   4.840  10.009   6.188
   19SBC   C07F12757   4.958   9.975   6.261
   19SBC   C07E12758   4.976   9.874   6.361
   19SBC   C07G12759   4.883   9.833   6.454
   19SBC   C07412760   4.948   9.756   6.550
   19SBC   C06512761   5.102   9.835   6.403
   19SBC   C06412762   5.210   9.896   6.342
   19SBC   C06312763   5.343   9.877   6.381
   19SBC   C07512764   5.411   9.977   6.294
   19SBC   C0AM12765   5.325  10.071   6.215
   19SBC   C0AN12766   5.356  10.188   6.127
   19SBC   C0AO12767   5.488  10.264   6.095
   19SBC   C0B112768   5.496  10.373   6.004
   19SBC   C0B012769   5.383  10.424   5.951
   19SBC   C0AZ12770   5.375  10.539   5.866
   19SBC   C0AY12771   5.254  10.577   5.813
   19SBC   N00712772   5.245  10.693   5.736
   19SBC   C0E212773   5.123  10.741   5.690
   19SBC   C0E112774   5.122  10.855   5.614
   19SBC   C0E412775   4.999  10.904   5.570
   19SBC   C0FF12776   4.989  11.025   5.494
   19SBC   C0FJ12777   4.874  11.109   5.453
   19SBC   C0FK12778   4.765  11.138   5.539
   19SBC   H01612779   4.743  11.076   5.625
   19SBC   C0FL12780   4.721  11.274   5.508
   19SBC   H01712781   4.653  11.331   5.569
   19SBC   C0FM12782   4.807  11.319   5.398
   19SBC   C0FH12783   4.875  11.441   5.346
   19SBC   C0FI12784   4.995  11.397   5.296
   19SBC   C0F312785   5.113  11.484   5.306
   19SBC   C0F212786   5.228  11.417   5.322
   19SBC   C0DW12787   5.238  11.281   5.362
   19SBC   C0FE12788   5.122  11.205   5.368
   19SBC   C0DV12789   5.354  11.230   5.417
   19SBC   C0DX12790   5.354  11.113   5.487
   19SBC   C0DK12791   5.471  11.073   5.548
   19SBC   C0DJ12792   5.590  11.146   5.535
   19SBC   C0DI12793   5.711  11.099   5.574
   19SBC   C0DH12794   5.720  10.971   5.622
   19SBC   C0DG12795   5.604  10.896   5.644
   19SBC   C0BV12796   5.601  10.776   5.721
   19SBC   C0BC12797   5.483  10.712   5.759
   19SBC   C0BA12798   5.727  10.728   5.763
   19SBC   C0B412799   5.730  10.617   5.851
   19SBC   C0B312800   5.611  10.547   5.879
   19SBC   C0B512801   5.852  10.578   5.906
   19SBC   C0BU12802   5.971  10.644   5.872
   19SBC   C0BT12803   5.971  10.756   5.789
   19SBC   C0BS12804   6.095  10.817   5.748
   19SBC   C0CC12805   6.086  10.931   5.670
   19SBC   C0CB12806   6.204  11.006   5.646
   19SBC   C0CH12807   6.184  11.146   5.633
   19SBC   C0DO12808   6.056  11.209   5.602
   19SBC   C0DP12809   6.041  11.343   5.578
   19SBC   C0EA12810   6.162  11.433   5.573
   19SBC   H01212811   6.262  11.398   5.593
   19SBC   O00912812   6.148  11.569   5.568
   19SBC   C0EH12813   6.021  11.618   5.545
   19SBC   C0EG12814   6.005  11.757   5.552
   19SBC   C0EJ12815   6.089  11.870   5.601
   19SBC   H01012816   6.190  11.856   5.639
   19SBC   C0EK12817   6.014  11.995   5.585
   19SBC   H00Z12818   6.046  12.088   5.630
   19SBC   C0EL12819   5.889  11.951   5.540
   19SBC   C0EM12820   5.770  12.029   5.519
   19SBC   C0EW12821   5.745  12.171   5.523
   19SBC   H01312822   5.827  12.239   5.541
   19SBC   C0EX12823   5.611  12.225   5.496
   19SBC   H01412824   5.591  12.332   5.493
   19SBC   C0F112825   5.497  12.134   5.474
   19SBC   C0EU12826   5.523  11.999   5.474
   19SBC   C0ET12827   5.427  11.898   5.444
   19SBC   C0ES12828   5.496  11.776   5.461
   19SBC   C0EE12829   5.635  11.807   5.486
   19SBC   C0ED12830   5.765  11.739   5.493
   19SBC   C0EC12831   5.781  11.597   5.489
   19SBC   C0EB12832   5.678  11.500   5.471
   19SBC   C0EN12833   5.548  11.543   5.414
   19SBC   C0ER12834   5.460  11.438   5.377
   19SBC   C0DS12835   5.692  11.358   5.492
   19SBC   C0DR12836   5.811  11.315   5.537
   19SBC   C0EY12837   5.468  11.662   5.392
   19SBC   C0EZ12838   5.338  11.639   5.340
   19SBC   C0F512839   5.207  11.702   5.342
   19SBC   C0F612840   5.190  11.842   5.367
   19SBC   N00812841   5.049  11.889   5.371
   19SBC   C0F712842   4.939  11.803   5.354
   19SBC   C0FQ12843   4.809  11.865   5.370
   19SBC   H01812844   4.723  11.800   5.361
   19SBC   C0FP12845   4.783  12.001   5.391
   19SBC   H01912846   4.683  12.039   5.408
   19SBC   C0FO12847   4.900  12.081   5.388
   19SBC   H01A12848   4.886  12.187   5.396
   19SBC   C0F812849   4.961  11.663   5.342
   19SBC   C0F912850   5.031  12.028   5.386
   19SBC   C0FA12851   5.137  12.118   5.400
   19SBC   H01512852   5.123  12.225   5.405
   19SBC   C0FB12853   5.272  12.072   5.403
   19SBC   C0FD12854   5.291  11.938   5.398
   19SBC   C0FC12855   5.368  12.174   5.434
   19SBC   O00A12856   5.347  12.297   5.424
   19SBC   C0EV12857   5.652  11.948   5.495
   19SBC   C0EF12858   5.882  11.809   5.526
   19SBC   C0EI12859   5.904  11.537   5.517
   19SBC   C0DQ12860   5.917  11.399   5.543
   19SBC   C0CE12861   5.946  11.124   5.598
   19SBC   H00U12862   6.270  11.211   5.629
   19SBC   C0CA12863   6.326  10.937   5.643
   19SBC   C0C912864   6.336  10.811   5.720
   19SBC   C0C812865   6.465  10.755   5.723
   19SBC   C0C712866   6.530  10.645   5.800
   19SBC   C0C612867   6.660  10.608   5.767
   19SBC   C0C512868   6.778  10.548   5.827
   19SBC   C0CQ12869   6.899  10.570   5.761
   19SBC   C0D112870   6.912  10.671   5.666
   19SBC   C0D812871   7.025  10.751   5.690
   19SBC   C0D712872   7.103  10.666   5.766
   19SBC   C0D612873   7.240  10.686   5.790
   19SBC   C0D512874   7.321  10.589   5.858
   19SBC   C0D412875   7.295  10.469   5.932
   19SBC   C0D312876   7.392  10.458   6.033
   19SBC   C0CX12877   7.329  10.398   6.149
   19SBC   C0CW12878   7.184  10.388   6.124
   19SBC   C0CV12879   7.063  10.335   6.188
   19SBC   C0D212880   7.067  10.266   6.313
   19SBC   C09D12881   7.182  10.239   6.391
   19SBC   C09C12882   7.170  10.172   6.515
   19SBC   C09B12883   7.271  10.132   6.605
   19SBC   C09A12884   7.404  10.175   6.569
   19SBC   C09912885   7.417  10.267   6.465
   19SBC   C09812886   7.549  10.259   6.429
   19SBC   C08Y12887   7.617  10.155   6.510
   19SBC   C08X12888   7.745  10.101   6.496
   19SBC   C08W12889   7.823  10.135   6.377
   19SBC   C08U12890   7.788  10.212   6.255
   19SBC   C08V12891   7.667  10.265   6.208
   19SBC   C0DC12892   7.698  10.331   6.085
   19SBC   H00W12893   7.615  10.379   6.036
   19SBC   C0DB12894   7.835  10.319   6.051
   19SBC   H00X12895   7.886  10.353   5.963
   19SBC   C08T12896   7.888  10.242   6.157
   19SBC   C08S12897   8.020  10.191   6.157
   19SBC   H00N12898   8.091  10.213   6.078
   19SBC   C08R12899   8.058  10.111   6.266
   19SBC   C08Q12900   8.191  10.065   6.279
   19SBC   H00O12901   8.264  10.109   6.213
   19SBC   C08P12902   8.230   9.964   6.371
   19SBC   C08O12903   8.362   9.908   6.378
   19SBC   H00P12904   8.436   9.946   6.309
   19SBC   C08N12905   8.380   9.786   6.448
   19SBC   C08M12906   8.509   9.724   6.456
   19SBC   O00812907   8.620   9.766   6.412
   19SBC   O00712908   8.506   9.595   6.496
   19SBC   C08H12909   8.406   9.533   6.563
   19SBC   C08G12910   8.419   9.403   6.618
   19SBC   C03V12911   8.532   9.314   6.609
   19SBC   H00912912   8.618   9.353   6.557
   19SBC   C03U12913   8.528   9.189   6.672
   19SBC   C03W12914   8.643   9.099   6.683
   19SBC   H00A12915   8.737   9.129   6.638
   19SBC   C03X12916   8.631   8.979   6.739
   19SBC   H00B12917   8.711   8.908   6.726
   19SBC   O00512918   8.516   8.947   6.809
   19SBC   C03O12919   8.405   9.020   6.786
   19SBC   C03N12920   8.287   8.979   6.849
   19SBC   O00012921   8.293   8.855   6.897
   19SBC   C01912922   8.189   8.815   6.963
   19SBC   C01812923   8.075   8.901   7.000
   19SBC   C01712924   8.071   9.029   6.945
   19SBC   C01612925   7.962   9.115   6.972
   19SBC   C01512926   7.865   9.066   7.060
   19SBC   C01412927   7.757   9.151   7.094
   19SBC   C01312928   7.744   9.282   7.041
   19SBC   C01212929   7.609   9.315   7.083
   19SBC   C01112930   7.562   9.207   7.160
   19SBC   C01012931   7.441   9.205   7.221
   19SBC   C00Z12932   7.373   9.102   7.285
   19SBC   C00Y12933   7.240   9.149   7.283
   19SBC   C01O12934   7.225   9.282   7.244
   19SBC   C01P12935   7.109   9.320   7.178
   19SBC   C02L12936   7.123   9.427   7.091
   19SBC   C02K12937   7.254   9.475   7.062
   19SBC   C01M12938   7.379   9.406   7.096
   19SBC   C02J12939   7.253   9.592   6.986
   19SBC   C02I12940   7.357   9.667   6.948
   19SBC   C02H12941   7.495   9.642   6.953
   19SBC   C01Q12942   7.565   9.534   6.988
   19SBC   C02G12943   7.697   9.553   6.944
   19SBC   C08912944   7.715   9.683   6.905
   19SBC   C08812945   7.831   9.704   6.831
   19SBC   C08712946   7.887   9.567   6.835
   19SBC   C08612947   8.005   9.527   6.758
   19SBC   C03S12948   8.087   9.409   6.773
   19SBC   N00612949   8.197   9.431   6.697
   19SBC   C08F12950   8.193   9.557   6.642
   19SBC   C01J12951   8.074   9.289   6.837
   19SBC   C03R12952   8.176   9.192   6.809
   19SBC   C03Q12953   8.297   9.229   6.740
   19SBC   C08E12954   8.074   9.616   6.669
   19SBC   C08D12955   8.050   9.747   6.615
   19SBC   C08K12956   8.148   9.800   6.527
   19SBC   C08C12957   7.942   9.835   6.643
   19SBC   C09112958   7.919   9.945   6.558
   19SBC   C09212959   8.008   9.987   6.459
   19SBC   C08B12960   7.836   9.818   6.735
   19SBC   C09012961   7.746   9.929   6.703
   19SBC   C09412962   7.615   9.950   6.763
   19SBC   C09512963   7.515  10.033   6.713
   19SBC   C09R12964   7.391   9.992   6.758
   19SBC   C09712965   7.405   9.876   6.832
   19SBC   C09612966   7.542   9.850   6.829
   19SBC   C01I12967   7.814   9.471   6.918
   19SBC   C08A12968   7.585   9.736   6.896
   19SBC   C09L12969   7.310   9.783   6.888
   19SBC   C09K12970   7.170   9.788   6.893
   19SBC   C09J12971   7.092   9.879   6.825
   19SBC   C09I12972   6.951   9.861   6.794
   19SBC   C09O12973   6.848   9.767   6.828
   19SBC   C09N12974   6.868   9.655   6.909
   19SBC   C09M12975   6.994   9.600   6.971
   19SBC   C06O12976   6.752   9.573   6.927
   19SBC   C05M12977   6.630   9.607   6.870
   19SBC   C06P12978   6.617   9.722   6.785
   19SBC   C04212979   6.518   9.525   6.887
   19SBC   C04112980   6.524   9.411   6.965
   19SBC   C04012981   6.413   9.331   6.981
   19SBC   C03Z12982   6.417   9.213   7.056
   19SBC   C03Y12983   6.537   9.172   7.111
   19SBC   C02712984   6.547   9.048   7.167
   19SBC   C02612985   6.667   9.000   7.218
   19SBC   C02812986   6.675   8.876   7.269
   19SBC   C02912987   6.571   8.788   7.260
   19SBC   C02B12988   6.598   8.655   7.280
   19SBC   C02C12989   6.497   8.567   7.249
   19SBC   C02X12990   6.518   8.435   7.271
   19SBC   C03E12991   6.411   8.350   7.248
   19SBC   C03G12992   6.286   8.377   7.210
   19SBC   C04Q12993   6.264   8.512   7.194
   19SBC   C04R12994   6.136   8.554   7.160
   19SBC   C04S12995   6.117   8.688   7.131
   19SBC   C04L12996   6.226   8.779   7.133
   19SBC   C04M12997   6.349   8.737   7.178
   19SBC   C04K12998   6.214   8.911   7.090
   19SBC   C04F12999   6.089   8.954   7.051
   19SBC   C04E13000   5.979   8.863   7.054
   19SBC   C04D13001   5.854   8.910   7.011
   19SBC   C05013002   5.745   8.831   7.012
   19SBC   C05113003   5.623   8.875   6.963
   19SBC   C05Q13004   5.515   8.793   6.971
   19SBC   C05V13005   5.390   8.842   6.924
   19SBC   N00513006   5.278   8.755   6.927
   19SBC   C07V13007   5.296   8.623   6.974
   19SBC   C08213008   5.188   8.536   6.968
   19SBC   C08113009   5.062   8.574   6.927
   19SBC   C07C13010   5.045   8.708   6.883
   19SBC   C07B13011   4.922   8.752   6.833
   19SBC   C08013012   4.811   8.665   6.833
   19SBC   C07Z13013   4.690   8.718   6.806
   19SBC   H00L13014   4.609   8.649   6.822
   19SBC   C07913015   4.663   8.846   6.758
   19SBC   C07813016   4.773   8.930   6.760
   19SBC   C07713017   4.756   9.063   6.725
   19SBC   C07X13018   4.631   9.119   6.686
   19SBC   H00I13019   4.609   9.218   6.651
   19SBC   C07Y13020   4.518   9.032   6.688
   19SBC   H00H13021   4.427   9.074   6.647
   19SBC   C07613022   4.868   9.147   6.723
   19SBC   C06C13023   4.862   9.286   6.705
   19SBC   H00C13024   4.766   9.335   6.706
   19SBC   C06F13025   4.993   9.099   6.750
   19SBC   C06E13026   5.111   9.173   6.745
   19SBC   C06G13027   5.239   9.134   6.772
   19SBC   C06H13028   5.249   9.011   6.825
   19SBC   C06I13029   5.135   8.927   6.839
   19SBC   C06L13030   5.345   9.228   6.753
   19SBC   C06M13031   5.332   9.361   6.693
   19SBC   C06K13032   5.471   9.181   6.801
   19SBC   C05S13033   5.479   9.056   6.866
   19SBC   C05U13034   5.584   9.265   6.797
   19SBC   C05X13035   5.576   9.391   6.727
   19SBC   C05G13036   5.713   9.449   6.710
   19SBC   C05F13037   5.821   9.395   6.773
   19SBC   C05E13038   5.936   9.474   6.763
   19SBC   C04813039   6.055   9.442   6.826
   19SBC   C05613040   6.163   9.526   6.796
   19SBC   C04513041   6.282   9.484   6.850
   19SBC   C04713042   6.055   9.330   6.892
   19SBC   C04913043   5.937   9.248   6.909
   19SBC   C04B13044   5.948   9.124   6.968
   19SBC   C04613045   6.175   9.289   6.942
   19SBC   C04H13046   6.188   9.163   6.994
   19SBC   C05D13047   5.910   9.583   6.679
   19SBC   C04A13048   5.818   9.279   6.846
   19SBC   C05T13049   5.702   9.207   6.850
   19SBC   C05513050   5.716   9.081   6.910
   19SBC   C06D13051   5.099   9.307   6.701
   19SBC   C07W13052   5.011   8.969   6.791
   19SBC   C08513053   4.536   8.906   6.727
   19SBC   H00M13054   4.448   8.846   6.737
   19SBC   C08413055   4.833   8.534   6.863
   19SBC   H00J13056   4.745   8.475   6.884
   19SBC   C07A13057   4.899   8.883   6.798
   19SBC   C08313058   4.951   8.489   6.917
   19SBC   H00K13059   4.949   8.385   6.943
   19SBC   O00K13060   5.192   8.408   7.012
   19SBC   C0GO13061   5.314   8.363   7.051
   19SBC   C0GN13062   5.334   8.230   7.078
   19SBC   H01L13063   5.247   8.166   7.079
   19SBC   C0GM13064   5.462   8.171   7.104
   19SBC   C0GL13065   5.472   8.042   7.131
   19SBC   H01M13066   5.390   7.973   7.114
   19SBC   O00J13067   5.591   7.980   7.164
   19SBC   C0GK13068   5.698   8.066   7.170
   19SBC   H01N13069   5.793   8.024   7.203
   19SBC   C05K13070   5.694   8.200   7.143
   19SBC   C05J13071   5.813   8.281   7.144
   19SBC   C04Y13072   5.948   8.235   7.151
   19SBC   C04X13073   6.056   8.323   7.162
   19SBC   O00613074   5.986   8.099   7.141
   19SBC   C05313075   6.113   8.051   7.159
   19SBC   C04O13076   6.217   8.141   7.191
   19SBC   C03C13077   6.352   8.112   7.224
   19SBC   C03B13078   6.440   7.995   7.226
   19SBC   C05413079   6.395   7.870   7.193
   19SBC   C0GR13080   6.482   7.756   7.194
   19SBC   C03M13081   6.625   7.724   7.223
   19SBC   C03I13082   6.723   7.823   7.258
   19SBC   C03J13083   6.859   7.780   7.282
   19SBC   N00213084   6.970   7.874   7.300
   19SBC   C02U13085   7.106   7.833   7.315
   19SBC   C02T13086   7.208   7.922   7.338
   19SBC   C02Z13087   7.342   7.879   7.347
   19SBC   N00113088   7.446   7.970   7.366
   19SBC   C02R13089   7.580   7.922   7.360
   19SBC   C03213090   7.610   7.783   7.347
   19SBC   C03113091   7.500   7.696   7.344
   19SBC   H00713092   7.521   7.591   7.330
   19SBC   C03313093   7.749   7.756   7.341
   19SBC   H00313094   7.780   7.653   7.334
   19SBC   O00413095   7.853   7.845   7.344
   19SBC   C03413096   7.813   7.974   7.360
   19SBC   C03513097   7.920   8.064   7.382
   19SBC   C03613098   7.891   8.197   7.415
   19SBC   H00513099   7.962   8.277   7.425
   19SBC   C03713100   7.754   8.240   7.422
   19SBC   H00613101   7.736   8.346   7.415
   19SBC   C00D13102   7.650   8.150   7.393
   19SBC   C00C13103   7.518   8.197   7.382
   19SBC   C00B13104   7.481   8.338   7.381
   19SBC   C00A13105   7.538   8.477   7.379
   19SBC   C00913106   7.431   8.564   7.411
   19SBC   C00813107   7.430   8.706   7.387
   19SBC   C00713108   7.538   8.760   7.317
   19SBC   C00613109   7.532   8.901   7.291
   19SBC   C00513110   7.641   8.960   7.223
   19SBC   C00413111   7.752   8.881   7.186
   19SBC   C00313112   7.747   8.739   7.208
   19SBC   C00213113   7.851   8.654   7.158
   19SBC   C01C13114   7.964   8.708   7.095
   19SBC   C01B13115   8.076   8.628   7.053
   19SBC   H00013116   8.072   8.522   7.073
   19SBC   C00113117   7.822   8.518   7.148
   19SBC   C00013118   7.711   8.466   7.207
   19SBC   C01U13119   7.698   8.339   7.145
   19SBC   H00213120   7.613   8.274   7.148
   19SBC   C01T13121   7.822   8.309   7.065
   19SBC   O00213122   7.851   8.209   7.009
   19SBC   O00113123   7.885   8.428   7.058
   19SBC   C01S13124   7.639   8.684   7.273
   19SBC   C00N13125   7.299   8.763   7.382
   19SBC   C00M13126   7.186   8.683   7.402
   19SBC   C00J13127   7.191   8.547   7.420
   19SBC   C00I13128   7.091   8.456   7.413
   19SBC   C00H13129   7.116   8.317   7.402
   19SBC   C00G13130   7.244   8.269   7.408
   19SBC   C00F13131   7.280   8.140   7.375
   19SBC   C01X13132   7.019   8.229   7.372
   19SBC   C01W13133   6.890   8.279   7.357
   19SBC   C01V13134   6.865   8.416   7.359
   19SBC   C02013135   6.742   8.468   7.323
   19SBC   C01Z13136   6.785   8.192   7.330
   19SBC   C02Y13137   6.662   8.248   7.306
   19SBC   C03913138   6.566   8.162   7.269
   19SBC   C02W13139   6.804   8.053   7.311
   19SBC   C01Y13140   7.045   8.096   7.347
   19SBC   C00U13141   6.963   8.506   7.388
   19SBC   C00S13142   6.945   8.645   7.381
   19SBC   C00T13143   6.818   8.696   7.341
   19SBC   C00R13144   7.051   8.732   7.386
   19SBC   C00Q13145   7.037   8.868   7.353
   19SBC   C00V13146   6.910   8.915   7.320
   19SBC   C02413147   6.904   9.041   7.266
   19SBC   C00X13148   7.008   9.125   7.261
   19SBC   C00P13149   7.153   8.942   7.339
   19SBC   C00O13150   7.285   8.893   7.349
   19SBC   C00K13151   7.317   8.492   7.429
   19SBC   N00013152   7.632   8.538   7.292
   19SBC   C00L13153   7.346   8.357   7.412
   19SBC   H00413154   8.025   8.042   7.369
   19SBC   C02Q13155   7.677   8.015   7.373
   19SBC   C00E13156   7.414   8.106   7.372
   19SBC   C03013157   7.366   7.744   7.338
   19SBC   O00313158   7.262   7.650   7.324
   19SBC   C02S13159   7.178   8.055   7.349
   19SBC   C03813160   7.131   7.697   7.316
   19SBC   C03L13161   7.031   7.605   7.300
   19SBC   H00813162   7.064   7.502   7.294
   19SBC   C02V13163   6.937   8.007   7.321
   19SBC   C03K13164   6.895   7.646   7.275
   19SBC   C0BK13165   6.792   7.558   7.247
   19SBC   H00T13166   6.815   7.453   7.244
   19SBC   C03H13167   6.702   7.961   7.277
   19SBC   C0BL13168   6.663   7.589   7.218
   19SBC   C0GU13169   6.575   7.493   7.169
   19SBC   H01O13170   6.611   7.395   7.141
   19SBC   C0GT13171   6.438   7.518   7.143
   19SBC   H01P13172   6.366   7.452   7.096
   19SBC   C0GS13173   6.394   7.647   7.167
   19SBC   C0GV13174   6.255   7.692   7.148
   19SBC   C0GW13175   6.132   7.628   7.113
   19SBC   H01Q13176   6.133   7.523   7.088
   19SBC   C0GX13177   6.020   7.699   7.114
   19SBC   H01R13178   5.931   7.637   7.108
   19SBC   O00L13179   6.021   7.837   7.150
   19SBC   C0GQ13180   6.256   7.836   7.162
   19SBC   C03A13181   6.574   8.022   7.263
   19SBC   C05L13182   6.133   7.909   7.160
   19SBC   C04W13183   5.797   8.421   7.117
   19SBC   C05I13184   5.671   8.478   7.089
   19SBC   C05O13185   5.558   8.397   7.084
   19SBC   C05213186   5.655   8.612   7.047
   19SBC   C04V13187   5.903   8.512   7.112
   19SBC   C04U13188   5.886   8.646   7.088
   19SBC   N00913189   5.573   8.259   7.109
   19SBC   C0GP13190   5.430   8.445   7.054
   19SBC   C05W13191   5.421   8.579   7.017
   19SBC   C07D13192   5.151   8.798   6.889
   19SBC   C06J13193   5.372   8.967   6.870
   19SBC   C05P13194   5.530   8.660   7.011
   19SBC   C05R13195   5.602   9.009   6.918
   19SBC   C04Z13196   5.761   8.694   7.052
   19SBC   C04C13197   5.836   9.039   6.963
   19SBC   C04G13198   6.077   9.084   7.005
   19SBC   C04J13199   6.321   8.999   7.104
   19SBC   C04T13200   5.994   8.732   7.091
   19SBC   N00313201   6.031   8.463   7.145
   19SBC   C04P13202   6.186   8.281   7.193
   19SBC   C03D13203   6.442   8.210   7.252
   19SBC   C02113204   6.642   8.386   7.298
   19SBC   C03F13205   6.372   8.606   7.206
   19SBC   C02213206   6.723   8.604   7.316
   19SBC   C02A13207   6.453   8.831   7.205
   19SBC   C02313208   6.797   8.832   7.321
   19SBC   C02513209   6.778   9.085   7.216
   19SBC   C02D13210   6.765   9.211   7.156
   19SBC   C02E13211   6.875   9.288   7.135
   19SBC   C02N13212   6.877   9.407   7.059
   19SBC   C04N13213   6.439   8.960   7.163
   19SBC   C02P13214   6.649   9.254   7.098
   19SBC   C04I13215   6.309   9.125   7.050
   19SBC   C04413216   6.289   9.368   6.927
   19SBC   C04313217   6.642   9.377   7.030
   19SBC   C05N13218   6.757   9.457   7.006
   19SBC   C09U13219   6.728   9.798   6.759
   19SBC   C09V13220   6.716   9.897   6.658
   19SBC   C09X13221   6.821   9.976   6.618
   19SBC   C09Y13222   6.820  10.071   6.513
   19SBC   C0A113223   6.705  10.090   6.447
   19SBC   C0A213224   6.593  10.027   6.491
   19SBC   C0A413225   6.469  10.057   6.437
   19SBC   C07113226   6.355   9.988   6.482
   19SBC   C0A513227   6.233  10.029   6.428
   19SBC   C0A913228   6.225  10.137   6.341
   19SBC   C0A813229   6.343  10.198   6.298
   19SBC   C0AP13230   6.332  10.304   6.213
   19SBC   C0BY13231   6.453  10.350   6.160
   19SBC   C0BX13232   6.580  10.316   6.203
   19SBC   C0C213233   6.694  10.362   6.137
   19SBC   C0C313234   6.820  10.318   6.179
   19SBC   C0CT13235   6.823  10.234   6.291
   19SBC   C0C113236   6.684  10.455   6.033
   19SBC   C0C013237   6.553  10.520   6.008
   19SBC   C0A713238   6.583  10.216   6.295
   19SBC   C0BZ13239   6.446  10.458   6.072
   19SBC   C0BO13240   6.323  10.504   6.038
   19SBC   C0BN13241   6.204  10.455   6.080
   19SBC   C0BM13242   6.091  10.493   6.015
   19SBC   C0B913243   5.978  10.427   6.046
   19SBC   C0B813244   5.978  10.323   6.137
   19SBC   C0AD13245   6.096  10.282   6.201
   19SBC   C0AF13246   5.861  10.263   6.171
   19SBC   C0AG13247   5.737  10.299   6.118
   19SBC   C0B713248   5.732  10.401   6.028
   19SBC   C0AE13249   5.872  10.162   6.268
   19SBC   C0AB13250   5.987  10.130   6.335
   19SBC   C0AA13251   5.998  10.016   6.407
   19SBC   C0AJ13252   5.758  10.098   6.300
   19SBC   C0AK13253   5.767   9.989   6.380
   19SBC   C06W13254   5.645   9.944   6.388
   19SBC   C0AI13255   5.627  10.120   6.246
   19SBC   C0BP13256   6.335  10.606   5.949
   19SBC   C0BQ13257   6.212  10.656   5.882
   19SBC   C0BW13258   6.211  10.346   6.163
   19SBC   C0AC13259   6.104  10.183   6.295
   19SBC   C0A613260   6.465  10.160   6.346
   19SBC   C0A313261   6.703  10.183   6.344
   19SBC   C09Z13262   6.939  10.132   6.469
   19SBC   C09W13263   6.601   9.925   6.592
   19SBC   C07213264   6.487   9.858   6.631
   19SBC   C09H13265   6.929   9.961   6.695
   19SBC   C09G13266   7.042  10.037   6.663
   19SBC   C09P13267   7.140   9.998   6.748
   19SBC   C02O13268   7.129   9.663   6.950
   19SBC   C02M13269   6.997   9.480   7.046
   19SBC   C02F13270   6.998   9.245   7.196
   19SBC   C00W13271   7.130   9.070   7.301
   19SBC   C01R13272   7.402   8.963   7.318
   19SBC   C01N13273   7.348   9.304   7.185
   19SBC   C01L13274   7.516   9.421   7.049
   19SBC   C01H13275   7.850   9.339   6.957
   19SBC   C01K13276   7.650   9.100   7.171
   19SBC   C01E13277   7.861   8.933   7.112
   19SBC   C01G13278   7.966   9.254   6.924
   19SBC   C01D13279   7.966   8.847   7.073
   19SBC   C01A13280   8.192   8.681   6.996
   19SBC   H00113281   8.269   8.610   6.967
   19SBC   C01F13282   8.177   9.069   6.865
   19SBC   C03P13283   8.412   9.150   6.735
   19SBC   C03T13284   8.307   9.354   6.685
   19SBC   C08I13285   8.289   9.613   6.574
   19SBC   C08J13286   8.272   9.733   6.512
   19SBC   C08L13287   8.130   9.916   6.451
   19SBC   C09313288   7.963  10.084   6.370
   19SBC   C08Z13289   7.793  10.007   6.587
   19SBC   C09T13290   7.549  10.300   6.286
   19SBC   C09S13291   7.524  10.129   6.613
   19SBC   C09Q13292   7.267  10.043   6.714
   19SBC   C09F13293   7.047  10.123   6.550
   19SBC   C09E13294   7.319  10.279   6.363
   19SBC   C0A013295   6.942  10.213   6.356
   19SBC   C0CU13296   6.936  10.361   6.121
   19SBC   C0CR13297   6.919  10.434   6.001
   19SBC   C0CZ13298   7.038  10.482   5.940
   19SBC   C0DA13299   7.398  10.325   6.249
   19SBC   C0D913300   7.470  10.582   6.032
   19SBC   H00V13301   7.536  10.617   6.111
   19SBC   C0CY13302   7.168  10.438   5.990
   19SBC   C0DF13303   7.430  10.657   5.913
   19SBC   C0DE13304   7.426  10.795   5.868
   19SBC   C0GI13305   7.510  10.904   5.890
   19SBC   H01K13306   7.596  10.914   5.954
   19SBC   C0GJ13307   7.479  11.018   5.833
   19SBC   H01J13308   7.549  11.097   5.856
   19SBC   O00I13309   7.361  11.042   5.757
   19SBC   C0GH13310   7.269  10.937   5.739
   19SBC   C0GG13311   7.144  10.977   5.671
   19SBC   O00G13312   7.142  11.104   5.613
   19SBC   C0G813313   7.036  11.146   5.541
   19SBC   C0G913314   7.049  11.243   5.442
   19SBC   H01G13315   7.150  11.275   5.417
   19SBC   C0GA13316   6.945  11.289   5.364
   19SBC   H01H13317   6.955  11.353   5.277
   19SBC   C0GB13318   6.812  11.250   5.382
   19SBC   C0EP13319   6.794  11.143   5.474
   19SBC   C0E813320   6.653  11.109   5.511
   19SBC   C0CK13321   6.584  11.017   5.598
   19SBC   C0CL13322   6.653  10.896   5.623
   19SBC   C0E913323   6.793  10.871   5.611
   19SBC   C0GE13324   6.912  10.951   5.600
   19SBC   C0E713325   6.547  11.150   5.427
   19SBC   C0CJ13326   6.423  11.095   5.460
   19SBC   C0E613327   6.317  11.109   5.366
   19SBC   H00Y13328   6.225  11.054   5.382
   19SBC   C0EO13329   6.332  11.211   5.266
   19SBC   H01113330   6.261  11.246   5.193
   19SBC   C0G613331   6.456  11.281   5.249
   19SBC   C0G513332   6.478  11.369   5.140
   19SBC   H01F13333   6.400  11.414   5.081
   19SBC   C0GD13334   6.597  11.420   5.124
   19SBC   H01I13335   6.611  11.499   5.052
   19SBC   O00H13336   6.711  11.390   5.199
   19SBC   C0EQ13337   6.570  11.244   5.327
   19SBC   C0GC13338   6.697  11.295   5.300
   19SBC   C0G713339   6.909  11.080   5.543
   19SBC   C0DD13340   7.312  10.809   5.783
   19SBC   C0GF13341   7.034  10.893   5.652
   19SBC   C0CO13342   6.797  10.732   5.620
   19SBC   C0D013343   7.022  10.567   5.831
   19SBC   C0C413344   6.791  10.477   5.952
   19SBC   C0CN13345   6.671  10.676   5.641
   19SBC   C0CP13346   6.478  10.610   5.921
   19SBC   C0CM13347   6.571  10.778   5.626
   19SBC   C0CI13348   6.437  11.015   5.581
   19SBC   C0CD13349   5.962  10.987   5.638
   19SBC   C0BR13350   6.218  10.760   5.784
   19SBC   C0CS13351   6.092  10.598   5.929
   19SBC   C0B613352   5.854  10.471   5.994
   19SBC   C0CG13353   5.846  10.798   5.736
   19SBC   C0CF13354   5.841  10.914   5.663
   19SBC   C0E513355   5.824  11.178   5.570
   19SBC   C0DT13356   5.583  11.274   5.487
   19SBC   C0DL13357   5.479  10.947   5.607
   19SBC   C0DM13358   5.360  10.880   5.635
   19SBC   C0DY13359   5.236  11.037   5.501
   19SBC   C0DU13360   5.467  11.306   5.417
   19SBC   C0F013361   5.341  11.496   5.337
   19SBC   C0F413362   5.093  11.617   5.323
   19SBC   C0FG13363   5.005  11.261   5.327
   19SBC   O00B13364   4.857  11.573   5.367
   19SBC   C0FN13365   4.890  11.211   5.367
   19SBC   C0DZ13366   5.112  11.088   5.451
   19SBC   O00C13367   4.882  10.842   5.614
   19SBC   C0FR13368   4.878  10.722   5.667
   19SBC   O00D13369   4.764  10.673   5.674
   19SBC   C0E013370   5.240  10.923   5.581
   19SBC   C0E313371   5.004  10.670   5.715
   19SBC   C0AW13372   5.011  10.549   5.786
   19SBC   C0AV13373   4.898  10.465   5.819
   19SBC   H00Q13374   4.802  10.483   5.772
   19SBC   C0AU13375   4.910  10.356   5.901
   19SBC   H00R13376   4.822  10.296   5.916
   19SBC   C0AT13377   5.039  10.326   5.955
   19SBC   C0AS13378   5.099  10.239   6.055
   19SBC   C0AR13379   5.016  10.150   6.127
   19SBC   C0BE13380   5.144  10.402   5.916
   19SBC   C0DN13381   5.365  10.759   5.706
   19SBC   C0AX13382   5.133  10.518   5.837
   19SBC   C0BB13383   5.492  10.599   5.829
   19SBC   C0BD13384   5.263  10.361   5.977
   19SBC   C0B213385   5.614  10.446   5.973
   19SBC   C0AH13386   5.617  10.227   6.148
   19SBC   C0BF13387   5.247  10.248   6.061
   19SBC   C0AL13388   5.549  10.015   6.312
   19SBC   C07U13389   5.195  10.008   6.248
   19SBC   C0AQ13390   5.067  10.042   6.207
   19SBC   C0BG13391   4.873  10.138   6.130
   19SBC   C0FY13392   4.689   9.987   6.392
   19SBC   C0BJ13393   4.778  10.241   6.177
   19SBC   H00S13394   4.792  10.347   6.169
   19SBC   C0FZ13395   4.606  10.086   6.446
   19SBC   C07S13396   4.759   9.897   6.476
   19SBC   C0G113397   4.559   9.974   6.782
   19SBC   C07K13398   4.738   9.671   6.907
   19SBC   C07H13399   4.878   9.712   6.661
   19SBC   C06B13400   4.972   9.364   6.691
   19SBC   C06N13401   5.197   9.400   6.671
   19SBC   C06613402   5.089   9.739   6.514
   19SBC   C06213403   5.396   9.766   6.467
   19SBC   C05Y13404   5.449   9.441   6.673
   19SBC   C06113405   5.531   9.735   6.460
   19SBC   C05H13406   5.771   9.561   6.653
   19SBC   C06V13407   5.638   9.823   6.458
   19SBC   C06Y13408   5.889   9.937   6.435
   19SBC   C05C13409   6.019   9.669   6.650
   19SBC   C06Z13410   6.118   9.965   6.460
   19SBC   C07013411   6.362   9.886   6.574
   19SBC   C05B13412   6.144   9.633   6.705
   19SBC   C05713413   6.398   9.558   6.824
   19SBC   C05913414   6.495   9.752   6.721
   20SBC   C05813415   8.366   4.295  10.905
   20SBC   C05A13416   8.291   4.264  11.019
   20SBC   C06Q13417   8.304   4.140  11.081
   20SBC   C06R13418   8.222   4.108  11.187
   20SBC   C06S13419   8.127   4.194  11.240
   20SBC   C06T13420   8.052   4.153  11.355
   20SBC   C06U13421   7.938   4.215  11.429
   20SBC   C06X13422   7.860   4.327  11.398
   20SBC   C06013423   7.748   4.334  11.488
   20SBC   C05Z13424   7.609   4.353  11.451
   20SBC   C06813425   7.538   4.256  11.539
   20SBC   C06713426   7.390   4.236  11.567
   20SBC   C06913427   7.296   4.302  11.480
   20SBC   C06A13428   7.151   4.270  11.463
   20SBC   C07313429   7.065   4.160  11.504
   20SBC   C07P13430   6.968   4.116  11.409
   20SBC   C07O13431   6.966   4.161  11.272
   20SBC   H00D13432   7.045   4.225  11.235
   20SBC   C07N13433   6.862   4.125  11.187
   20SBC   H00E13434   6.854   4.173  11.090
   20SBC   C07M13435   6.760   4.043  11.238
   20SBC   H00F13436   6.677   4.021  11.174
   20SBC   C07L13437   6.770   3.985  11.367
   20SBC   C07Q13438   6.667   3.901  11.431
   20SBC   H00G13439   6.598   3.873  11.352
   20SBC   O00F13440   6.668   3.848  11.557
   20SBC   C07J13441   6.781   3.880  11.632
   20SBC   C07I13442   6.879   3.976  11.587
   20SBC   N00413443   6.980   4.023  11.680
   20SBC   C07R13444   6.984   3.981  11.819
   20SBC   C07T13445   6.890   3.883  11.854
   20SBC   C0FX13446   6.891   3.818  11.979
   20SBC   C0FW13447   6.813   3.707  12.017
   20SBC   C0G013448   6.723   3.662  11.919
   20SBC   C0G213449   6.638   3.558  11.941
   20SBC   H01E13450   6.563   3.528  11.870
   20SBC   C0G313451   6.647   3.490  12.064
   20SBC   H01C13452   6.578   3.407  12.067
   20SBC   C0G413453   6.746   3.522  12.157
   20SBC   H01D13454   6.767   3.451  12.235
   20SBC   O00E13455   6.709   3.726  11.798
   20SBC   C0FV13456   6.838   3.632  12.135
   20SBC   C0FU13457   6.945   3.677  12.218
   20SBC   H01B13458   6.975   3.612  12.300
   20SBC   C0FT13459   7.018   3.793  12.186
   20SBC   C0FS13460   7.139   3.850  12.231
   20SBC   C0BI13461   7.160   3.974  12.155
   20SBC   C0BH13462   7.299   4.000  12.146
   20SBC   C07F13463   7.368   4.017  12.022
   20SBC   C07E13464   7.320   4.075  11.904
   20SBC   C07G13465   7.189   4.099  11.862
   20SBC   C07413466   7.194   4.126  11.724
   20SBC   C06513467   7.400   4.101  11.796
   20SBC   C06413468   7.528   4.039  11.806
   20SBC   C06313469   7.621   4.056  11.705
   20SBC   C07513470   7.727   3.960  11.745
   20SBC   C0AM13471   7.690   3.878  11.864
   20SBC   C0AN13472   7.746   3.756  11.918
   20SBC   C0AO13473   7.850   3.664  11.854
   20SBC   C0B113474   7.871   3.531  11.904
   20SBC   C0B013475   7.807   3.486  12.017
   20SBC   C0AZ13476   7.835   3.366  12.083
   20SBC   C0AY13477   7.774   3.338  12.200
   20SBC   N00713478   7.799   3.218  12.264
   20SBC   C0E213479   7.749   3.192  12.398
   20SBC   C0E113480   7.782   3.070  12.454
   20SBC   C0E413481   7.738   3.043  12.587
   20SBC   C0FF13482   7.763   2.918  12.648
   20SBC   C0FJ13483   7.742   2.864  12.790
   20SBC   C0FK13484   7.794   2.940  12.902
   20SBC   H01613485   7.822   3.042  12.922
   20SBC   C0FL13486   7.833   2.835  13.000
   20SBC   H01713487   7.885   2.835  13.094
   20SBC   C0FM13488   7.798   2.707  12.949
   20SBC   C0FH13489   7.861   2.576  12.947
   20SBC   C0FI13490   7.853   2.540  12.808
   20SBC   C0F313491   7.960   2.469  12.757
   20SBC   C0F213492   7.982   2.498  12.627
   20SBC   C0DW13493   7.934   2.607  12.556
   20SBC   C0FE13494   7.850   2.689  12.612
   20SBC   C0DV13495   7.994   2.641  12.430
   20SBC   C0DX13496   7.963   2.759  12.375
   20SBC   C0DK13497   8.024   2.796  12.259
   20SBC   C0DJ13498   8.119   2.707  12.197
   20SBC   C0DI13499   8.168   2.736  12.074
   20SBC   C0DH13500   8.129   2.850  12.004
   20SBC   C0DG13501   8.044   2.938  12.065
   20SBC   C0BV13502   8.013   3.056  12.003
   20SBC   C0BC13503   7.929   3.143  12.066
   20SBC   C0BA13504   8.076   3.090  11.879
   20SBC   C0B413505   8.055   3.218  11.832
   20SBC   C0B313506   7.968   3.310  11.899
   20SBC   C0B513507   8.117   3.249  11.711
   20SBC   C0BU13508   8.196   3.148  11.642
   20SBC   C0BT13509   8.210   3.021  11.690
   20SBC   C0BS13510   8.292   2.923  11.617
   20SBC   C0CC13511   8.317   2.802  11.678
   20SBC   C0CB13512   8.400   2.707  11.619
   20SBC   C0CH13513   8.408   2.581  11.689
   20SBC   C0DO13514   8.377   2.568  11.825
   20SBC   C0DP13515   8.432   2.469  11.898
   20SBC   C0EA13516   8.533   2.373  11.841
   20SBC   H01213517   8.557   2.364  11.737
   20SBC   O00913518   8.606   2.299  11.926
   20SBC   C0EH13519   8.583   2.300  12.055
   20SBC   C0EG13520   8.669   2.225  12.138
   20SBC   C0EJ13521   8.791   2.147  12.123
   20SBC   H01013522   8.846   2.140  12.030
   20SBC   C0EK13523   8.829   2.083  12.246
   20SBC   H00Z13524   8.912   2.018  12.271
   20SBC   C0EL13525   8.723   2.125  12.333
   20SBC   C0EM13526   8.702   2.096  12.477
   20SBC   C0EW13527   8.780   2.012  12.560
   20SBC   H01313528   8.869   1.961  12.527
   20SBC   C0EX13529   8.743   1.997  12.706
   20SBC   H01413530   8.804   1.943  12.777
   20SBC   C0F113531   8.623   2.059  12.753
   20SBC   C0EU13532   8.548   2.132  12.666
   20SBC   C0ET13533   8.420   2.188  12.696
   20SBC   C0ES13534   8.391   2.247  12.569
   20SBC   C0EE13535   8.488   2.234  12.473
   20SBC   C0ED13536   8.512   2.260  12.329
   20SBC   C0EC13537   8.438   2.351  12.248
   20SBC   C0EB13538   8.323   2.416  12.295
   20SBC   C0EN13539   8.260   2.390  12.423
   20SBC   C0ER13540   8.139   2.459  12.450
   20SBC   C0DS13541   8.261   2.515  12.216
   20SBC   C0DR13542   8.313   2.544  12.088
   20SBC   C0EY13543   8.273   2.304  12.540
   20SBC   C0EZ13544   8.174   2.338  12.646
   20SBC   C0F513545   8.159   2.324  12.791
   20SBC   C0F613546   8.256   2.255  12.871
   20SBC   N00813547   8.230   2.269  13.013
   20SBC   C0F713548   8.124   2.353  13.060
   20SBC   C0FQ13549   8.113   2.361  13.200
   20SBC   H01813550   8.020   2.403  13.234
   20SBC   C0FP13551   8.195   2.291  13.291
   20SBC   H01913552   8.192   2.300  13.398
   20SBC   C0FO13553   8.294   2.214  13.246
   20SBC   H01A13554   8.353   2.162  13.320
   20SBC   C0F813555   8.041   2.417  12.976
   20SBC   C0F913556   8.321   2.205  13.106
   20SBC   C0FA13557   8.434   2.125  13.059
   20SBC   H01513558   8.495   2.078  13.134
   20SBC   C0FB13559   8.456   2.119  12.925
   20SBC   C0FD13560   8.375   2.189  12.835
   20SBC   C0FC13561   8.576   2.045  12.886
   20SBC   O00A13562   8.639   1.975  12.966
   20SBC   C0EV13563   8.591   2.152  12.536
   20SBC   C0EF13564   8.630   2.209  12.270
   20SBC   C0EI13565   8.476   2.369  12.113
   20SBC   C0DQ13566   8.405   2.456  12.033
   20SBC   C0CE13567   8.294   2.663  11.879
   20SBC   H00U13568   8.450   2.503  11.628
   20SBC   C0CA13569   8.465   2.735  11.494
   20SBC   C0C913570   8.423   2.847  11.417
   20SBC   C0C813571   8.453   2.848  11.278
   20SBC   C0C713572   8.463   2.957  11.180
   20SBC   C0C613573   8.490   2.920  11.051
   20SBC   C0C513574   8.562   2.976  10.934
   20SBC   C0CQ13575   8.613   2.882  10.837
   20SBC   C0D113576   8.626   2.752  10.879
   20SBC   C0D813577   8.740   2.698  10.836
   20SBC   C0D713578   8.766   2.777  10.718
   20SBC   C0D613579   8.874   2.770  10.631
   20SBC   C0D513580   8.900   2.855  10.524
   20SBC   C0D413581   8.862   2.987  10.495
   20SBC   C0D313582   8.959   3.046  10.414
   20SBC   C0CX13583   8.955   3.190  10.450
   20SBC   C0CW13584   8.861   3.210  10.565
   20SBC   C0CV13585   8.800   3.315  10.648
   20SBC   C0D213586   8.831   3.450  10.623
   20SBC   C09D13587   8.927   3.500  10.534
   20SBC   C09C13588   8.951   3.637  10.522
   20SBC   C09B13589   9.035   3.709  10.433
   20SBC   C09A13590   9.105   3.628  10.346
   20SBC   C09913591   9.107   3.494  10.365
   20SBC   C09813592   9.169   3.433  10.257
   20SBC   C08Y13593   9.204   3.535  10.158
   20SBC   C08X13594   9.246   3.525  10.021
   20SBC   C08W13595   9.264   3.390   9.965
   20SBC   C08U13596   9.224   3.262  10.019
   20SBC   C08V13597   9.137   3.223  10.129
   20SBC   C0DC13598   9.135   3.081  10.126
   20SBC   H00W13599   9.067   3.035  10.196
   20SBC   C0DB13600   9.220   3.025  10.031
   20SBC   H00X13601   9.236   2.920  10.012
   20SBC   C08T13602   9.278   3.142   9.965
   20SBC   C08S13603   9.356   3.142   9.852
   20SBC   H00N13604   9.393   3.044   9.824
   20SBC   C08R13605   9.369   3.261   9.777
   20SBC   C08Q13606   9.428   3.274   9.654
   20SBC   H00O13607   9.485   3.189   9.618
   20SBC   C08P13608   9.416   3.383   9.562
   20SBC   C08O13609   9.446   3.373   9.424
   20SBC   H00P13610   9.493   3.284   9.385
   20SBC   C08N13611   9.426   3.494   9.346
   20SBC   C08M13612   9.433   3.477   9.203
   20SBC   O00813613   9.458   3.376   9.137
   20SBC   O00713614   9.401   3.597   9.135
   20SBC   C08H13615   9.371   3.716   9.187
   20SBC   C08G13616   9.333   3.829   9.105
   20SBC   C03V13617   9.332   3.839   8.963
   20SBC   H00913618   9.372   3.762   8.898
   20SBC   C03U13619   9.292   3.957   8.893
   20SBC   C03W13620   9.310   3.986   8.751
   20SBC   H00A13621   9.360   3.918   8.683
   20SBC   C03X13622   9.254   4.096   8.697
   20SBC   H00B13623   9.264   4.116   8.592
   20SBC   O00513624   9.187   4.194   8.768
   20SBC   C03O13625   9.189   4.177   8.907
   20SBC   C03N13626   9.144   4.282   8.984
   20SBC   O00013627   9.089   4.383   8.919
   20SBC   C01913628   9.000   4.463   8.984
   20SBC   C01813629   8.991   4.463   9.123
   20SBC   C01713630   9.069   4.373   9.200
   20SBC   C01613631   9.060   4.370   9.335
   20SBC   C01513632   8.990   4.478   9.386
   20SBC   C01413633   8.995   4.491   9.527
   20SBC   C01313634   9.051   4.394   9.616
   20SBC   C01213635   9.013   4.445   9.748
   20SBC   C01113636   8.948   4.565   9.722
   20SBC   C01013637   8.910   4.642   9.823
   20SBC   C00Z13638   8.840   4.762   9.826
   20SBC   C00Y13639   8.803   4.785   9.963
   20SBC   C01O13640   8.846   4.680  10.045
   20SBC   C01P13641   8.782   4.650  10.168
   20SBC   C02L13642   8.819   4.526  10.210
   20SBC   C02K13643   8.901   4.444  10.126
   20SBC   C01M13644   8.947   4.471   9.991
   20SBC   C02J13645   8.933   4.318  10.189
   20SBC   C02I13646   9.021   4.216  10.148
   20SBC   C02H13647   9.094   4.203  10.027
   20SBC   C01Q13648   9.089   4.278   9.902
   20SBC   C02G13649   9.163   4.205   9.805
   20SBC   C08913650   9.222   4.092   9.869
   20SBC   C08813651   9.265   3.991   9.783
   20SBC   C08713652   9.241   4.060   9.652
   20SBC   C08613653   9.255   3.989   9.525
   20SBC   C03S13654   9.242   4.041   9.393
   20SBC   N00613655   9.290   3.949   9.303
   20SBC   C08F13656   9.324   3.838   9.372
   20SBC   C01J13657   9.189   4.158   9.339
   20SBC   C03R13658   9.190   4.164   9.195
   20SBC   C03Q13659   9.238   4.059   9.111
   20SBC   C08E13660   9.307   3.857   9.511
   20SBC   C08D13661   9.328   3.750   9.603
   20SBC   C08K13662   9.359   3.622   9.546
   20SBC   C08C13663   9.310   3.745   9.740
   20SBC   C09113664   9.299   3.625   9.807
   20SBC   C09213665   9.336   3.497   9.755
   20SBC   C08B13666   9.275   3.850   9.826
   20SBC   C09013667   9.265   3.786   9.955
   20SBC   C09413668   9.219   3.855  10.072
   20SBC   C09513669   9.166   3.786  10.183
   20SBC   C09R13670   9.100   3.872  10.267
   20SBC   C09713671   9.101   4.000  10.200
   20SBC   C09613672   9.173   3.987  10.086
   20SBC   C01I13673   9.176   4.190   9.663
   20SBC   C08A13674   9.174   4.089   9.998
   20SBC   C09L13675   9.022   4.114  10.232
   20SBC   C09K13676   8.935   4.153  10.346
   20SBC   C09J13677   8.904   4.064  10.451
   20SBC   C09I13678   8.792   4.080  10.532
   20SBC   C09O13679   8.707   4.189  10.575
   20SBC   C09N13680   8.700   4.312  10.506
   20SBC   C09M13681   8.774   4.359  10.393
   20SBC   C06O13682   8.603   4.405  10.556
   20SBC   C05M13683   8.529   4.369  10.677
   20SBC   C06P13684   8.541   4.245  10.740
   20SBC   C04213685   8.429   4.452  10.725
   20SBC   C04113686   8.404   4.572  10.660
   20SBC   C04013687   8.297   4.657  10.697
   20SBC   C03Z13688   8.254   4.766  10.625
   20SBC   C03Y13689   8.332   4.802  10.513
   20SBC   C02713690   8.287   4.914  10.432
   20SBC   C02613691   8.356   4.954  10.324
   20SBC   C02813692   8.304   5.051  10.231
   20SBC   C02913693   8.188   5.115  10.263
   20SBC   C02B13694   8.120   5.193  10.172
   20SBC   C02C13695   7.997   5.249  10.197
   20SBC   C02X13696   7.938   5.338  10.102
   20SBC   C03E13697   7.816   5.388  10.127
   20SBC   C03G13698   7.743   5.350  10.236
   20SBC   C04Q13699   7.797   5.273  10.329
   20SBC   C04R13700   7.733   5.243  10.445
   20SBC   C04S13701   7.789   5.153  10.535
   20SBC   C04L13702   7.914   5.096  10.513
   20SBC   C04M13703   7.990   5.139  10.407
   20SBC   C04K13704   7.967   5.002  10.598
   20SBC   C04F13705   7.891   4.963  10.706
   20SBC   C04E13706   7.767   5.020  10.731
   20SBC   C04D13707   7.690   4.972  10.834
   20SBC   C05013708   7.563   5.025  10.859
   20SBC   C05113709   7.486   4.976  10.962
   20SBC   C05Q13710   7.365   5.033  10.987
   20SBC   C05V13711   7.271   4.970  11.074
   20SBC   N00513712   7.151   5.032  11.104
   20SBC   C07V13713   7.118   5.157  11.039
   20SBC   C08213714   6.996   5.211  11.061
   20SBC   C08113715   6.899   5.154  11.152
   20SBC   C07C13716   6.933   5.027  11.210
   20SBC   C07B13717   6.838   4.959  11.291
   20SBC   C08013718   6.718   5.019  11.319
   20SBC   C07Z13719   6.626   4.943  11.398
   20SBC   H00L13720   6.525   4.980  11.412
   20SBC   C07913721   6.649   4.816  11.443
   20SBC   C07813722   6.776   4.756  11.412
   20SBC   C07713723   6.802   4.623  11.439
   20SBC   C07X13724   6.703   4.546  11.504
   20SBC   H00I13725   6.714   4.441  11.528
   20SBC   C07Y13726   6.577   4.603  11.538
   20SBC   H00H13727   6.505   4.554  11.600
   20SBC   C07613728   6.926   4.567  11.412
   20SBC   C06C13729   6.953   4.430  11.450
   20SBC   H00C13730   6.887   4.360  11.497
   20SBC   C06F13731   7.025   4.647  11.357
   20SBC   C06E13732   7.151   4.601  11.337
   20SBC   C06G13733   7.253   4.666  11.278
   20SBC   C06H13734   7.217   4.782  11.214
   20SBC   C06I13735   7.090   4.842  11.231
   20SBC   C06L13736   7.382   4.609  11.269
   20SBC   C06M13737   7.421   4.489  11.346
   20SBC   C06K13738   7.474   4.682  11.195
   20SBC   C05S13739   7.438   4.798  11.126
   20SBC   C05U13740   7.610   4.635  11.180
   20SBC   C05X13741   7.655   4.526  11.262
   20SBC   C05G13742   7.791   4.498  11.233
   20SBC   C05F13743   7.865   4.566  11.139
   20SBC   C05E13744   7.985   4.509  11.120
   20SBC   C04813745   8.076   4.552  11.025
   20SBC   C05613746   8.178   4.469  10.995
   20SBC   C04513747   8.252   4.504  10.878
   20SBC   C04713748   8.029   4.657  10.950
   20SBC   C04913749   7.907   4.719  10.976
   20SBC   C04B13750   7.863   4.822  10.892
   20SBC   C04613751   8.108   4.695  10.844
   20SBC   C04H13752   8.068   4.804  10.767
   20SBC   C05D13753   8.000   4.399  11.199
   20SBC   C04A13754   7.820   4.673  11.068
   20SBC   C05T13755   7.694   4.708  11.091
   20SBC   C05513756   7.652   4.820  11.019
   20SBC   C06D13757   7.182   4.474  11.390
   20SBC   C07W13758   6.993   4.775  11.309
   20SBC   C08513759   6.554   4.739  11.512
   20SBC   H00M13760   6.457   4.781  11.533
   20SBC   C08413761   6.695   5.151  11.276
   20SBC   H00J13762   6.601   5.198  11.302
   20SBC   C07A13763   6.871   4.828  11.340
   20SBC   C08313764   6.781   5.219  11.192
   20SBC   H00K13765   6.758   5.314  11.145
   20SBC   O00K13766   6.953   5.330  11.001
   20SBC   C0GO13767   7.040   5.385  10.906
   20SBC   C0GN13768   7.001   5.502  10.840
   20SBC   H01L13769   6.908   5.543  10.877
   20SBC   C0GM13770   7.065   5.534  10.713
   20SBC   C0GL13771   7.009   5.630  10.634
   20SBC   H01M13772   6.931   5.692  10.675
   20SBC   O00J13773   7.054   5.661  10.509
   20SBC   C0GK13774   7.166   5.579  10.474
   20SBC   H01N13775   7.201   5.597  10.373
   20SBC   C05K13776   7.231   5.485  10.551
   20SBC   C05J13777   7.341   5.407  10.508
   20SBC   C04Y13778   7.412   5.415  10.382
   20SBC   C04X13779   7.542   5.367  10.359
   20SBC   O00613780   7.346   5.476  10.284
   20SBC   C05313781   7.401   5.488  10.154
   20SBC   C04O13782   7.542   5.462  10.137
   20SBC   C03C13783   7.620   5.485  10.019
   20SBC   C03B13784   7.594   5.529   9.880
   20SBC   C05413785   7.468   5.533   9.825
   20SBC   C0GR13786   7.452   5.578   9.688
   20SBC   C03M13787   7.536   5.591   9.565
   20SBC   C03I13788   7.674   5.558   9.554
   20SBC   C03J13789   7.741   5.572   9.427
   20SBC   N00213790   7.873   5.520   9.405
   20SBC   C02U13791   7.932   5.518   9.274
   20SBC   C02T13792   8.056   5.452   9.253
   20SBC   C02Z13793   8.108   5.455   9.121
   20SBC   N00113794   8.230   5.385   9.095
   20SBC   C02R13795   8.284   5.387   8.964
   20SBC   C03213796   8.226   5.468   8.864
   20SBC   C03113797   8.107   5.534   8.891
   20SBC   H00713798   8.057   5.584   8.809
   20SBC   C03313799   8.292   5.466   8.736
   20SBC   H00313800   8.271   5.528   8.650
   20SBC   O00413801   8.401   5.386   8.709
   20SBC   C03413802   8.464   5.327   8.815
   20SBC   C03513803   8.586   5.270   8.784
   20SBC   C03613804   8.656   5.203   8.880
   20SBC   H00513805   8.757   5.164   8.878
   20SBC   C03713806   8.594   5.185   9.006
   20SBC   H00613807   8.646   5.126   9.080
   20SBC   C00D13808   8.472   5.250   9.042
   20SBC   C00C13809   8.417   5.244   9.172
   20SBC   C00B13810   8.481   5.180   9.285
   20SBC   C00A13811   8.586   5.084   9.327
   20SBC   C00913812   8.595   5.091   9.465
   20SBC   C00813813   8.659   5.006   9.555
   20SBC   C00713814   8.719   4.897   9.500
   20SBC   C00613815   8.786   4.808   9.587
   20SBC   C00513816   8.851   4.699   9.520
   20SBC   C00413817   8.850   4.679   9.380
   20SBC   C00313818   8.766   4.763   9.306
   20SBC   C00213819   8.736   4.728   9.171
   20SBC   C01C13820   8.825   4.638   9.106
   20SBC   C01B13821   8.837   4.632   8.962
   20SBC   H00013822   8.792   4.701   8.892
   20SBC   C00113823   8.639   4.793   9.096
   20SBC   C00013824   8.568   4.899   9.158
   20SBC   C01U13825   8.456   4.916   9.073
   20SBC   H00213826   8.372   4.984   9.076
   20SBC   C01T13827   8.471   4.820   8.958
   20SBC   O00213828   8.400   4.807   8.863
   20SBC   O00113829   8.583   4.746   8.980
   20SBC   C01S13830   8.699   4.871   9.363
   20SBC   C00N13831   8.628   5.019   9.691
   20SBC   C00M13832   8.521   5.098   9.731
   20SBC   C00J13833   8.451   5.171   9.639
   20SBC   C00I13834   8.329   5.229   9.665
   20SBC   C00H13835   8.256   5.290   9.563
   20SBC   C00G13836   8.294   5.277   9.432
   20SBC   C00F13837   8.233   5.329   9.327
   20SBC   C01X13838   8.142   5.352   9.588
   20SBC   C01W13839   8.092   5.351   9.717
   20SBC   C01V13840   8.165   5.289   9.821
   20SBC   C02013841   8.115   5.288   9.951
   20SBC   C01Z13842   7.967   5.413   9.741
   20SBC   C02Y13843   7.926   5.403   9.869
   20SBC   C03913844   7.803   5.461   9.896
   20SBC   C02W13845   7.884   5.467   9.638
   20SBC   C01Y13846   8.063   5.402   9.483
   20SBC   C00U13847   8.286   5.227   9.793
   20SBC   C00S13848   8.358   5.166   9.896
   20SBC   C00T13849   8.309   5.163  10.024
   20SBC   C00R13850   8.475   5.100   9.863
   20SBC   C00Q13851   8.537   5.021   9.953
   20SBC   C00V13852   8.487   5.010  10.082
   20SBC   C02413853   8.534   4.911  10.169
   20SBC   C00X13854   8.644   4.840  10.130
   20SBC   C00P13855   8.649   4.946   9.912
   20SBC   C00O13856   8.696   4.943   9.780
   20SBC   C00K13857   8.494   5.171   9.511
   20SBC   N00013858   8.614   4.954   9.279
   20SBC   C00L13859   8.414   5.203   9.407
   20SBC   H00413860   8.619   5.278   8.682
   20SBC   C02Q13861   8.407   5.320   8.944
   20SBC   C00E13862   8.299   5.317   9.200
   20SBC   C03013863   8.042   5.527   9.021
   20SBC   O00313864   7.922   5.592   9.047
   20SBC   C02S13865   8.114   5.396   9.356
   20SBC   C03813866   7.865   5.582   9.173
   20SBC   C03L13867   7.745   5.648   9.197
   20SBC   H00813868   7.696   5.691   9.111
   20SBC   C02V13869   7.939   5.462   9.511
   20SBC   C03K13870   7.678   5.634   9.319
   20SBC   C0BK13871   7.546   5.670   9.340
   20SBC   H00T13872   7.491   5.713   9.259
   20SBC   C03H13873   7.755   5.514   9.659
   20SBC   C0BL13874   7.466   5.651   9.452
   20SBC   C0GU13875   7.332   5.693   9.464
   20SBC   H01O13876   7.285   5.744   9.381
   20SBC   C0GT13877   7.252   5.670   9.575
   20SBC   H01P13878   7.150   5.704   9.568
   20SBC   C0GS13879   7.313   5.614   9.685
   20SBC   C0GV13880   7.250   5.590   9.814
   20SBC   C0GW13881   7.116   5.610   9.858
   20SBC   H01Q13882   7.043   5.634   9.782
   20SBC   C0GX13883   7.089   5.590   9.990
   20SBC   H01R13884   6.986   5.602  10.022
   20SBC   O00L13885   7.179   5.552  10.085
   20SBC   C0GQ13886   7.350   5.545   9.904
   20SBC   C03A13887   7.707   5.506   9.801
   20SBC   C05L13888   7.312   5.530  10.046
   20SBC   C04W13889   7.405   5.325  10.600
   20SBC   C05I13890   7.342   5.283  10.715
   20SBC   C05O13891   7.227   5.348  10.753
   20SBC   C05213892   7.395   5.188  10.805
   20SBC   C04V13893   7.534   5.270  10.582
   20SBC   C04U13894   7.592   5.177  10.670
   20SBC   N00913895   7.174   5.456  10.674
   20SBC   C0GP13896   7.156   5.316  10.869
   20SBC   C05W13897   7.201   5.205  10.942
   20SBC   C07D13898   7.055   4.966  11.183
   20SBC   C06J13899   7.305   4.854  11.138
   20SBC   C05P13900   7.323   5.143  10.915
   20SBC   C05R13901   7.527   4.866  11.037
   20SBC   C04Z13902   7.521   5.134  10.782
   20SBC   C04C13903   7.740   4.875  10.921
   20SBC   C04G13904   7.939   4.863  10.789
   20SBC   C04J13905   8.088   4.940  10.572
   20SBC   C04T13906   7.717   5.119  10.647
   20SBC   N00313907   7.605   5.295  10.466
   20SBC   C04P13908   7.611   5.397  10.245
   20SBC   C03D13909   7.753   5.463  10.025
   20SBC   C02113910   7.994   5.348   9.975
   20SBC   C03F13911   7.925   5.222  10.311
   20SBC   C02213912   8.184   5.223  10.050
   20SBC   C02A13913   8.118   5.086  10.382
   20SBC   C02313914   8.369   5.079  10.114
   20SBC   C02513915   8.473   4.884  10.289
   20SBC   C02D13916   8.503   4.767  10.357
   20SBC   C02E13917   8.613   4.690  10.325
   20SBC   C02N13918   8.654   4.565  10.384
   20SBC   C04N13919   8.165   4.982  10.466
   20SBC   C02P13920   8.437   4.728  10.474
   20SBC   C04I13921   8.138   4.838  10.654
   20SBC   C04413922   8.220   4.620  10.807
   20SBC   C04313923   8.474   4.611  10.543
   20SBC   C05N13924   8.578   4.528  10.491
   20SBC   C09U13925   8.623   4.151  10.684
   20SBC   C09V13926   8.624   4.018  10.741
   20SBC   C09X13927   8.686   3.918  10.683
   20SBC   C09Y13928   8.683   3.781  10.724
   20SBC   C0A113929   8.604   3.745  10.828
   20SBC   C0A213930   8.538   3.849  10.894
   20SBC   C0A413931   8.467   3.817  11.006
   20SBC   C07113932   8.390   3.914  11.070
   20SBC   C0A513933   8.317   3.883  11.181
   20SBC   C0A913934   8.326   3.750  11.233
   20SBC   C0A813935   8.393   3.654  11.163
   20SBC   C0AP13936   8.393   3.526  11.210
   20SBC   C0BY13937   8.454   3.428  11.134
   20SBC   C0BX13938   8.526   3.450  11.021
   20SBC   C0C213939   8.584   3.346  10.948
   20SBC   C0C313940   8.656   3.376  10.838
   20SBC   C0CT13941   8.670   3.510  10.803
   20SBC   C0C113942   8.566   3.214  10.990
   20SBC   C0C013943   8.509   3.196  11.122
   20SBC   C0A713944   8.529   3.584  10.982
   20SBC   C0BZ13945   8.454   3.300  11.182
   20SBC   C0BO13946   8.393   3.273  11.301
   20SBC   C0BN13947   8.325   3.366  11.376
   20SBC   C0BM13948   8.257   3.323  11.489
   20SBC   C0B913949   8.193   3.420  11.559
   20SBC   C0B813950   8.194   3.552  11.516
   20SBC   C0AD13951   8.269   3.588  11.404
   20SBC   C0AF13952   8.114   3.640  11.579
   20SBC   C0AG13953   8.036   3.609  11.692
   20SBC   C0B713954   8.037   3.474  11.736
   20SBC   C0AE13955   8.111   3.765  11.523
   20SBC   C0AB13956   8.184   3.809  11.412
   20SBC   C0AA13957   8.168   3.940  11.355
   20SBC   C0AJ13958   8.015   3.855  11.578
   20SBC   C0AK13959   8.006   3.978  11.517
   20SBC   C06W13960   7.909   4.035  11.587
   20SBC   C0AI13961   7.935   3.828  11.686
   20SBC   C0BP13962   8.411   3.138  11.332
   20SBC   C0BQ13963   8.328   3.089  11.446
   20SBC   C0BW13964   8.331   3.493  11.331
   20SBC   C0AC13965   8.264   3.717  11.353
   20SBC   C0A613966   8.464   3.688  11.047
   20SBC   C0A313967   8.601   3.611  10.866
   20SBC   C09Z13968   8.765   3.684  10.670
   20SBC   C09W13969   8.545   3.982  10.846
   20SBC   C07213970   8.467   4.079  10.906
   20SBC   C09H13971   8.775   3.952  10.587
   20SBC   C09G13972   8.862   3.858  10.546
   20SBC   C09P13973   8.943   3.920  10.456
   20SBC   C02O13974   8.877   4.281  10.317
   20SBC   C02M13975   8.755   4.484  10.329
   20SBC   C02F13976   8.685   4.730  10.209
   20SBC   C00W13977   8.700   4.870  10.007
   20SBC   C01R13978   8.779   4.844   9.728
   20SBC   C01N13979   8.911   4.598   9.956
   20SBC   C01L13980   9.015   4.392   9.885
   20SBC   C01H13981   9.125   4.282   9.562
   20SBC   C01K13982   8.921   4.593   9.592
   20SBC   C01E13983   8.922   4.579   9.321
   20SBC   C01G13984   9.128   4.266   9.411
   20SBC   C01D13985   8.917   4.564   9.184
   20SBC   C01A13986   8.927   4.549   8.901
   20SBC   H00113987   8.946   4.555   8.795
   20SBC   C01F13988   9.143   4.275   9.126
   20SBC   C03P13989   9.242   4.064   8.971
   20SBC   C03T13990   9.282   3.945   9.168
   20SBC   C08I13991   9.360   3.722   9.326
   20SBC   C08J13992   9.384   3.612   9.405
   20SBC   C08L13993   9.372   3.503   9.624
   20SBC   C09313994   9.322   3.381   9.833
   20SBC   C08Z13995   9.264   3.639   9.940
   20SBC   C09T13996   9.114   3.302  10.252
   20SBC   C09S13997   9.169   3.658  10.224
   20SBC   C09Q13998   9.027   3.837  10.385
   20SBC   C09F13999   8.857   3.721  10.580
   20SBC   C09E14000   9.007   3.429  10.434
   20SBC   C0A014001   8.758   3.547  10.698
   20SBC   C0CU14002   8.714   3.277  10.758
   20SBC   C0CR14003   8.686   3.141  10.795
   20SBC   C0CZ14004   8.737   3.043  10.705
   20SBC   C0DA14005   9.018   3.297  10.374
   20SBC   C0D914006   9.077   2.955  10.421
   20SBC   H00V14007   9.180   2.982  10.402
   20SBC   C0CY14008   8.822   3.079  10.594
   20SBC   C0DF14009   9.031   2.831  10.479
   20SBC   C0DE14010   9.076   2.708  10.545
   20SBC   C0GI14011   9.172   2.608  10.501
   20SBC   H01K14012   9.243   2.615  10.419
   20SBC   C0GJ14013   9.181   2.501  10.580
   20SBC   H01J14014   9.243   2.422  10.541
   20SBC   O00I14015   9.112   2.479  10.698
   20SBC   C0GH14016   9.004   2.561  10.728
   20SBC   C0GG14017   8.929   2.528  10.845
   20SBC   O00G14018   8.979   2.427  10.913
   20SBC   C0G814019   8.942   2.401  11.045
   20SBC   C0G914020   9.019   2.303  11.097
   20SBC   H01G14021   9.100   2.258  11.042
   20SBC   C0GA14022   8.997   2.274  11.229
   20SBC   H01H14023   9.060   2.194  11.267
   20SBC   C0GB14024   8.912   2.348  11.316
   20SBC   C0EP14025   8.822   2.440  11.252
   20SBC   C0E814026   8.737   2.511  11.344
   20SBC   C0CK14027   8.630   2.607  11.333
   20SBC   C0CL14028   8.575   2.639  11.212
   20SBC   C0E914029   8.643   2.616  11.084
   20SBC   C0GE14030   8.765   2.557  11.031
   20SBC   C0E714031   8.747   2.504  11.482
   20SBC   C0CJ14032   8.661   2.585  11.558
   20SBC   C0E614033   8.683   2.601  11.693
   20SBC   H00Y14034   8.629   2.680  11.741
   20SBC   C0EO14035   8.784   2.524  11.750
   20SBC   H01114036   8.807   2.551  11.852
   20SBC   C0G614037   8.873   2.438  11.675
   20SBC   C0G514038   8.976   2.344  11.728
   20SBC   H01F14039   9.003   2.339  11.833
   20SBC   C0GD14040   9.050   2.268  11.647
   20SBC   H01I14041   9.132   2.217  11.695
   20SBC   O00H14042   9.019   2.252  11.510
   20SBC   C0EQ14043   8.845   2.423  11.537
   20SBC   C0GC14044   8.926   2.341  11.456
   20SBC   C0G714045   8.830   2.466  11.114
   20SBC   C0DD14046   8.976   2.676  10.642
   20SBC   C0GF14047   8.813   2.588  10.896
   20SBC   C0CO14048   8.577   2.704  11.002
   20SBC   C0D014049   8.707   2.904  10.744
   20SBC   C0C414050   8.602   3.108  10.907
   20SBC   C0CN14051   8.473   2.774  11.061
   20SBC   C0CP14052   8.484   3.088  11.220
   20SBC   C0CM14053   8.464   2.731  11.196
   20SBC   C0CI14054   8.575   2.649  11.463
   20SBC   C0CD14055   8.259   2.776  11.805
   20SBC   C0BR14056   8.347   2.957  11.488
   20SBC   C0CS14057   8.263   3.187  11.525
   20SBC   C0B614058   8.118   3.377  11.671
   20SBC   C0CG14059   8.155   2.995  11.813
   20SBC   C0CF14060   8.177   2.874  11.871
   20SBC   C0E514061   8.257   2.646  12.012
   20SBC   C0DT14062   8.161   2.598  12.261
   20SBC   C0DL14063   7.992   2.914  12.199
   20SBC   C0DM14064   7.910   3.008  12.263
   20SBC   C0DY14065   7.882   2.853  12.444
   20SBC   C0DU14066   8.092   2.567  12.375
   20SBC   C0F014067   8.096   2.433  12.578
   20SBC   C0F414068   8.044   2.395  12.838
   20SBC   C0FG14069   7.792   2.643  12.737
   20SBC   O00B14070   7.957   2.520  13.027
   20SBC   C0FN14071   7.738   2.736  12.825
   20SBC   C0DZ14072   7.828   2.820  12.566
   20SBC   O00C14073   7.650   3.133  12.644
   20SBC   C0FR14074   7.615   3.253  12.592
   20SBC   O00D14075   7.525   3.308  12.653
   20SBC   C0E014076   7.863   2.976  12.389
   20SBC   C0E314077   7.669   3.284  12.460
   20SBC   C0AW14078   7.642   3.407  12.393
   20SBC   C0AV14079   7.559   3.514  12.450
   20SBC   H00Q14080   7.503   3.511  12.542
   20SBC   C0AU14081   7.533   3.635  12.382
   20SBC   H00R14082   7.474   3.714  12.426
   20SBC   C0AT14083   7.587   3.652  12.252
   20SBC   C0AS14084   7.584   3.749  12.145
   20SBC   C0AR14085   7.494   3.859  12.138
   20SBC   C0BE14086   7.661   3.544  12.203
   20SBC   C0DN14087   7.871   3.118  12.193
   20SBC   C0AX14088   7.700   3.428  12.268
   20SBC   C0BB14089   7.913   3.272  12.017
   20SBC   C0BD14090   7.718   3.575  12.081
   20SBC   C0B214091   7.956   3.439  11.845
   20SBC   C0AH14092   7.940   3.700  11.748
   20SBC   C0BF14093   7.687   3.706  12.041
   20SBC   C0AL14094   7.861   3.947  11.693
   20SBC   C07U14095   7.571   3.949  11.907
   20SBC   C0AQ14096   7.491   3.947  12.024
   20SBC   C0BG14097   7.370   3.894  12.213
   20SBC   C0FY14098   7.065   3.972  12.047
   20SBC   C0BJ14099   7.268   3.797  12.259
   20SBC   H00S14100   7.291   3.696  12.288
   20SBC   C0FZ14101   6.983   3.864  12.072
   20SBC   C07S14102   7.075   4.032  11.915
   20SBC   C0G114103   6.796   3.829  11.759
   20SBC   C07K14104   6.872   4.026  11.454
   20SBC   C07H14105   7.082   4.108  11.633
   20SBC   C06B14106   7.087   4.393  11.442
   20SBC   C06N14107   7.307   4.417  11.397
   20SBC   C06614108   7.331   4.163  11.688
   20SBC   C06214109   7.634   4.178  11.614
   20SBC   C05Y14110   7.563   4.456  11.351
   20SBC   C06114111   7.762   4.238  11.587
   20SBC   C05H14112   7.881   4.402  11.282
   20SBC   C06V14113   7.878   4.162  11.548
   20SBC   C06Y14114   8.083   4.030  11.409
   20SBC   C05C14115   8.117   4.318  11.173
   20SBC   C06Z14116   8.236   3.977  11.242
   20SBC   C07014117   8.388   4.047  11.025
   20SBC   C05B14118   8.199   4.352  11.067
   20SBC   C05714119   8.345   4.414  10.832
   20SBC   C05914120   8.463   4.210  10.856
   21SBC   C05814121   4.148   4.942   7.836
   21SBC   C05A14122   4.018   4.884   7.842
   21SBC   C06Q14123   4.000   4.745   7.854
   21SBC   C06R14124   3.874   4.690   7.874
   21SBC   C06S14125   3.757   4.771   7.868
   21SBC   C06T14126   3.633   4.705   7.863
   21SBC   C06U14127   3.499   4.766   7.856
   21SBC   C06X14128   3.448   4.897   7.887
   21SBC   C06014129   3.307   4.901   7.865
   21SBC   C05Z14130   3.201   4.968   7.946
   21SBC   C06814131   3.083   4.873   7.929
   21SBC   C06714132   2.939   4.901   7.939
   21SBC   C06914133   2.899   5.026   8.008
   21SBC   C06A14134   2.767   5.075   8.039
   21SBC   C07314135   2.643   5.060   7.977
   21SBC   C07P14136   2.558   5.170   7.962
   21SBC   C07O14137   2.601   5.300   7.944
   21SBC   H00D14138   2.707   5.314   7.931
   21SBC   C07N14139   2.512   5.407   7.942
   21SBC   H00E14140   2.544   5.509   7.924
   21SBC   C07M14141   2.375   5.384   7.964
   21SBC   H00F14142   2.306   5.467   7.962
   21SBC   C07L14143   2.328   5.250   7.984
   21SBC   C07Q14144   2.193   5.214   8.013
   21SBC   H00G14145   2.111   5.285   8.011
   21SBC   O00F14146   2.155   5.090   8.030
   21SBC   C07J14147   2.242   4.991   7.991
   21SBC   C07I14148   2.374   5.021   7.966
   21SBC   N00414149   2.463   4.916   7.921
   21SBC   C07R14150   2.401   4.801   7.874
   21SBC   C07T14151   2.272   4.770   7.919
   21SBC   C0FX14152   2.220   4.646   7.897
   21SBC   C0FW14153   2.103   4.600   7.950
   21SBC   C0G014154   2.024   4.692   8.024
   21SBC   C0G214155   1.912   4.658   8.094
   21SBC   H01E14156   1.871   4.737   8.154
   21SBC   C0G314157   1.869   4.526   8.084
   21SBC   H01C14158   1.776   4.509   8.136
   21SBC   C0G414159   1.934   4.442   8.000
   21SBC   H01D14160   1.892   4.343   8.003
   21SBC   O00E14161   2.067   4.822   8.036
   21SBC   C0FV14162   2.055   4.468   7.930
   21SBC   C0FU14163   2.145   4.375   7.865
   21SBC   H01B14164   2.122   4.270   7.861
   21SBC   C0FT14165   2.260   4.427   7.802
   21SBC   C0FS14166   2.383   4.377   7.738
   21SBC   C0BI14167   2.454   4.484   7.681
   21SBC   C0BH14168   2.589   4.455   7.658
   21SBC   C07F14169   2.702   4.505   7.736
   21SBC   C07E14170   2.722   4.636   7.778
   21SBC   C07G14171   2.619   4.719   7.811
   21SBC   C07414172   2.682   4.827   7.879
   21SBC   C06514173   2.846   4.681   7.825
   21SBC   C06414174   2.947   4.581   7.826
   21SBC   C06314175   3.077   4.604   7.864
   21SBC   C07514176   3.147   4.476   7.834
   21SBC   C0AM14177   3.059   4.368   7.790
   21SBC   C0AN14178   3.090   4.232   7.742
   21SBC   C0AO14179   3.220   4.153   7.726
   21SBC   C0B114180   3.226   4.019   7.670
   21SBC   C0B014181   3.113   3.961   7.623
   21SBC   C0AZ14182   3.103   3.836   7.561
   21SBC   C0AY14183   2.983   3.782   7.524
   21SBC   N00714184   2.980   3.659   7.453
   21SBC   C0E214185   2.854   3.606   7.409
   21SBC   C0E114186   2.851   3.481   7.358
   21SBC   C0E414187   2.732   3.421   7.320
   21SBC   C0FF14188   2.723   3.302   7.251
   21SBC   C0FJ14189   2.607   3.238   7.186
   21SBC   C0FK14190   2.494   3.307   7.130
   21SBC   H01614191   2.452   3.404   7.156
   21SBC   C0FL14192   2.472   3.249   6.998
   21SBC   H01714193   2.432   3.295   6.909
   21SBC   C0FM14194   2.545   3.126   6.993
   21SBC   C0FH14195   2.616   3.046   6.893
   21SBC   C0FI14196   2.731   3.003   6.968
   21SBC   C0F314197   2.848   2.973   6.896
   21SBC   C0F214198   2.958   2.990   6.974
   21SBC   C0DW14199   2.967   3.079   7.079
   21SBC   C0FE14200   2.855   3.121   7.138
   21SBC   C0DV14201   3.085   3.140   7.112
   21SBC   C0DX14202   3.086   3.247   7.195
   21SBC   C0DK14203   3.207   3.306   7.230
   21SBC   C0DJ14204   3.327   3.260   7.174
   21SBC   C0DI14205   3.447   3.310   7.218
   21SBC   C0DH14206   3.452   3.418   7.309
   21SBC   C0DG14207   3.333   3.473   7.348
   21SBC   C0BV14208   3.337   3.589   7.420
   21SBC   C0BC14209   3.218   3.655   7.458
   21SBC   C0BA14210   3.460   3.639   7.466
   21SBC   C0B414211   3.461   3.751   7.555
   21SBC   C0B314212   3.341   3.819   7.584
   21SBC   C0B514213   3.583   3.799   7.601
   21SBC   C0BU14214   3.702   3.728   7.576
   21SBC   C0BT14215   3.699   3.615   7.491
   21SBC   C0BS14216   3.823   3.551   7.460
   21SBC   C0CC14217   3.821   3.446   7.368
   21SBC   C0CB14218   3.940   3.394   7.316
   21SBC   C0CH14219   3.925   3.337   7.183
   21SBC   C0DO14220   3.801   3.279   7.137
   21SBC   C0DP14221   3.790   3.200   7.017
   21SBC   C0EA14222   3.913   3.153   6.949
   21SBC   H01214223   4.014   3.171   6.983
   21SBC   O00914224   3.908   3.067   6.843
   21SBC   C0EH14225   3.789   3.042   6.789
   21SBC   C0EG14226   3.779   2.995   6.658
   21SBC   C0EJ14227   3.878   2.964   6.561
   21SBC   H01014228   3.984   2.970   6.576
   21SBC   C0EK14229   3.809   2.912   6.443
   21SBC   H00Z14230   3.867   2.876   6.358
   21SBC   C0EL14231   3.672   2.929   6.459
   21SBC   C0EM14232   3.558   2.884   6.385
   21SBC   C0EW14233   3.552   2.830   6.256
   21SBC   H01314234   3.643   2.819   6.198
   21SBC   C0EX14235   3.421   2.784   6.198
   21SBC   H01414236   3.418   2.738   6.100
   21SBC   C0F114237   3.300   2.803   6.279
   21SBC   C0EU14238   3.314   2.849   6.412
   21SBC   C0ET14239   3.213   2.878   6.501
   21SBC   C0ES14240   3.280   2.937   6.616
   21SBC   C0EE14241   3.417   2.949   6.590
   21SBC   C0ED14242   3.534   2.983   6.662
   21SBC   C0EC14243   3.540   3.037   6.792
   21SBC   C0EB14244   3.432   3.055   6.879
   21SBC   C0EN14245   3.300   2.992   6.861
   21SBC   C0ER14246   3.200   3.010   6.950
   21SBC   C0DS14247   3.438   3.130   6.999
   21SBC   C0DR14248   3.554   3.183   7.046
   21SBC   C0EY14249   3.232   2.928   6.751
   21SBC   C0EZ14250   3.086   2.920   6.772
   21SBC   C0F514251   2.965   2.904   6.691
   21SBC   C0F614252   2.960   2.862   6.556
   21SBC   N00814253   2.831   2.863   6.497
   21SBC   C0F714254   2.711   2.909   6.561
   21SBC   C0FQ14255   2.596   2.913   6.480
   21SBC   H01814256   2.503   2.955   6.517
   21SBC   C0FP14257   2.586   2.872   6.352
   21SBC   H01914258   2.492   2.878   6.299
   21SBC   C0FO14259   2.698   2.816   6.297
   21SBC   H01A14260   2.687   2.786   6.194
   21SBC   C0F814261   2.724   2.954   6.695
   21SBC   C0F914262   2.819   2.819   6.367
   21SBC   C0FA14263   2.931   2.780   6.289
   21SBC   H01514264   2.922   2.753   6.185
   21SBC   C0FB14265   3.064   2.802   6.334
   21SBC   C0FD14266   3.075   2.840   6.468
   21SBC   C0FC14267   3.168   2.773   6.235
   21SBC   O00A14268   3.143   2.725   6.126
   21SBC   C0EV14269   3.436   2.894   6.461
   21SBC   C0EF14270   3.661   2.975   6.595
   21SBC   C0EI14271   3.663   3.083   6.850
   21SBC   C0DQ14272   3.668   3.157   6.969
   21SBC   C0CE14273   3.686   3.317   7.203
   21SBC   H00U14274   4.013   3.335   7.121
   21SBC   C0CA14275   4.061   3.388   7.400
   21SBC   C0C914276   4.061   3.499   7.504
   21SBC   C0C814277   4.183   3.505   7.587
   21SBC   C0C714278   4.247   3.613   7.656
   21SBC   C0C614279   4.368   3.588   7.728
   21SBC   C0C514280   4.486   3.648   7.789
   21SBC   C0CQ14281   4.596   3.561   7.809
   21SBC   C0D114282   4.600   3.438   7.755
   21SBC   C0D814283   4.725   3.414   7.703
   21SBC   C0D714284   4.807   3.500   7.775
   21SBC   C0D614285   4.949   3.512   7.754
   21SBC   C0D514286   5.032   3.591   7.829
   21SBC   C0D414287   5.000   3.718   7.893
   21SBC   C0D314288   5.110   3.809   7.868
   21SBC   C0CX14289   5.059   3.949   7.861
   21SBC   C0CW14290   4.910   3.940   7.864
   21SBC   C0CV14291   4.795   4.032   7.848
   21SBC   C0D214292   4.807   4.169   7.826
   21SBC   C09D14293   4.924   4.235   7.777
   21SBC   C09C14294   4.923   4.371   7.745
   21SBC   C09B14295   5.028   4.453   7.696
   21SBC   C09A14296   5.156   4.389   7.695
   21SBC   C09914297   5.163   4.264   7.731
   21SBC   C09814298   5.294   4.230   7.754
   21SBC   C08Y14299   5.377   4.346   7.734
   21SBC   C08X14300   5.510   4.375   7.769
   21SBC   C08W14301   5.591   4.270   7.830
   21SBC   C08U14302   5.543   4.137   7.866
   21SBC   C08V14303   5.418   4.061   7.867
   21SBC   C0DC14304   5.449   3.928   7.914
   21SBC   H00W14305   5.376   3.851   7.936
   21SBC   C0DB14306   5.584   3.922   7.935
   21SBC   H00X14307   5.630   3.836   7.982
   21SBC   C08T14308   5.645   4.045   7.904
   21SBC   C08S14309   5.777   4.076   7.930
   21SBC   H00N14310   5.849   3.998   7.955
   21SBC   C08R14311   5.817   4.206   7.924
   21SBC   C08Q14312   5.943   4.246   7.975
   21SBC   H00O14313   6.012   4.171   8.012
   21SBC   C08P14314   5.982   4.384   7.985
   21SBC   C08O14315   6.107   4.424   8.048
   21SBC   H00P14316   6.183   4.352   8.075
   21SBC   C08N14317   6.132   4.560   8.062
   21SBC   C08M14318   6.259   4.597   8.122
   21SBC   O00814319   6.348   4.520   8.149
   21SBC   O00714320   6.281   4.733   8.145
   21SBC   C08H14321   6.189   4.825   8.098
   21SBC   C08G14322   6.210   4.960   8.119
   21SBC   C03V14323   6.322   5.013   8.176
   21SBC   H00914324   6.395   4.940   8.206
   21SBC   C03U14325   6.332   5.143   8.214
   21SBC   C03W14326   6.444   5.207   8.279
   21SBC   H00A14327   6.527   5.150   8.318
   21SBC   C03X14328   6.438   5.336   8.309
   21SBC   H00B14329   6.513   5.380   8.374
   21SBC   O00514330   6.329   5.414   8.284
   21SBC   C03O14331   6.218   5.361   8.225
   21SBC   C03N14332   6.107   5.439   8.199
   21SBC   O00014333   6.107   5.560   8.264
   21SBC   C01914334   6.007   5.647   8.232
   21SBC   C01814335   5.890   5.603   8.164
   21SBC   C01714336   5.880   5.474   8.116
   21SBC   C01614337   5.769   5.423   8.051
   21SBC   C01514338   5.667   5.519   8.036
   21SBC   C01414339   5.554   5.482   7.957
   21SBC   C01314340   5.541   5.353   7.909
   21SBC   C01214341   5.403   5.357   7.856
   21SBC   C01114342   5.357   5.492   7.879
   21SBC   C01014343   5.239   5.542   7.832
   21SBC   C00Z14344   5.178   5.659   7.859
   21SBC   C00Y14345   5.041   5.630   7.825
   21SBC   C01O14346   5.028   5.503   7.773
   21SBC   C01P14347   4.913   5.432   7.788
   21SBC   C02L14348   4.916   5.298   7.774
   21SBC   C02K14349   5.045   5.239   7.772
   21SBC   C01M14350   5.175   5.303   7.791
   21SBC   C02J14351   5.039   5.101   7.745
   21SBC   C02I14352   5.144   5.009   7.721
   21SBC   C02H14353   5.280   5.030   7.727
   21SBC   C01Q14354   5.350   5.134   7.774
   21SBC   C02G14355   5.484   5.091   7.794
   21SBC   C08914356   5.500   4.964   7.733
   21SBC   C08814357   5.604   4.889   7.788
   21SBC   C08714358   5.681   4.997   7.856
   21SBC   C08614359   5.808   4.975   7.916
   21SBC   C03S14360   5.888   5.071   7.982
   21SBC   N00614361   6.001   5.003   8.023
   21SBC   C08F14362   5.993   4.878   7.988
   21SBC   C01J14363   5.878   5.208   8.020
   21SBC   C03R14364   5.993   5.262   8.087
   21SBC   C03Q14365   6.104   5.179   8.124
   21SBC   C08E14366   5.873   4.850   7.930
   21SBC   C08D14367   5.837   4.712   7.892
   21SBC   C08K14368   5.918   4.618   7.957
   21SBC   C08C14369   5.724   4.666   7.825
   21SBC   C09114370   5.692   4.532   7.828
   21SBC   C09214371   5.771   4.433   7.883
   21SBC   C08B14372   5.618   4.741   7.772
   21SBC   C09014373   5.520   4.644   7.724
   21SBC   C09414374   5.388   4.672   7.672
   21SBC   C09514375   5.283   4.580   7.667
   21SBC   C09R14376   5.156   4.646   7.653
   21SBC   C09714377   5.181   4.783   7.653
   21SBC   C09614378   5.321   4.797   7.664
   21SBC   C01I14379   5.608   5.125   7.864
   21SBC   C08A14380   5.367   4.927   7.692
   21SBC   C09L14381   5.091   4.888   7.678
   21SBC   C09K14382   4.942   4.899   7.676
   21SBC   C09J14383   4.865   4.784   7.696
   21SBC   C09I14384   4.731   4.793   7.749
   21SBC   C09O14385   4.621   4.888   7.774
   21SBC   C09N14386   4.651   5.028   7.770
   21SBC   C09M14387   4.779   5.094   7.764
   21SBC   C06O14388   4.535   5.105   7.795
   21SBC   C05M14389   4.408   5.053   7.810
   21SBC   C06P14390   4.384   4.917   7.817
   21SBC   C04214391   4.297   5.135   7.829
   21SBC   C04114392   4.311   5.272   7.843
   21SBC   C04014393   4.200   5.351   7.880
   21SBC   C03Z14394   4.212   5.486   7.924
   21SBC   C03Y14395   4.338   5.539   7.927
   21SBC   C02714396   4.350   5.669   7.967
   21SBC   C02614397   4.476   5.724   7.962
   21SBC   C02814398   4.494   5.853   8.010
   21SBC   C02914399   4.386   5.918   8.062
   21SBC   C02B14400   4.402   6.042   8.119
   21SBC   C02C14401   4.296   6.115   8.165
   21SBC   C02X14402   4.320   6.229   8.235
   21SBC   C03E14403   4.212   6.292   8.290
   21SBC   C03G14404   4.083   6.250   8.291
   21SBC   C04Q14405   4.061   6.130   8.230
   21SBC   C04R14406   3.938   6.075   8.235
   21SBC   C04S14407   3.916   5.950   8.186
   21SBC   C04L14408   4.024   5.881   8.124
   21SBC   C04M14409   4.150   5.937   8.120
   21SBC   C04K14410   4.008   5.751   8.070
   21SBC   C04F14411   3.880   5.697   8.069
   21SBC   C04E14412   3.772   5.763   8.132
   21SBC   C04D14413   3.648   5.701   8.142
   21SBC   C05014414   3.554   5.750   8.228
   21SBC   C05114415   3.436   5.678   8.246
   21SBC   C05Q14416   3.337   5.735   8.324
   21SBC   C05V14417   3.217   5.668   8.338
   21SBC   N00514418   3.115   5.726   8.415
   21SBC   C07V14419   3.138   5.851   8.471
   21SBC   C08214420   3.043   5.901   8.562
   21SBC   C08114421   2.936   5.825   8.610
   21SBC   C07C14422   2.906   5.707   8.538
   21SBC   C07B14423   2.787   5.640   8.560
   21SBC   C08014424   2.693   5.683   8.657
   21SBC   C07Z14425   2.568   5.621   8.662
   21SBC   H00L14426   2.494   5.663   8.728
   21SBC   C07914427   2.539   5.510   8.584
   21SBC   C07814428   2.630   5.465   8.489
   21SBC   C07714429   2.598   5.356   8.407
   21SBC   C07X14430   2.471   5.297   8.410
   21SBC   H00I14431   2.428   5.214   8.357
   21SBC   C07Y14432   2.379   5.339   8.512
   21SBC   H00H14433   2.284   5.290   8.527
   21SBC   C07614434   2.697   5.302   8.329
   21SBC   C06C14435   2.667   5.203   8.237
   21SBC   H00C14436   2.572   5.157   8.213
   21SBC   C06F14437   2.824   5.359   8.324
   21SBC   C06E14438   2.927   5.298   8.250
   21SBC   C06G14439   3.055   5.357   8.234
   21SBC   C06H14440   3.073   5.476   8.298
   21SBC   C06I14441   2.978   5.535   8.376
   21SBC   C06L14442   3.145   5.290   8.148
   21SBC   C06M14443   3.115   5.171   8.073
   21SBC   C06K14444   3.264   5.361   8.125
   21SBC   C05S14445   3.290   5.486   8.191
   21SBC   C05U14446   3.367   5.304   8.050
   21SBC   C05X14447   3.347   5.175   7.997
   21SBC   C05G14448   3.477   5.124   7.948
   21SBC   C05F14449   3.586   5.206   7.923
   21SBC   C05E14450   3.698   5.138   7.876
   21SBC   C04814451   3.818   5.194   7.862
   21SBC   C05614452   3.926   5.109   7.854
   21SBC   C04514453   4.056   5.164   7.843
   21SBC   C04714454   3.829   5.327   7.902
   21SBC   C04914455   3.719   5.393   7.955
   21SBC   C04B14456   3.735   5.516   8.012
   21SBC   C04614457   3.956   5.377   7.906
   21SBC   C04H14458   3.971   5.506   7.957
   21SBC   C05D14459   3.670   5.005   7.875
   21SBC   C04A14460   3.594   5.336   7.969
   21SBC   C05T14461   3.487   5.378   8.037
   21SBC   C05514462   3.510   5.498   8.102
   21SBC   C06D14463   2.893   5.198   8.163
   21SBC   C07W14464   2.857   5.471   8.399
   21SBC   C08514465   2.415   5.451   8.598
   21SBC   H00M14466   2.342   5.495   8.664
   21SBC   C08414467   2.734   5.786   8.741
   21SBC   H00J14468   2.670   5.810   8.825
   21SBC   C07A14469   2.763   5.527   8.481
   21SBC   C08314470   2.844   5.863   8.712
   21SBC   H00K14471   2.876   5.951   8.765
   21SBC   O00K14472   3.050   6.028   8.610
   21SBC   C0GO14473   3.158   6.101   8.568
   21SBC   C0GN14474   3.168   6.230   8.615
   21SBC   H01L14475   3.090   6.270   8.678
   21SBC   C0GM14476   3.280   6.311   8.583
   21SBC   C0GL14477   3.288   6.442   8.624
   21SBC   H01M14478   3.216   6.497   8.684
   21SBC   O00J14479   3.393   6.528   8.590
   21SBC   C0GK14480   3.501   6.464   8.537
   21SBC   H01N14481   3.582   6.532   8.514
   21SBC   C05K14482   3.502   6.331   8.508
   21SBC   C05J14483   3.620   6.269   8.446
   21SBC   C04Y14484   3.754   6.321   8.445
   21SBC   C04X14485   3.861   6.256   8.377
   21SBC   O00614486   3.780   6.442   8.507
   21SBC   C05314487   3.909   6.501   8.511
   21SBC   C04O14488   4.013   6.436   8.442
   21SBC   C03C14489   4.152   6.471   8.445
   21SBC   C03B14490   4.234   6.575   8.514
   21SBC   C05414491   4.186   6.671   8.594
   21SBC   C0GR14492   4.271   6.775   8.641
   21SBC   C03M14493   4.416   6.806   8.656
   21SBC   C03I14494   4.524   6.725   8.593
   21SBC   C03J14495   4.659   6.749   8.624
   21SBC   N00214496   4.769   6.675   8.565
   21SBC   C02U14497   4.905   6.704   8.596
   21SBC   C02T14498   5.013   6.635   8.538
   21SBC   C02Z14499   5.140   6.659   8.578
   21SBC   N00114500   5.248   6.580   8.531
   21SBC   C02R14501   5.382   6.602   8.583
   21SBC   C03214502   5.402   6.695   8.688
   21SBC   C03114503   5.292   6.768   8.731
   21SBC   H00714504   5.307   6.843   8.807
   21SBC   C03314505   5.534   6.702   8.742
   21SBC   H00314506   5.561   6.781   8.811
   21SBC   O00414507   5.643   6.634   8.685
   21SBC   C03414508   5.618   6.548   8.579
   21SBC   C03514509   5.729   6.479   8.529
   21SBC   C03614510   5.711   6.390   8.420
   21SBC   H00514511   5.795   6.334   8.381
   21SBC   C03714512   5.582   6.374   8.368
   21SBC   H00614513   5.572   6.308   8.283
   21SBC   C00D14514   5.467   6.430   8.430
   21SBC   C00C14515   5.338   6.402   8.384
   21SBC   C00B14516   5.305   6.300   8.279
   21SBC   C00A14517   5.361   6.180   8.204
   21SBC   C00914518   5.258   6.146   8.112
   21SBC   C00814519   5.243   6.021   8.044
   21SBC   C00714520   5.348   5.930   8.049
   21SBC   C00614521   5.338   5.802   7.988
   21SBC   C00514522   5.455   5.714   7.994
   21SBC   C00414523   5.569   5.746   8.067
   21SBC   C00314524   5.567   5.870   8.136
   21SBC   C00214525   5.674   5.896   8.219
   21SBC   C01C14526   5.792   5.817   8.216
   21SBC   C01B14527   5.911   5.856   8.282
   21SBC   H00014528   5.922   5.950   8.335
   21SBC   C00114529   5.662   5.993   8.314
   21SBC   C00014530   5.544   6.064   8.324
   21SBC   C01U14531   5.537   6.100   8.460
   21SBC   H00214532   5.453   6.153   8.500
   21SBC   C01T14533   5.668   6.073   8.524
   21SBC   O00214534   5.704   6.088   8.642
   21SBC   O00114535   5.732   5.994   8.434
   21SBC   C01S14536   5.462   5.959   8.127
   21SBC   C00N14537   5.113   5.986   8.006
   21SBC   C00M14538   5.005   6.066   8.032
   21SBC   C00J14539   5.017   6.175   8.110
   21SBC   C00I14540   4.917   6.244   8.171
   21SBC   C00H14541   4.937   6.344   8.263
   21SBC   C00G14542   5.065   6.378   8.301
   21SBC   C00F14543   5.094   6.464   8.398
   21SBC   C01X14544   4.831   6.411   8.324
   21SBC   C01W14545   4.703   6.375   8.296
   21SBC   C01V14546   4.679   6.269   8.208
   21SBC   C02014547   4.553   6.210   8.194
   21SBC   C01Z14548   4.597   6.435   8.355
   21SBC   C02Y14549   4.477   6.390   8.327
   21SBC   C03914550   4.367   6.458   8.380
   21SBC   C02W14551   4.613   6.549   8.442
   21SBC   C01Y14552   4.855   6.517   8.415
   21SBC   C00U14553   4.788   6.202   8.149
   21SBC   C00S14554   4.771   6.086   8.073
   21SBC   C00T14555   4.642   6.034   8.071
   21SBC   C00R14556   4.877   6.017   8.017
   21SBC   C00Q14557   4.852   5.899   7.955
   21SBC   C00V14558   4.722   5.845   7.947
   21SBC   C02414559   4.703   5.712   7.897
   21SBC   C00X14560   4.810   5.642   7.845
   21SBC   C00P14561   4.962   5.826   7.911
   21SBC   C00O14562   5.096   5.864   7.947
   21SBC   C00K14563   5.146   6.217   8.139
   21SBC   N00014564   5.450   6.069   8.220
   21SBC   C00L14565   5.169   6.302   8.247
   21SBC   H00414566   5.827   6.488   8.574
   21SBC   C02Q14567   5.485   6.524   8.530
   21SBC   C00E14568   5.228   6.478   8.436
   21SBC   C03014569   5.167   6.752   8.676
   21SBC   O00314570   5.063   6.822   8.733
   21SBC   C02S14571   4.990   6.536   8.453
   21SBC   C03814572   4.934   6.810   8.691
   21SBC   C03L14573   4.830   6.883   8.744
   21SBC   H00814574   4.860   6.965   8.807
   21SBC   C02V14575   4.745   6.575   8.477
   21SBC   C03K14576   4.693   6.856   8.707
   21SBC   C0BK14577   4.582   6.934   8.750
   21SBC   H00T14578   4.611   7.018   8.812
   21SBC   C03H14579   4.508   6.620   8.502
   21SBC   C0BL14580   4.446   6.913   8.733
   21SBC   C0GU14581   4.349   6.992   8.797
   21SBC   H01O14582   4.373   7.073   8.864
   21SBC   C0GT14583   4.213   6.959   8.792
   21SBC   H01P14584   4.148   7.022   8.852
   21SBC   C0GS14585   4.177   6.857   8.709
   21SBC   C0GV14586   4.041   6.813   8.696
   21SBC   C0GW14587   3.926   6.845   8.770
   21SBC   H01Q14588   3.913   6.922   8.843
   21SBC   C0GX14589   3.817   6.773   8.737
   21SBC   H01R14590   3.724   6.795   8.787
   21SBC   O00L14591   3.808   6.666   8.649
   21SBC   C0GQ14592   4.045   6.692   8.620
   21SBC   C03A14593   4.375   6.562   8.474
   21SBC   C05L14594   3.926   6.618   8.593
   21SBC   C04W14595   3.608   6.132   8.396
   21SBC   C05I14596   3.494   6.064   8.411
   21SBC   C05O14597   3.383   6.121   8.471
   21SBC   C05214598   3.476   5.937   8.359
   21SBC   C04V14599   3.709   6.073   8.319
   21SBC   C04U14600   3.694   5.946   8.262
   21SBC   N00914601   3.389   6.250   8.523
   21SBC   C0GP14602   3.267   6.047   8.493
   21SBC   C05W14603   3.251   5.922   8.444
   21SBC   C07D14604   2.996   5.660   8.444
   21SBC   C06J14605   3.197   5.541   8.274
   21SBC   C05P14606   3.352   5.864   8.377
   21SBC   C05R14607   3.411   5.557   8.174
   21SBC   C04Z14608   3.572   5.876   8.286
   21SBC   C04C14609   3.627   5.570   8.086
   21SBC   C04G14610   3.860   5.575   8.007
   21SBC   C04J14611   4.117   5.680   8.020
   21SBC   C04T14612   3.795   5.884   8.193
   21SBC   N00314613   3.835   6.133   8.312
   21SBC   C04P14614   3.982   6.321   8.360
   21SBC   C03D14615   4.241   6.408   8.364
   21SBC   C02114616   4.450   6.277   8.249
   21SBC   C03F14617   4.167   6.062   8.170
   21SBC   C02214618   4.535   6.090   8.133
   21SBC   C02A14619   4.260   5.865   8.063
   21SBC   C02314620   4.620   5.911   8.008
   21SBC   C02514621   4.583   5.655   7.910
   21SBC   C02D14622   4.570   5.519   7.872
   21SBC   C02E14623   4.677   5.445   7.828
   21SBC   C02N14624   4.671   5.309   7.795
   21SBC   C04N14625   4.245   5.737   8.021
   21SBC   C02P14626   4.448   5.459   7.881
   21SBC   C04I14627   4.102   5.553   7.968
   21SBC   C04414628   4.070   5.296   7.874
   21SBC   C04314629   4.433   5.324   7.846
   21SBC   C05N14630   4.546   5.245   7.809
   21SBC   C09U14631   4.493   4.830   7.795
   21SBC   C09V14632   4.474   4.695   7.819
   21SBC   C09X14633   4.578   4.602   7.808
   21SBC   C09Y14634   4.573   4.466   7.839
   21SBC   C0A114635   4.450   4.417   7.864
   21SBC   C0A214636   4.338   4.501   7.861
   21SBC   C0A414637   4.216   4.443   7.878
   21SBC   C07114638   4.099   4.527   7.875
   21SBC   C0A514639   3.977   4.469   7.883
   21SBC   C0A914640   3.967   4.330   7.877
   21SBC   C0A814641   4.077   4.251   7.873
   21SBC   C0AP14642   4.067   4.116   7.851
   21SBC   C0BY14643   4.182   4.040   7.851
   21SBC   C0BX14644   4.312   4.087   7.865
   21SBC   C0C214645   4.422   4.006   7.838
   21SBC   C0C314646   4.553   4.059   7.855
   21SBC   C0CT14647   4.561   4.195   7.864
   21SBC   C0C114648   4.403   3.874   7.795
   21SBC   C0C014649   4.270   3.845   7.738
   21SBC   C0A714650   4.321   4.223   7.871
   21SBC   C0BZ14651   4.165   3.915   7.797
   21SBC   C0BO14652   4.046   3.867   7.745
   21SBC   C0BN14653   3.929   3.937   7.774
   21SBC   C0BM14654   3.812   3.885   7.715
   21SBC   C0B914655   3.698   3.961   7.724
   21SBC   C0B814656   3.709   4.085   7.781
   21SBC   C0AD14657   3.832   4.139   7.825
   21SBC   C0AF14658   3.597   4.164   7.787
   21SBC   C0AG14659   3.468   4.120   7.751
   21SBC   C0B714660   3.463   3.992   7.694
   21SBC   C0AE14661   3.612   4.291   7.828
   21SBC   C0AB14662   3.734   4.357   7.851
   21SBC   C0AA14663   3.745   4.491   7.868
   21SBC   C0AJ14664   3.502   4.369   7.833
   21SBC   C0AK14665   3.509   4.502   7.857
   21SBC   C06W14666   3.387   4.561   7.841
   21SBC   C0AI14667   3.368   4.336   7.805
   21SBC   C0BP14668   4.062   3.760   7.663
   21SBC   C0BQ14669   3.939   3.704   7.608
   21SBC   C0BW14670   3.947   4.064   7.818
   21SBC   C0AC14671   3.843   4.277   7.851
   21SBC   C0A614672   4.207   4.305   7.877
   21SBC   C0A314673   4.448   4.277   7.872
   21SBC   C09Z14674   4.685   4.387   7.819
   21SBC   C09W14675   4.352   4.640   7.841
   21SBC   C07214676   4.239   4.720   7.849
   21SBC   C09H14677   4.702   4.661   7.777
   21SBC   C09G14678   4.801   4.574   7.740
   21SBC   C09P14679   4.905   4.650   7.696
   21SBC   C02O14680   4.909   5.024   7.737
   21SBC   C02M14681   4.789   5.234   7.775
   21SBC   C02F14682   4.804   5.505   7.816
   21SBC   C00W14683   4.934   5.701   7.858
   21SBC   C01R14684   5.206   5.772   7.938
   21SBC   C01N14685   5.150   5.445   7.798
   21SBC   C01L14686   5.310   5.259   7.806
   21SBC   C01H14687   5.640   5.253   7.925
   21SBC   C01K14688   5.453   5.579   7.936
   21SBC   C01E14689   5.671   5.652   8.082
   21SBC   C01G14690   5.759   5.292   8.000
   21SBC   C01D14691   5.786   5.694   8.154
   21SBC   C01A14692   6.018   5.774   8.289
   21SBC   H00114693   6.112   5.803   8.334
   21SBC   C01F14694   5.990   5.396   8.135
   21SBC   C03P14695   6.219   5.228   8.192
   21SBC   C03T14696   6.113   5.049   8.084
   21SBC   C08I14697   6.075   4.786   8.034
   21SBC   C08J14698   6.039   4.656   8.015
   21SBC   C08L14699   5.889   4.479   7.944
   21SBC   C09314700   5.724   4.300   7.874
   21SBC   C08Z14701   5.567   4.507   7.763
   21SBC   C09T14702   5.290   4.111   7.819
   21SBC   C09S14703   5.281   4.443   7.686
   21SBC   C09Q14704   5.027   4.586   7.668
   21SBC   C09F14705   4.800   4.435   7.762
   21SBC   C09E14706   5.063   4.188   7.788
   21SBC   C0A014707   4.689   4.251   7.843
   21SBC   C0CU14708   4.664   3.972   7.849
   21SBC   C0CR14709   4.643   3.831   7.841
   21SBC   C0CZ14710   4.756   3.744   7.848
   21SBC   C0DA14711   5.137   4.069   7.830
   21SBC   C0D914712   5.198   3.740   7.771
   21SBC   H00V14713   5.264   3.788   7.700
   21SBC   C0CY14714   4.882   3.799   7.878
   21SBC   C0DF14715   5.158   3.607   7.761
   21SBC   C0DE14716   5.162   3.505   7.658
   21SBC   C0GI14717   5.265   3.438   7.587
   21SBC   H01K14718   5.365   3.476   7.603
   21SBC   C0GJ14719   5.237   3.338   7.500
   21SBC   H01J14720   5.310   3.284   7.442
   21SBC   O00I14721   5.105   3.289   7.496
   21SBC   C0GH14722   4.999   3.333   7.572
   21SBC   C0GG14723   4.877   3.273   7.548
   21SBC   O00G14724   4.877   3.181   7.447
   21SBC   C0G814725   4.766   3.138   7.390
   21SBC   C0G914726   4.795   3.046   7.286
   21SBC   H01G14727   4.898   3.014   7.274
   21SBC   C0GA14728   4.689   2.986   7.220
   21SBC   H01H14729   4.715   2.904   7.155
   21SBC   C0GB14730   4.554   3.025   7.237
   21SBC   C0EP14731   4.523   3.118   7.341
   21SBC   C0E814732   4.381   3.175   7.340
   21SBC   C0CK14733   4.306   3.278   7.406
   21SBC   C0CL14734   4.357   3.333   7.521
   21SBC   C0E914735   4.496   3.323   7.566
   21SBC   C0GE14736   4.630   3.275   7.523
   21SBC   C0E714737   4.282   3.118   7.261
   21SBC   C0CJ14738   4.155   3.169   7.279
   21SBC   C0E614739   4.047   3.092   7.233
   21SBC   H00Y14740   3.949   3.114   7.273
   21SBC   C0EO14741   4.084   2.983   7.146
   21SBC   H01114742   4.009   2.919   7.101
   21SBC   C0G614743   4.216   2.944   7.120
   21SBC   C0G514744   4.257   2.830   7.040
   21SBC   H01F14745   4.172   2.777   6.998
   21SBC   C0GD14746   4.384   2.794   7.017
   21SBC   H01I14747   4.408   2.704   6.963
   21SBC   O00H14748   4.491   2.865   7.075
   21SBC   C0EQ14749   4.322   3.007   7.182
   21SBC   C0GC14750   4.454   2.962   7.164
   21SBC   C0G714751   4.636   3.178   7.420
   21SBC   C0DD14752   5.031   3.446   7.652
   21SBC   C0GF14753   4.750   3.321   7.594
   21SBC   C0CO14754   4.496   3.396   7.685
   21SBC   C0D014755   4.727   3.609   7.817
   21SBC   C0C414756   4.512   3.782   7.808
   21SBC   C0CN14757   4.372   3.454   7.707
   21SBC   C0CP14758   4.200   3.741   7.664
   21SBC   C0CM14759   4.280   3.405   7.614
   21SBC   C0CI14760   4.166   3.290   7.360
   21SBC   C0CD14761   3.694   3.406   7.310
   21SBC   C0BR14762   3.947   3.595   7.515
   21SBC   C0CS14763   3.818   3.769   7.640
   21SBC   C0B614764   3.581   3.914   7.676
   21SBC   C0CG14765   3.583   3.574   7.432
   21SBC   C0CF14766   3.576   3.466   7.350
   21SBC   C0E514767   3.563   3.261   7.164
   21SBC   C0DT14768   3.325   3.161   7.076
   21SBC   C0DL14769   3.214   3.416   7.313
   21SBC   C0DM14770   3.093   3.474   7.350
   21SBC   C0DY14771   2.968   3.302   7.246
   21SBC   C0DU14772   3.203   3.104   7.053
   21SBC   C0F014773   3.078   2.959   6.906
   21SBC   C0F414774   2.848   2.934   6.762
   21SBC   C0FG14775   2.732   3.067   7.094
   21SBC   O00B14776   2.612   3.016   6.758
   21SBC   C0FN14777   2.611   3.117   7.116
   21SBC   C0DZ14778   2.847   3.241   7.216
   21SBC   O00C14779   2.615   3.496   7.326
   21SBC   C0FR14780   2.613   3.620   7.386
   21SBC   O00D14781   2.501   3.674   7.394
   21SBC   C0E014782   2.969   3.417   7.320
   21SBC   C0E314783   2.738   3.679   7.431
   21SBC   C0AW14784   2.744   3.804   7.490
   21SBC   C0AV14785   2.630   3.897   7.498
   21SBC   H00Q14786   2.532   3.879   7.458
   21SBC   C0AU14787   2.645   4.021   7.565
   21SBC   H00R14788   2.559   4.087   7.573
   21SBC   C0AT14789   2.770   4.052   7.622
   21SBC   C0AS14790   2.820   4.166   7.695
   21SBC   C0AR14791   2.740   4.284   7.721
   21SBC   C0BE14792   2.876   3.973   7.606
   21SBC   C0DN14793   3.097   3.590   7.426
   21SBC   C0AX14794   2.864   3.847   7.539
   21SBC   C0BB14795   3.220   3.766   7.538
   21SBC   C0BD14796   2.994   4.025   7.649
   21SBC   C0B214797   3.340   3.940   7.654
   21SBC   C0AH14798   3.349   4.205   7.754
   21SBC   C0BF14799   2.970   4.152   7.698
   21SBC   C0AL14800   3.290   4.456   7.830
   21SBC   C07U14801   2.934   4.442   7.785
   21SBC   C0AQ14802   2.802   4.408   7.748
   21SBC   C0BG14803   2.600   4.313   7.672
   21SBC   C0FY14804   2.406   4.596   7.755
   21SBC   C0BJ14805   2.478   4.262   7.736
   21SBC   H00S14806   2.473   4.162   7.777
   21SBC   C0FZ14807   2.287   4.563   7.809
   21SBC   C07S14808   2.477   4.708   7.807
   21SBC   C0G114809   2.190   4.857   7.988
   21SBC   C07K14810   2.420   5.148   7.968
   21SBC   C07H14811   2.603   4.941   7.921
   21SBC   C06B14812   2.770   5.158   8.155
   21SBC   C06N14813   2.976   5.126   8.080
   21SBC   C06614814   2.833   4.816   7.887
   21SBC   C06214815   3.136   4.744   7.874
   21SBC   C05Y14816   3.221   5.104   8.007
   21SBC   C06114817   3.266   4.774   7.822
   21SBC   C05H14818   3.533   5.003   7.906
   21SBC   C06V14819   3.381   4.692   7.839
   21SBC   C06Y14820   3.633   4.567   7.871
   21SBC   C05C14821   3.780   4.912   7.859
   21SBC   C06Z14822   3.865   4.551   7.873
   21SBC   C07014823   4.115   4.666   7.864
   21SBC   C05B14824   3.906   4.969   7.848
   21SBC   C05714825   4.164   5.079   7.835
   21SBC   C05914826   4.258   4.859   7.834
   22SBC   C05814827  10.490   8.114  13.103
   22SBC   C05A14828  10.581   8.130  13.208
   22SBC   C06Q14829  10.623   8.013  13.275
   22SBC   C06R14830  10.713   8.023  13.381
   22SBC   C06S14831  10.760   8.146  13.430
   22SBC   C06T14832  10.844   8.148  13.545
   22SBC   C06U14833  10.878   8.261  13.633
   22SBC   C06X14834  10.854   8.403  13.630
   22SBC   C06014835  10.902   8.462  13.752
   22SBC   C05Z14836  10.969   8.587  13.772
   22SBC   C06814837  11.054   8.552  13.889
   22SBC   C06714838  11.116   8.645  13.986
   22SBC   C06914839  11.100   8.792  13.980
   22SBC   C06A14840  11.113   8.889  14.079
   22SBC   C07314841  11.107   8.877  14.216
   22SBC   C07P14842  11.009   8.953  14.286
   22SBC   C07O14843  10.911   9.036  14.229
   22SBC   H00D14844  10.906   9.037  14.121
   22SBC   C07N14845  10.817   9.105  14.301
   22SBC   H00E14846  10.742   9.171  14.259
   22SBC   C07M14847  10.817   9.085  14.440
   22SBC   H00F14848  10.741   9.136  14.498
   22SBC   C07L14849  10.918   9.005  14.511
   22SBC   C07Q14850  10.924   8.983  14.655
   22SBC   H00G14851  10.855   9.032  14.722
   22SBC   O00F14852  11.015   8.899  14.715
   22SBC   C07J14853  11.111   8.844  14.631
   22SBC   C07I14854  11.112   8.867  14.488
   22SBC   N00414855  11.204   8.790  14.414
   22SBC   C07R14856  11.305   8.715  14.481
   22SBC   C07T14857  11.305   8.708  14.619
   22SBC   C0FX14858  11.390   8.633  14.694
   22SBC   C0FW14859  11.391   8.603  14.828
   22SBC   C0G014860  11.288   8.677  14.901
   22SBC   C0G214861  11.266   8.653  15.038
   22SBC   H01E14862  11.189   8.698  15.098
   22SBC   C0G314863  11.342   8.560  15.102
   22SBC   H01C14864  11.323   8.552  15.208
   22SBC   C0G414865  11.442   8.484  15.035
   22SBC   H01D14866  11.500   8.412  15.090
   22SBC   O00E14867  11.208   8.770  14.837
   22SBC   C0FV14868  11.468   8.505  14.895
   22SBC   C0FU14869  11.549   8.418  14.807
   22SBC   H01B14870  11.609   8.337  14.847
   22SBC   C0FT14871  11.562   8.451  14.669
   22SBC   C0FS14872  11.619   8.392  14.546
   22SBC   C0BI14873  11.601   8.479  14.437
   22SBC   C0BH14874  11.599   8.403  14.317
   22SBC   C07F14875  11.481   8.399  14.233
   22SBC   C07E14876  11.396   8.500  14.201
   22SBC   C07G14877  11.365   8.613  14.270
   22SBC   C07414878  11.247   8.663  14.215
   22SBC   C06514879  11.294   8.488  14.102
   22SBC   C06414880  11.267   8.356  14.051
   22SBC   C06314881  11.159   8.315  13.977
   22SBC   C07514882  11.170   8.166  13.976
   22SBC   C0AM14883  11.285   8.121  14.055
   22SBC   C0AN14884  11.334   7.983  14.080
   22SBC   C0AO14885  11.267   7.852  14.036
   22SBC   C0B114886  11.302   7.725  14.099
   22SBC   C0B014887  11.396   7.714  14.203
   22SBC   C0AZ14888  11.427   7.599  14.274
   22SBC   C0AY14889  11.520   7.604  14.374
   22SBC   N00714890  11.546   7.493  14.454
   22SBC   C0E214891  11.655   7.499  14.548
   22SBC   C0E114892  11.659   7.391  14.640
   22SBC   C0E414893  11.764   7.387  14.739
   22SBC   C0FF14894  11.757   7.290  14.842
   22SBC   C0FJ14895  11.850   7.263  14.947
   22SBC   C0FK14896  11.998   7.276  14.930
   22SBC   H01614897  12.042   7.328  14.846
   22SBC   C0FL14898  12.048   7.174  15.025
   22SBC   H01714899  12.151   7.148  15.044
   22SBC   C0FM14900  11.941   7.108  15.095
   22SBC   C0FH14901  11.897   6.983  15.153
   22SBC   C0FI14902  11.756   6.973  15.121
   22SBC   C0F314903  11.705   6.851  15.083
   22SBC   C0F214904  11.616   6.860  14.979
   22SBC   C0DW14905  11.583   6.968  14.904
   22SBC   C0FE14906  11.643   7.088  14.930
   22SBC   C0DV14907  11.505   6.961  14.789
   22SBC   C0DX14908  11.494   7.066  14.700
   22SBC   C0DK14909  11.424   7.046  14.580
   22SBC   C0DJ14910  11.371   6.921  14.543
   22SBC   C0DI14911  11.304   6.905  14.430
   22SBC   C0DH14912  11.279   7.017  14.348
   22SBC   C0DG14913  11.332   7.144  14.383
   22SBC   C0BV14914  11.319   7.248  14.297
   22SBC   C0BC14915  11.381   7.370  14.331
   22SBC   C0BA14916  11.230   7.240  14.191
   22SBC   C0B414917  11.207   7.354  14.113
   22SBC   C0B314918  11.262   7.481  14.149
   22SBC   C0B514919  11.120   7.347  14.010
   22SBC   C0BU14920  11.053   7.222  13.981
   22SBC   C0BT14921  11.074   7.110  14.059
   22SBC   C0BS14922  11.010   6.990  14.036
   22SBC   C0CC14923  11.045   6.873  14.109
   22SBC   C0CB14924  10.972   6.757  14.101
   22SBC   C0CH14925  11.029   6.636  14.155
   22SBC   C0DO14926  11.138   6.640  14.242
   22SBC   C0DP14927  11.184   6.529  14.310
   22SBC   C0EA14928  11.145   6.399  14.271
   22SBC   H01214929  11.086   6.385  14.181
   22SBC   O00914930  11.188   6.285  14.325
   22SBC   C0EH14931  11.261   6.298  14.436
   22SBC   C0EG14932  11.280   6.185  14.514
   22SBC   C0EJ14933  11.247   6.046  14.500
   22SBC   H01014934  11.203   6.009  14.409
   22SBC   C0EK14935  11.308   5.967  14.601
   22SBC   H00Z14936  11.304   5.860  14.611
   22SBC   C0EL14937  11.373   6.066  14.682
   22SBC   C0EM14938  11.471   6.053  14.788
   22SBC   C0EW14939  11.513   5.936  14.862
   22SBC   H01314940  11.468   5.839  14.846
   22SBC   C0EX14941  11.618   5.947  14.972
   22SBC   H01414942  11.659   5.862  15.023
   22SBC   C0F114943  11.671   6.076  15.005
   22SBC   C0EU14944  11.625   6.188  14.941
   22SBC   C0ET14945  11.654   6.320  14.970
   22SBC   C0ES14946  11.571   6.391  14.880
   22SBC   C0EE14947  11.493   6.308  14.790
   22SBC   C0ED14948  11.400   6.315  14.685
   22SBC   C0EC14949  11.364   6.435  14.617
   22SBC   C0EB14950  11.386   6.567  14.667
   22SBC   C0EN14951  11.456   6.594  14.799
   22SBC   C0ER14952  11.472   6.728  14.837
   22SBC   C0DS14953  11.355   6.683  14.591
   22SBC   C0DR14954  11.293   6.667  14.469
   22SBC   C0EY14955  11.535   6.524  14.899
   22SBC   C0EZ14956  11.602   6.616  14.988
   22SBC   C0F514957  11.724   6.607  15.072
   22SBC   C0F614958  11.791   6.487  15.108
   22SBC   N00814959  11.905   6.502  15.198
   22SBC   C0F714960  11.959   6.629  15.227
   22SBC   C0FQ14961  12.087   6.636  15.289
   22SBC   H01814962  12.129   6.733  15.314
   22SBC   C0FP14963  12.151   6.527  15.343
   22SBC   H01914964  12.236   6.552  15.404
   22SBC   C0FO14965  12.083   6.404  15.329
   22SBC   H01A14966  12.118   6.319  15.385
   22SBC   C0F814967  11.900   6.745  15.177
   22SBC   C0F914968  11.960   6.390  15.259
   22SBC   C0FA14969  11.907   6.255  15.238
   22SBC   H01514970  11.953   6.167  15.282
   22SBC   C0FB14971  11.804   6.239  15.141
   22SBC   C0FD14972  11.749   6.352  15.080
   22SBC   C0FC14973  11.770   6.102  15.111
   22SBC   O00A14974  11.816   6.005  15.172
   22SBC   C0EV14975  11.532   6.179  14.838
   22SBC   C0EF14976  11.345   6.194  14.627
   22SBC   C0EI14977  11.301   6.430  14.490
   22SBC   C0DQ14978  11.259   6.542  14.425
   22SBC   C0CE14979  11.179   6.770  14.280
   22SBC   H00U14980  10.964   6.549  14.151
   22SBC   C0CA14981  10.842   6.775  14.049
   22SBC   C0C914982  10.831   6.859  13.931
   22SBC   C0C814983  10.739   6.816  13.834
   22SBC   C0C714984  10.680   6.880  13.716
   22SBC   C0C614985  10.594   6.800  13.638
   22SBC   C0C514986  10.486   6.816  13.535
   22SBC   C0CQ14987  10.387   6.716  13.543
   22SBC   C0D114988  10.370   6.638  13.658
   22SBC   C0D814989  10.243   6.629  13.697
   22SBC   C0D714990  10.167   6.655  13.582
   22SBC   C0D614991  10.025   6.664  13.574
   22SBC   C0D514992   9.955   6.707  13.461
   22SBC   C0D414993   9.990   6.766  13.339
   22SBC   C0D314994   9.877   6.853  13.306
   22SBC   C0CX14995   9.926   6.966  13.235
   22SBC   C0CW14996  10.067   6.970  13.258
   22SBC   C0CV14997  10.176   7.062  13.229
   22SBC   C0D214998  10.158   7.165  13.125
   22SBC   C09D14999  10.063   7.164  13.017
   22SBC   C09C15000  10.060   7.273  12.923
   22SBC   C09B15001   9.960   7.286  12.823
   22SBC   C09A15002   9.868   7.177  12.812
   22SBC   C09915003   9.879   7.064  12.885
   22SBC   C09815004   9.746   7.021  12.909
   22SBC   C08Y15005   9.649   7.108  12.848
   22SBC   C08X15006   9.500   7.097  12.857
   22SBC   C08W15007   9.432   6.998  12.933
   22SBC   C08U15008   9.490   6.895  13.020
   22SBC   C08V15009   9.628   6.886  13.072
   22SBC   C0DC15010   9.622   6.757  13.134
   22SBC   H00W15011   9.713   6.726  13.182
   22SBC   C0DB15012   9.493   6.691  13.124
   22SBC   H00X15013   9.462   6.597  13.168
   22SBC   C08T15014   9.413   6.783  13.054
   22SBC   C08S15015   9.277   6.770  13.020
   22SBC   H00N15016   9.226   6.686  13.066
   22SBC   C08R15017   9.213   6.883  12.969
   22SBC   C08Q15018   9.069   6.897  12.966
   22SBC   H00O15019   9.009   6.821  13.014
   22SBC   C08P15020   8.996   7.008  12.927
   22SBC   C08O15021   8.853   7.021  12.939
   22SBC   H00P15022   8.784   6.946  12.974
   22SBC   C08N15023   8.789   7.144  12.903
   22SBC   C08M15024   8.648   7.163  12.919
   22SBC   O00815025   8.572   7.089  12.973
   22SBC   O00715026   8.595   7.274  12.872
   22SBC   C08H15027   8.669   7.379  12.827
   22SBC   C08G15028   8.611   7.504  12.790
   22SBC   C03V15029   8.482   7.544  12.803
   22SBC   H00915030   8.419   7.471  12.852
   22SBC   C03U15031   8.428   7.664  12.762
   22SBC   C03W15032   8.285   7.701  12.777
   22SBC   H00A15033   8.214   7.634  12.822
   22SBC   C03X15034   8.247   7.826  12.742
   22SBC   H00B15035   8.143   7.855  12.746
   22SBC   O00515036   8.341   7.925  12.700
   22SBC   C03O15037   8.470   7.887  12.675
   22SBC   C03N15038   8.564   7.989  12.633
   22SBC   O00015039   8.519   8.116  12.613
   22SBC   C01915040   8.600   8.211  12.566
   22SBC   C01815041   8.737   8.178  12.533
   22SBC   C01715042   8.791   8.048  12.562
   22SBC   C01615043   8.925   8.017  12.545
   22SBC   C01515044   9.003   8.128  12.505
   22SBC   C01415045   9.140   8.103  12.484
   22SBC   C01315046   9.206   7.982  12.518
   22SBC   C01215047   9.346   8.017  12.508
   22SBC   C01115048   9.348   8.148  12.454
   22SBC   C01015049   9.465   8.202  12.404
   22SBC   C00Z15050   9.490   8.333  12.383
   22SBC   C00Y15051   9.632   8.347  12.397
   22SBC   C01O15052   9.689   8.229  12.433
   22SBC   C01P15053   9.801   8.229  12.520
   22SBC   C02L15054   9.836   8.105  12.563
   22SBC   C02K15055   9.731   8.007  12.551
   22SBC   C01M15056   9.593   8.026  12.519
   22SBC   C02J15057   9.782   7.883  12.595
   22SBC   C02I15058   9.714   7.763  12.607
   22SBC   C02H15059   9.578   7.737  12.585
   22SBC   C01Q15060   9.462   7.819  12.565
   22SBC   C02G15061   9.348   7.742  12.567
   22SBC   C08915062   9.389   7.614  12.581
   22SBC   C08815063   9.291   7.531  12.637
   22SBC   C08715064   9.171   7.619  12.636
   22SBC   C08615065   9.038   7.574  12.661
   22SBC   C03S15066   8.923   7.659  12.662
   22SBC   N00615067   8.823   7.576  12.715
   22SBC   C08F15068   8.872   7.459  12.755
   22SBC   C01J15069   8.887   7.791  12.623
   22SBC   C03R15070   8.746   7.825  12.643
   22SBC   C03Q15071   8.651   7.728  12.688
   22SBC   C08E15072   9.009   7.452  12.724
   22SBC   C08D15073   9.087   7.338  12.766
   22SBC   C08K15074   9.008   7.231  12.825
   22SBC   C08C15075   9.227   7.314  12.750
   22SBC   C09115076   9.285   7.196  12.796
   22SBC   C09215077   9.213   7.097  12.865
   22SBC   C08B15078   9.324   7.398  12.700
   22SBC   C09015079   9.447   7.323  12.711
   22SBC   C09415080   9.582   7.369  12.671
   22SBC   C09515081   9.702   7.315  12.716
   22SBC   C09R15082   9.801   7.410  12.700
   22SBC   C09715083   9.749   7.534  12.659
   22SBC   C09615084   9.611   7.506  12.638
   22SBC   C01I15085   9.204   7.753  12.588
   22SBC   C08A15086   9.530   7.609  12.601
   22SBC   C09L15087   9.800   7.660  12.649
   22SBC   C09K15088   9.927   7.718  12.670
   22SBC   C09J15089  10.034   7.654  12.734
   22SBC   C09I15090  10.133   7.717  12.814
   22SBC   C09O15091  10.179   7.853  12.836
   22SBC   C09N15092  10.125   7.969  12.770
   22SBC   C09M15093  10.009   7.972  12.681
   22SBC   C06O15094  10.188   8.092  12.804
   22SBC   C05M15095  10.292   8.099  12.898
   22SBC   C06P15096  10.337   7.981  12.972
   22SBC   C04215097  10.353   8.222  12.932
   22SBC   C04115098  10.309   8.343  12.871
   22SBC   C04015099  10.358   8.469  12.910
   22SBC   C03Z15100  10.304   8.591  12.867
   22SBC   C03Y15101  10.204   8.586  12.775
   22SBC   C02715102  10.158   8.706  12.716
   22SBC   C02615103  10.041   8.705  12.640
   22SBC   C02815104   9.978   8.819  12.601
   22SBC   C02915105  10.030   8.938  12.638
   22SBC   C02B15106   9.968   9.052  12.603
   22SBC   C02C15107  10.019   9.179  12.646
   22SBC   C02X15108   9.952   9.294  12.612
   22SBC   C03E15109  10.001   9.410  12.661
   22SBC   C03G15110  10.096   9.424  12.760
   22SBC   C04Q15111  10.164   9.307  12.793
   22SBC   C04R15112  10.261   9.315  12.883
   22SBC   C04S15113  10.328   9.196  12.922
   22SBC   C04L15114  10.292   9.075  12.863
   22SBC   C04M15115  10.186   9.065  12.770
   22SBC   C04K15116  10.351   8.952  12.903
   22SBC   C04F15117  10.446   8.957  13.004
   22SBC   C04E15118  10.474   9.076  13.071
   22SBC   C04D15119  10.559   9.080  13.178
   22SBC   C05015120  10.602   9.200  13.235
   22SBC   C05115121  10.700   9.201  13.332
   22SBC   C05Q15122  10.745   9.319  13.387
   22SBC   C05V15123  10.844   9.320  13.484
   22SBC   N00515124  10.900   9.442  13.520
   22SBC   C07V15125  10.854   9.563  13.465
   22SBC   C08215126  10.923   9.680  13.491
   22SBC   C08115127  11.021   9.696  13.588
   22SBC   C07C15128  11.057   9.578  13.657
   22SBC   C07B15129  11.136   9.587  13.776
   22SBC   C08015130  11.189   9.705  13.822
   22SBC   C07Z15131  11.267   9.708  13.937
   22SBC   H00L15132  11.300   9.801  13.979
   22SBC   C07915133  11.301   9.594  14.004
   22SBC   C07815134  11.241   9.475  13.964
   22SBC   C07715135  11.253   9.357  14.038
   22SBC   C07X15136  11.331   9.362  14.160
   22SBC   H00I15137  11.351   9.268  14.210
   22SBC   C07Y15138  11.401   9.475  14.199
   22SBC   H00H15139  11.458   9.482  14.291
   22SBC   C07615140  11.196   9.242  13.996
   22SBC   C06C15141  11.183   9.134  14.087
   22SBC   H00C15142  11.200   9.123  14.193
   22SBC   C06F15143  11.139   9.233  13.872
   22SBC   C06E15144  11.089   9.115  13.819
   22SBC   C06G15145  11.011   9.091  13.706
   22SBC   C06H15146  10.991   9.209  13.639
   22SBC   C06I15147  11.037   9.337  13.686
   22SBC   C06L15148  10.966   8.962  13.666
   22SBC   C06M15149  10.997   8.841  13.739
   22SBC   C06K15150  10.883   8.958  13.550
   22SBC   C05S15151  10.843   9.080  13.489
   22SBC   C05U15152  10.837   8.834  13.500
   22SBC   C05X15153  10.871   8.710  13.566
   22SBC   C05G15154  10.822   8.598  13.489
   22SBC   C05F15155  10.759   8.614  13.369
   22SBC   C05E15156  10.716   8.493  13.321
   22SBC   C04815157  10.634   8.486  13.209
   22SBC   C05615158  10.590   8.363  13.173
   22SBC   C04515159  10.496   8.355  13.067
   22SBC   C04715160  10.596   8.603  13.154
   22SBC   C04915161  10.638   8.727  13.204
   22SBC   C04B15162  10.589   8.846  13.157
   22SBC   C04615163  10.499   8.599  13.053
   22SBC   C04H15164  10.452   8.718  13.004
   22SBC   C05D15165  10.754   8.391  13.403
   22SBC   C04A15166  10.719   8.737  13.312
   22SBC   C05T15167  10.759   8.844  13.381
   22SBC   C05515168  10.711   8.962  13.329
   22SBC   C06D15169  11.113   9.002  13.897
   22SBC   C07W15170  11.115   9.348  13.801
   22SBC   C08515171  11.382   9.589  14.121
   22SBC   H00M15172  11.439   9.677  14.146
   22SBC   C08415173  11.157   9.822  13.752
   22SBC   H00J15174  11.217   9.909  13.775
   22SBC   C07A15175  11.163   9.471  13.848
   22SBC   C08315176  11.081   9.816  13.635
   22SBC   H00K15177  11.067   9.910  13.583
   22SBC   O00K15178  10.876   9.803  13.445
   22SBC   C0GO15179  10.762   9.801  13.369
   22SBC   C0GN15180  10.717   9.918  13.310
   22SBC   H01L15181  10.765  10.012  13.336
   22SBC   C0GM15182  10.606   9.922  13.216
   22SBC   C0GL15183  10.560  10.042  13.167
   22SBC   H01M15184  10.616  10.131  13.193
   22SBC   O00J15185  10.466  10.047  13.067
   22SBC   C0GK15186  10.405   9.926  13.043
   22SBC   H01N15187  10.344   9.924  12.954
   22SBC   C05K15188  10.440   9.809  13.099
   22SBC   C05J15189  10.381   9.685  13.055
   22SBC   C04Y15190  10.264   9.672  12.973
   22SBC   C04X15191  10.229   9.551  12.911
   22SBC   O00615192  10.180   9.777  12.960
   22SBC   C05315193  10.074   9.779  12.872
   22SBC   C04O15194  10.044   9.663  12.797
   22SBC   C03C15195   9.935   9.647  12.700
   22SBC   C03B15196   9.820   9.719  12.661
   22SBC   C05415197   9.787   9.846  12.713
   22SBC   C0GR15198   9.669   9.916  12.671
   22SBC   C03M15199   9.549   9.890  12.586
   22SBC   C03I15200   9.516   9.760  12.529
   22SBC   C03J15201   9.391   9.752  12.463
   22SBC   N00215202   9.341   9.627  12.411
   22SBC   C02U15203   9.215   9.606  12.350
   22SBC   C02T15204   9.166   9.481  12.310
   22SBC   C02Z15205   9.042   9.466  12.257
   22SBC   N00115206   8.986   9.340  12.226
   22SBC   C02R15207   8.854   9.328  12.169
   22SBC   C03215208   8.775   9.445  12.149
   22SBC   C03115209   8.836   9.569  12.175
   22SBC   H00715210   8.776   9.656  12.150
   22SBC   C03315211   8.642   9.421  12.094
   22SBC   H00315212   8.580   9.509  12.081
   22SBC   O00415213   8.588   9.298  12.065
   22SBC   C03415214   8.677   9.191  12.074
   22SBC   C03515215   8.629   9.069  12.029
   22SBC   C03615216   8.708   8.957  12.046
   22SBC   H00515217   8.665   8.861  12.020
   22SBC   C03715218   8.829   8.965  12.107
   22SBC   H00615219   8.880   8.870  12.115
   22SBC   C00D15220   8.884   9.085  12.157
   22SBC   C00C15221   9.011   9.097  12.214
   22SBC   C00B15222   9.092   8.979  12.247
   22SBC   C00A15223   9.095   8.831  12.244
   22SBC   C00915224   9.232   8.794  12.252
   22SBC   C00815225   9.288   8.681  12.309
   22SBC   C00715226   9.203   8.569  12.324
   22SBC   C00615227   9.265   8.448  12.366
   22SBC   C00515228   9.176   8.341  12.406
   22SBC   C00415229   9.037   8.361  12.423
   22SBC   C00315230   8.983   8.487  12.389
   22SBC   C00215231   8.852   8.517  12.421
   22SBC   C01C15232   8.771   8.410  12.467
   22SBC   C01B15233   8.631   8.436  12.488
   22SBC   H00015234   8.584   8.530  12.461
   22SBC   C00115235   8.807   8.649  12.416
   22SBC   C00015236   8.892   8.746  12.364
   22SBC   C01U15237   8.838   8.870  12.402
   22SBC   H00215238   8.875   8.972  12.405
   22SBC   C01T15239   8.710   8.836  12.478
   22SBC   O00215240   8.614   8.905  12.530
   22SBC   O00115241   8.705   8.702  12.483
   22SBC   C01S15242   9.066   8.593  12.335
   22SBC   C00N15243   9.424   8.677  12.335
   22SBC   C00M15244   9.496   8.799  12.344
   22SBC   C00J15245   9.433   8.916  12.310
   22SBC   C00I15246   9.484   9.041  12.338
   22SBC   C00H15247   9.410   9.156  12.326
   22SBC   C00G15248   9.280   9.147  12.282
   22SBC   C00F15249   9.193   9.252  12.286
   22SBC   C01X15250   9.459   9.276  12.365
   22SBC   C01W15251   9.585   9.286  12.419
   22SBC   C01V15252   9.663   9.168  12.427
   22SBC   C02015253   9.782   9.165  12.495
   22SBC   C01Z15254   9.632   9.407  12.463
   22SBC   C02Y15255   9.754   9.401  12.517
   22SBC   C03915256   9.809   9.524  12.565
   22SBC   C02W15257   9.553   9.526  12.467
   22SBC   C01Y15258   9.376   9.388  12.370
   22SBC   C00U15259   9.611   9.048  12.389
   22SBC   C00S15260   9.677   8.928  12.427
   22SBC   C00T15261   9.801   8.932  12.483
   22SBC   C00R15262   9.620   8.809  12.396
   22SBC   C00Q15263   9.686   8.693  12.425
   22SBC   C00V15264   9.812   8.694  12.482
   22SBC   C02415265   9.878   8.580  12.521
   22SBC   C00X15266   9.822   8.462  12.488
   22SBC   C00P15267   9.626   8.572  12.400
   22SBC   C00O15268   9.490   8.563  12.365
   22SBC   C00K15269   9.305   8.909  12.268
   22SBC   N00015270   9.015   8.726  12.312
   22SBC   C00L15271   9.225   9.020  12.258
   22SBC   H00415272   8.529   9.071  11.988
   22SBC   C02Q15273   8.807   9.203  12.134
   22SBC   C00E15274   9.066   9.225  12.241
   22SBC   C03015275   8.964   9.580  12.228
   22SBC   O00315276   9.015   9.702  12.258
   22SBC   C02S15277   9.247   9.375  12.324
   22SBC   C03815278   9.135   9.717  12.326
   22SBC   C03L15279   9.183   9.843  12.373
   22SBC   H00815280   9.129   9.933  12.351
   22SBC   C02V15281   9.424   9.513  12.412
   22SBC   C03K15282   9.303   9.861  12.443
   22SBC   C0BK15283   9.349   9.978  12.493
   22SBC   H00T15284   9.279  10.059  12.473
   22SBC   C03H15285   9.601   9.647  12.522
   22SBC   C0BL15286   9.466   9.999  12.569
   22SBC   C0GU15287   9.502  10.123  12.615
   22SBC   H01O15288   9.436  10.204  12.588
   22SBC   C0GT15289   9.618  10.151  12.690
   22SBC   H01P15290   9.644  10.250  12.723
   22SBC   C0GS15291   9.695  10.043  12.723
   22SBC   C0GV15292   9.819  10.050  12.797
   22SBC   C0GW15293   9.879  10.165  12.861
   22SBC   H01Q15294   9.830  10.261  12.862
   22SBC   C0GX15295  10.002  10.139  12.914
   22SBC   H01R15296  10.051  10.229  12.949
   22SBC   O00L15297  10.067  10.016  12.916
   22SBC   C0GQ15298   9.880   9.922  12.795
   22SBC   C03A15299   9.734   9.644  12.576
   22SBC   C05L15300  10.001   9.902  12.864
   22SBC   C04W15301  10.445   9.561  13.091
   22SBC   C05I15302  10.552   9.561  13.183
   22SBC   C05O15303  10.608   9.679  13.228
   22SBC   C05215304  10.597   9.442  13.232
   22SBC   C04V15305  10.400   9.440  13.038
   22SBC   C04U15306  10.454   9.317  13.084
   22SBC   N00915307  10.554   9.801  13.181
   22SBC   C0GP15308  10.708   9.678  13.328
   22SBC   C05W15309  10.749   9.562  13.380
   22SBC   C07D15310  11.011   9.452  13.615
   22SBC   C06J15311  10.898   9.204  13.535
   22SBC   C05P15312  10.697   9.442  13.333
   22SBC   C05R15313  10.750   9.082  13.386
   22SBC   C04Z15314  10.548   9.319  13.185
   22SBC   C04C15315  10.623   8.964  13.219
   22SBC   C04G15316  10.496   8.839  13.055
   22SBC   C04J15317  10.307   8.829  12.856
   22SBC   C04T15318  10.416   9.197  13.026
   22SBC   N00315319  10.296   9.438  12.945
   22SBC   C04P15320  10.122   9.547  12.818
   22SBC   C03D15321   9.930   9.524  12.634
   22SBC   C02115322   9.833   9.291  12.539
   22SBC   C03F15323  10.123   9.185  12.735
   22SBC   C02215324   9.856   9.053  12.516
   22SBC   C02A15325  10.142   8.944  12.721
   22SBC   C02315326   9.866   8.814  12.520
   22SBC   C02515327   9.989   8.578  12.609
   22SBC   C02D15328  10.049   8.462  12.649
   22SBC   C02E15329   9.995   8.337  12.606
   22SBC   C02N15330  10.039   8.212  12.657
   22SBC   C04N15331  10.204   8.830  12.762
   22SBC   C02P15332  10.158   8.459  12.736
   22SBC   C04I15333  10.352   8.713  12.911
   22SBC   C04415334  10.451   8.475  13.006
   22SBC   C04315335  10.203   8.333  12.788
   22SBC   C05N15336  10.140   8.212  12.749
   22SBC   C09U15337  10.281   7.862  12.937
   22SBC   C09V15338  10.324   7.746  13.013
   22SBC   C09X15339  10.277   7.624  12.990
   22SBC   C09Y15340  10.302   7.505  13.065
   22SBC   C0A115341  10.393   7.513  13.166
   22SBC   C0A215342  10.456   7.638  13.181
   22SBC   C0A415343  10.558   7.648  13.274
   22SBC   C07115344  10.614   7.772  13.298
   22SBC   C0A515345  10.710   7.779  13.400
   22SBC   C0A915346  10.751   7.666  13.476
   22SBC   C0A815347  10.694   7.545  13.446
   22SBC   C0AP15348  10.721   7.431  13.521
   22SBC   C0BY15349  10.655   7.317  13.500
   22SBC   C0BX15350  10.555   7.300  13.408
   22SBC   C0C215351  10.487   7.175  13.396
   22SBC   C0C315352  10.381   7.168  13.304
   22SBC   C0CT15353  10.348   7.279  13.224
   22SBC   C0C115354  10.516   7.060  13.476
   22SBC   C0C015355  10.620   7.081  13.577
   22SBC   C0A715356  10.523   7.411  13.332
   22SBC   C0BZ15357  10.679   7.210  13.587
   22SBC   C0BO15358  10.782   7.219  13.680
   22SBC   C0BN15359  10.854   7.337  13.695
   22SBC   C0BM15360  10.946   7.332  13.798
   22SBC   C0B915361  10.998   7.455  13.834
   22SBC   C0B815362  10.968   7.569  13.760
   22SBC   C0AD15363  10.882   7.560  13.649
   22SBC   C0AF15364  11.028   7.692  13.792
   22SBC   C0AG15365  11.112   7.704  13.899
   22SBC   C0B715366  11.142   7.587  13.970
   22SBC   C0AE15367  10.992   7.798  13.714
   22SBC   C0AB15368  10.901   7.791  13.608
   22SBC   C0AA15369  10.853   7.907  13.544
   22SBC   C0AJ15370  11.041   7.920  13.746
   22SBC   C0AK15371  10.998   8.030  13.683
   22SBC   C06W15372  11.036   8.130  13.765
   22SBC   C0AI15373  11.121   7.943  13.857
   22SBC   C0BP15374  10.793   7.098  13.747
   22SBC   C0BQ15375  10.894   7.096  13.851
   22SBC   C0BW15376  10.817   7.439  13.618
   22SBC   C0AC15377  10.845   7.671  13.578
   22SBC   C0A615378  10.594   7.534  13.349
   22SBC   C0A315379  10.422   7.401  13.240
   22SBC   C09Z15380  10.231   7.386  13.045
   22SBC   C09W15381  10.421   7.752  13.110
   22SBC   C07215382  10.478   7.872  13.135
   22SBC   C09H15383  10.181   7.614  12.896
   22SBC   C09G15384  10.119   7.492  12.867
   22SBC   C09P15385  10.027   7.510  12.768
   22SBC   C02O15386   9.918   7.857  12.647
   22SBC   C02M15387   9.967   8.094  12.629
   22SBC   C02F15388   9.878   8.343  12.533
   22SBC   C00W15389   9.701   8.467  12.424
   22SBC   C01R15390   9.412   8.451  12.362
   22SBC   C01N15391   9.582   8.142  12.444
   22SBC   C01L15392   9.473   7.953  12.540
   22SBC   C01H15393   9.127   7.868  12.563
   22SBC   C01K15394   9.226   8.211  12.444
   22SBC   C01E15395   8.954   8.254  12.468
   22SBC   C01G15396   8.983   7.890  12.582
   22SBC   C01D15397   8.819   8.279  12.485
   22SBC   C01A15398   8.543   8.338  12.544
   22SBC   H00115399   8.441   8.361  12.568
   22SBC   C01F15400   8.701   7.956  12.607
   22SBC   C03P15401   8.519   7.758  12.705
   22SBC   C03T15402   8.690   7.605  12.735
   22SBC   C08I15403   8.800   7.356  12.810
   22SBC   C08J15404   8.869   7.244  12.846
   22SBC   C08L15405   9.072   7.110  12.876
   22SBC   C09315406   9.288   6.988  12.921
   22SBC   C08Z15407   9.420   7.198  12.790
   22SBC   C09T15408   9.739   6.968  13.041
   22SBC   C09S15409   9.733   7.202  12.787
   22SBC   C09Q15410   9.934   7.404  12.747
   22SBC   C09F15411  10.140   7.376  12.947
   22SBC   C09E15412   9.951   7.072  13.005
   22SBC   C0A015413  10.245   7.273  13.131
   22SBC   C0CU15414  10.295   7.055  13.302
   22SBC   C0CR15415  10.323   6.940  13.388
   22SBC   C0CZ15416  10.225   6.831  13.397
   22SBC   C0DA15417   9.875   6.988  13.103
   22SBC   C0D915418   9.780   6.846  13.412
   22SBC   H00V15419   9.708   6.923  13.437
   22SBC   C0CY15420  10.101   6.859  13.340
   22SBC   C0DF15421   9.821   6.738  13.503
   22SBC   C0DE15422   9.804   6.687  13.639
   22SBC   C0GI15423   9.686   6.663  13.712
   22SBC   H01K15424   9.583   6.682  13.685
   22SBC   C0GJ15425   9.711   6.620  13.839
   22SBC   H01J15426   9.627   6.615  13.907
   22SBC   O00I15427   9.837   6.599  13.896
   22SBC   C0GH15428   9.950   6.601  13.818
   22SBC   C0GG15429  10.068   6.586  13.885
   22SBC   O00G15430  10.048   6.556  14.016
   22SBC   C0G815431  10.149   6.561  14.106
   22SBC   C0G915432  10.108   6.535  14.228
   22SBC   H01G15433  10.003   6.530  14.254
   22SBC   C0GA15434  10.199   6.518  14.329
   22SBC   H01H15435  10.159   6.482  14.422
   22SBC   C0GB15436  10.338   6.548  14.308
   22SBC   C0EP15437  10.377   6.588  14.176
   22SBC   C0E815438  10.515   6.632  14.162
   22SBC   C0CK15439  10.600   6.686  14.064
   22SBC   C0CL15440  10.575   6.663  13.933
   22SBC   C0E915441  10.445   6.624  13.880
   22SBC   C0GE15442  10.309   6.606  13.933
   22SBC   C0E715443  10.604   6.615  14.274
   22SBC   C0CJ15444  10.735   6.660  14.255
   22SBC   C0E615445  10.823   6.672  14.362
   22SBC   H00Y15446  10.916   6.728  14.357
   22SBC   C0EO15447  10.779   6.617  14.482
   22SBC   H01115448  10.835   6.619  14.574
   22SBC   C0G615449  10.653   6.565  14.506
   22SBC   C0G515450  10.598   6.513  14.632
   22SBC   H01F15451  10.656   6.516  14.723
   22SBC   C0GD15452  10.468   6.476  14.641
   22SBC   H01I15453  10.426   6.445  14.735
   22SBC   O00H15454  10.380   6.485  14.539
   22SBC   C0EQ15455  10.561   6.571  14.398
   22SBC   C0GC15456  10.427   6.533  14.419
   22SBC   C0G715457  10.285   6.593  14.069
   22SBC   C0DD15458   9.936   6.641  13.685
   22SBC   C0GF15459  10.202   6.607  13.832
   22SBC   C0CO15460  10.472   6.633  13.746
   22SBC   C0D015461  10.255   6.730  13.493
   22SBC   C0C415462  10.446   6.938  13.465
   22SBC   C0CN15463  10.598   6.679  13.714
   22SBC   C0CP15464  10.693   7.014  13.680
   22SBC   C0CM15465  10.677   6.686  13.829
   22SBC   C0CI15466  10.733   6.708  14.117
   22SBC   C0CD15467  11.146   6.885  14.202
   22SBC   C0BR15468  10.917   6.981  13.929
   22SBC   C0CS15469  10.966   7.216  13.872
   22SBC   C0B615470  11.087   7.463  13.938
   22SBC   C0CG15471  11.169   7.119  14.160
   22SBC   C0CF15472  11.196   7.004  14.234
   22SBC   C0E515473  11.261   6.779  14.389
   22SBC   C0DT15474  11.391   6.813  14.631
   22SBC   C0DL15475  11.408   7.156  14.499
   22SBC   C0DM15476  11.487   7.270  14.519
   22SBC   C0DY15477  11.576   7.179  14.719
   22SBC   C0DU15478  11.446   6.840  14.751
   22SBC   C0F015479  11.557   6.742  14.947
   22SBC   C0F415480  11.775   6.731  15.110
   22SBC   C0FG15481  11.723   7.091  15.045
   22SBC   O00B15482  11.964   6.871  15.186
   22SBC   C0FN15483  11.825   7.176  15.052
   22SBC   C0DZ15484  11.658   7.190  14.831
   22SBC   O00C15485  11.854   7.485  14.730
   22SBC   C0FR15486  11.845   7.598  14.653
   22SBC   O00D15487  11.926   7.682  14.685
   22SBC   C0E015488  11.574   7.279  14.630
   22SBC   C0E315489  11.731   7.612  14.563
   22SBC   C0AW15490  11.707   7.721  14.480
   22SBC   C0AV15491  11.771   7.854  14.494
   22SBC   H00Q15492  11.843   7.870  14.573
   22SBC   C0AU15493  11.744   7.962  14.409
   22SBC   H00R15494  11.793   8.055  14.434
   22SBC   C0AT15495  11.628   7.956  14.327
   22SBC   C0AS15496  11.539   8.042  14.251
   22SBC   C0AR15497  11.549   8.180  14.258
   22SBC   C0BE15498  11.568   7.830  14.319
   22SBC   C0DN15499  11.468   7.376  14.431
   22SBC   C0AX15500  11.596   7.718  14.406
   22SBC   C0BB15501  11.357   7.487  14.251
   22SBC   C0BD15502  11.466   7.833  14.231
   22SBC   C0B215503  11.239   7.598  14.071
   22SBC   C0AH15504  11.169   7.832  13.938
   22SBC   C0BF15505  11.441   7.960  14.177
   22SBC   C0AL15506  11.122   8.086  13.870
   22SBC   C07U15507  11.344   8.241  14.097
   22SBC   C0AQ15508  11.458   8.264  14.187
   22SBC   C0BG15509  11.622   8.267  14.354
   22SBC   C0FY15510  11.503   8.574  14.477
   22SBC   C0BJ15511  11.617   8.262  14.496
   22SBC   H00S15512  11.601   8.173  14.556
   22SBC   C0FZ15513  11.496   8.565  14.617
   22SBC   C07S15514  11.400   8.638  14.403
   22SBC   C0G115515  11.211   8.776  14.697
   22SBC   C07K15516  11.016   8.948  14.427
   22SBC   C07H15517  11.189   8.782  14.271
   22SBC   C06B15518  11.145   9.015  14.028
   22SBC   C06N15519  11.074   8.871  13.863
   22SBC   C06615520  11.211   8.603  14.091
   22SBC   C06215521  11.074   8.406  13.897
   22SBC   C05Y15522  10.936   8.712  13.696
   22SBC   C06115523  10.966   8.361  13.824
   22SBC   C05H15524  10.824   8.461  13.509
   22SBC   C06V15525  10.964   8.248  13.743
   22SBC   C06Y15526  10.892   8.026  13.589
   22SBC   C05C15527  10.714   8.258  13.364
   22SBC   C06Z15528  10.762   7.904  13.435
   22SBC   C07015529  10.569   7.886  13.237
   22SBC   C05B15530  10.633   8.251  13.246
   22SBC   C05715531  10.446   8.233  13.032
   22SBC   C05915532  10.437   7.988  13.067
   23SBC   C05815533   5.993  11.592   9.538
   23SBC   C05A15534   6.043  11.685   9.635
   23SBC   C06Q15535   6.177  11.734   9.624
   23SBC   C06R15536   6.220  11.837   9.708
   23SBC   C06S15537   6.136  11.905   9.806
   23SBC   C06T15538   6.185  12.016   9.880
   23SBC   C06U15539   6.109  12.114   9.961
   23SBC   C06X15540   5.983  12.110  10.029
   23SBC   C06015541   5.954  12.245  10.074
   23SBC   C05Z15542   5.882  12.286  10.189
   23SBC   C06815543   5.968  12.396  10.247
   23SBC   C06715544   5.951  12.465  10.376
   23SBC   C06915545   5.828  12.439  10.453
   23SBC   C06A15546   5.798  12.484  10.587
   23SBC   C07315547   5.887  12.460  10.691
   23SBC   C07P15548   5.850  12.387  10.811
   23SBC   C07O15549   5.716  12.333  10.835
   23SBC   H00D15550   5.622  12.352  10.785
   23SBC   C07N15551   5.695  12.239  10.933
   23SBC   H00E15552   5.600  12.192  10.954
   23SBC   C07M15553   5.803  12.203  11.017
   23SBC   H00F15554   5.789  12.125  11.090
   23SBC   C07L15555   5.930  12.260  11.004
   23SBC   C07Q15556   6.044  12.222  11.085
   23SBC   H00G15557   6.047  12.153  11.168
   23SBC   O00F15558   6.171  12.272  11.058
   23SBC   C07J15559   6.186  12.367  10.961
   23SBC   C07I15560   6.076  12.410  10.888
   23SBC   N00415561   6.090  12.512  10.784
   23SBC   C07R15562   6.215  12.586  10.783
   23SBC   C07T15563   6.321  12.531  10.854
   23SBC   C0FX15564   6.443  12.588  10.849
   23SBC   C0FW15565   6.558  12.523  10.884
   23SBC   C0G015566   6.546  12.399  10.948
   23SBC   C0G215567   6.657  12.321  10.975
   23SBC   H01E15568   6.637  12.223  11.016
   23SBC   C0G315569   6.785  12.355  10.938
   23SBC   H01C15570   6.879  12.302  10.941
   23SBC   C0G415571   6.797  12.486  10.875
   23SBC   H01D15572   6.891  12.517  10.832
   23SBC   O00E15573   6.420  12.353  10.990
   23SBC   C0FV15574   6.686  12.571  10.841
   23SBC   C0FU15575   6.692  12.697  10.785
   23SBC   H01B15576   6.790  12.733  10.755
   23SBC   C0FT15577   6.577  12.763  10.749
   23SBC   C0FS15578   6.551  12.870  10.661
   23SBC   C0BI15579   6.403  12.887  10.654
   23SBC   C0BH15580   6.378  12.910  10.516
   23SBC   C07F15581   6.316  12.816  10.430
   23SBC   C07E15582   6.206  12.731  10.457
   23SBC   C07G15583   6.155  12.697  10.581
   23SBC   C07415584   6.058  12.599  10.565
   23SBC   C06515585   6.155  12.632  10.368
   23SBC   C06415586   6.238  12.605  10.259
   23SBC   C06315587   6.220  12.498  10.178
   23SBC   C07515588   6.346  12.489  10.102
   23SBC   C0AM15589   6.439  12.591  10.141
   23SBC   C0AN15590   6.579  12.617  10.088
   23SBC   C0AO15591   6.670  12.534   9.995
   23SBC   C0B115592   6.800  12.584   9.961
   23SBC   C0B015593   6.856  12.697  10.017
   23SBC   C0AZ15594   6.983  12.750   9.991
   23SBC   C0AY15595   7.030  12.862  10.059
   23SBC   N00715596   7.153  12.921  10.031
   23SBC   C0E215597   7.202  13.028  10.106
   23SBC   C0E115598   7.333  13.062  10.093
   23SBC   C0E415599   7.386  13.158  10.176
   23SBC   C0FF15600   7.520  13.199  10.182
   23SBC   C0FJ15601   7.596  13.279  10.275
   23SBC   C0FK15602   7.573  13.283  10.417
   23SBC   H01615603   7.482  13.253  10.465
   23SBC   C0FL15604   7.703  13.311  10.483
   23SBC   H01715605   7.731  13.298  10.586
   23SBC   C0FM15606   7.801  13.327  10.375
   23SBC   C0FH15607   7.938  13.279  10.351
   23SBC   C0FI15608   7.929  13.236  10.211
   23SBC   C0F315609   8.009  13.129  10.165
   23SBC   C0F215610   7.960  13.067  10.054
   23SBC   C0DW15611   7.827  13.067  10.014
   23SBC   C0FE15612   7.739  13.154  10.074
   23SBC   C0DV15613   7.773  12.966   9.936
   23SBC   C0DX15614   7.637  12.950   9.927
   23SBC   C0DK15615   7.588  12.843   9.853
   23SBC   C0DJ15616   7.675  12.743   9.804
   23SBC   C0DI15617   7.621  12.644   9.731
   23SBC   C0DH15618   7.488  12.629   9.705
   23SBC   C0DG15619   7.404  12.712   9.770
   23SBC   C0BV15620   7.270  12.678   9.780
   23SBC   C0BC15621   7.188  12.747   9.866
   23SBC   C0BA15622   7.228  12.565   9.720
   23SBC   C0B415623   7.092  12.528   9.731
   23SBC   C0B315624   7.011  12.584   9.827
   23SBC   C0B515625   7.057  12.415   9.664
   23SBC   C0BU15626   7.136  12.356   9.563
   23SBC   C0BT15627   7.262  12.398   9.540
   23SBC   C0BS15628   7.346  12.334   9.450
   23SBC   C0CC15629   7.480  12.363   9.454
   23SBC   C0CB15630   7.573  12.300   9.362
   23SBC   C0CH15631   7.702  12.287   9.423
   23SBC   C0DO15632   7.749  12.360   9.536
   23SBC   C0DP15633   7.879  12.349   9.583
   23SBC   C0EA15634   7.970  12.251   9.526
   23SBC   H01215635   7.930  12.177   9.459
   23SBC   O00915636   8.106  12.251   9.558
   23SBC   C0EH15637   8.140  12.329   9.665
   23SBC   C0EG15638   8.270  12.313   9.717
   23SBC   C0EJ15639   8.373  12.213   9.705
   23SBC   H01015640   8.364  12.121   9.650
   23SBC   C0EK15641   8.483  12.241   9.794
   23SBC   H00Z15642   8.574  12.187   9.816
   23SBC   C0EL15643   8.446  12.363   9.852
   23SBC   C0EM15644   8.508  12.444   9.959
   23SBC   C0EW15645   8.636  12.419  10.014
   23SBC   H01315646   8.687  12.330   9.981
   23SBC   C0EX15647   8.685  12.507  10.120
   23SBC   H01415648   8.781  12.488  10.166
   23SBC   C0F115649   8.606  12.623  10.156
   23SBC   C0EU15650   8.485  12.643  10.100
   23SBC   C0ET15651   8.390  12.744  10.121
   23SBC   C0ES15652   8.286  12.711  10.033
   23SBC   C0EE15653   8.308  12.600   9.954
   23SBC   C0ED15654   8.250  12.518   9.856
   23SBC   C0EC15655   8.117  12.531   9.806
   23SBC   C0EB15656   8.031  12.635   9.837
   23SBC   C0EN15657   8.074  12.743   9.925
   23SBC   C0ER15658   7.986  12.854   9.934
   23SBC   C0DS15659   7.898  12.646   9.794
   23SBC   C0DR15660   7.845  12.545   9.715
   23SBC   C0EY15661   8.178  12.782  10.018
   23SBC   C0EZ15662   8.152  12.910  10.083
   23SBC   C0F515663   8.207  12.982  10.192
   23SBC   C0F615664   8.321  12.943  10.260
   23SBC   N00815665   8.352  13.025  10.376
   23SBC   C0F715666   8.265  13.128  10.428
   23SBC   C0FQ15667   8.297  13.195  10.547
   23SBC   H01815668   8.218  13.245  10.601
   23SBC   C0FP15669   8.419  13.165  10.612
   23SBC   H01915670   8.426  13.202  10.713
   23SBC   C0FO15671   8.503  13.071  10.557
   23SBC   H01A15672   8.597  13.057  10.609
   23SBC   C0F815673   8.143  13.154  10.359
   23SBC   C0F915674   8.475  13.000  10.439
   23SBC   C0FA15675   8.571  12.915  10.390
   23SBC   H01515676   8.662  12.897  10.447
   23SBC   C0FB15677   8.541  12.827  10.282
   23SBC   C0FD15678   8.417  12.844  10.221
   23SBC   C0FC15679   8.640  12.721  10.254
   23SBC   O00A15680   8.745  12.713  10.315
   23SBC   C0EV15681   8.435  12.557   9.999
   23SBC   C0EF15682   8.320  12.400   9.810
   23SBC   C0EI15683   8.064  12.436   9.720
   23SBC   C0DQ15684   7.930  12.443   9.672
   23SBC   C0CE15685   7.664  12.456   9.584
   23SBC   H00U15686   7.772  12.225   9.369
   23SBC   C0CA15687   7.522  12.251   9.240
   23SBC   C0C915688   7.385  12.206   9.243
   23SBC   C0C815689   7.326  12.147   9.127
   23SBC   C0C715690   7.220  12.045   9.109
   23SBC   C0C615691   7.203  11.990   8.985
   23SBC   C0C515692   7.153  11.865   8.931
   23SBC   C0CQ15693   7.222  11.809   8.821
   23SBC   C0D115694   7.334  11.871   8.774
   23SBC   C0D815695   7.424  11.780   8.730
   23SBC   C0D715696   7.368  11.650   8.735
   23SBC   C0D615697   7.391  11.542   8.648
   23SBC   C0D515698   7.291  11.452   8.610
   23SBC   C0D415699   7.162  11.410   8.662
   23SBC   C0D315700   7.071  11.378   8.556
   23SBC   C0CX15701   6.933  11.418   8.585
   23SBC   C0CW15702   6.943  11.470   8.723
   23SBC   C0CV15703   6.861  11.502   8.838
   23SBC   C0D215704   6.737  11.436   8.860
   23SBC   C09D15705   6.684  11.337   8.776
   23SBC   C09C15706   6.564  11.277   8.810
   23SBC   C09B15707   6.484  11.190   8.727
   23SBC   C09A15708   6.543  11.175   8.597
   23SBC   C09915709   6.662  11.218   8.559
   23SBC   C09815710   6.666  11.235   8.421
   23SBC   C08Y15711   6.542  11.189   8.362
   23SBC   C08X15712   6.481  11.217   8.232
   23SBC   C08W15713   6.548  11.298   8.128
   23SBC   C08U15714   6.669  11.382   8.150
   23SBC   C08V15715   6.746  11.421   8.267
   23SBC   C0DC15716   6.851  11.501   8.212
   23SBC   H00W15717   6.936  11.528   8.273
   23SBC   C0DB15718   6.838  11.518   8.072
   23SBC   H00X15719   6.885  11.591   8.006
   23SBC   C08T15720   6.728  11.440   8.042
   23SBC   C08S15721   6.678  11.434   7.914
   23SBC   H00N15722   6.730  11.483   7.833
   23SBC   C08R15723   6.552  11.376   7.896
   23SBC   C08Q15724   6.488  11.374   7.769
   23SBC   H00O15725   6.542  11.409   7.682
   23SBC   C08P15726   6.350  11.337   7.741
   23SBC   C08O15727   6.282  11.339   7.609
   23SBC   H00P15728   6.327  11.381   7.521
   23SBC   C08N15729   6.141  11.316   7.607
   23SBC   C08M15730   6.074  11.333   7.482
   23SBC   O00815731   6.125  11.380   7.377
   23SBC   O00715732   5.940  11.297   7.481
   23SBC   C08H15733   5.876  11.250   7.585
   23SBC   C08G15734   5.735  11.231   7.577
   23SBC   C03V15735   5.648  11.257   7.472
   23SBC   H00915736   5.688  11.307   7.385
   23SBC   C03U15737   5.509  11.231   7.475
   23SBC   C03W15738   5.412  11.248   7.363
   23SBC   H00A15739   5.440  11.287   7.266
   23SBC   C03X15740   5.290  11.206   7.382
   23SBC   H00B15741   5.218  11.222   7.303
   23SBC   O00515742   5.235  11.151   7.496
   23SBC   C03O15743   5.322  11.137   7.603
   23SBC   C03N15744   5.271  11.089   7.727
   23SBC   O00015745   5.134  11.064   7.728
   23SBC   C01915746   5.080  11.019   7.847
   23SBC   C01815747   5.157  11.002   7.966
   23SBC   C01715748   5.296  11.032   7.961
   23SBC   C01615749   5.376  11.019   8.077
   23SBC   C01515750   5.300  10.977   8.192
   23SBC   C01415751   5.375  10.970   8.306
   23SBC   C01315752   5.512  10.987   8.317
   23SBC   C01215753   5.536  10.981   8.457
   23SBC   C01115754   5.414  10.935   8.513
   23SBC   C01015755   5.401  10.933   8.648
   23SBC   C00Z15756   5.286  10.937   8.727
   23SBC   C00Y15757   5.330  10.981   8.851
   23SBC   C01O15758   5.466  10.998   8.855
   23SBC   C01P15759   5.529  11.091   8.939
   23SBC   C02L15760   5.657  11.120   8.917
   23SBC   C02K15761   5.702  11.089   8.787
   23SBC   C01M15762   5.625  11.029   8.680
   23SBC   C02J15763   5.840  11.107   8.779
   23SBC   C02I15764   5.927  11.068   8.681
   23SBC   C02H15765   5.896  11.029   8.550
   23SBC   C01Q15766   5.773  11.013   8.482
   23SBC   C02G15767   5.802  11.001   8.340
   23SBC   C08915768   5.944  10.998   8.331
   23SBC   C08815769   5.986  11.039   8.209
   23SBC   C08715770   5.851  11.062   8.142
   23SBC   C08615771   5.832  11.108   8.006
   23SBC   C03S15772   5.710  11.112   7.930
   23SBC   N00615773   5.748  11.160   7.806
   23SBC   C08F15774   5.883  11.175   7.805
   23SBC   C01J15775   5.574  11.086   7.950
   23SBC   C03R15776   5.489  11.099   7.833
   23SBC   C03Q15777   5.538  11.144   7.706
   23SBC   C08E15778   5.939  11.159   7.927
   23SBC   C08D15779   6.083  11.182   7.946
   23SBC   C08K15780   6.147  11.239   7.838
   23SBC   C08C15781   6.162  11.147   8.062
   23SBC   C09115782   6.292  11.199   8.079
   23SBC   C09215783   6.358  11.268   7.972
   23SBC   C08B15784   6.124  11.092   8.185
   23SBC   C09015785   6.242  11.098   8.271
   23SBC   C09415786   6.248  11.055   8.408
   23SBC   C09515787   6.346  11.099   8.497
   23SBC   C09R15788   6.293  11.098   8.625
   23SBC   C09715789   6.155  11.080   8.622
   23SBC   C09615790   6.130  11.044   8.492
   23SBC   C01I15791   5.734  11.025   8.218
   23SBC   C08A15792   5.997  11.017   8.459
   23SBC   C09L15793   6.055  11.089   8.720
   23SBC   C09K15794   6.055  11.136   8.855
   23SBC   C09J15795   6.163  11.176   8.929
   23SBC   C09I15796   6.154  11.268   9.042
   23SBC   C09O15797   6.058  11.325   9.132
   23SBC   C09N15798   5.920  11.296   9.119
   23SBC   C09M15799   5.858  11.221   9.013
   23SBC   C06O15800   5.839  11.350   9.224
   23SBC   C05M15801   5.889  11.426   9.328
   23SBC   C06P15802   6.024  11.458   9.332
   23SBC   C04215803   5.805  11.493   9.422
   23SBC   C04115804   5.668  11.481   9.413
   23SBC   C04015805   5.583  11.549   9.496
   23SBC   C03Z15806   5.446  11.546   9.482
   23SBC   C03Y15807   5.391  11.464   9.387
   23SBC   C02715808   5.254  11.447   9.379
   23SBC   C02615809   5.202  11.357   9.289
   23SBC   C02815810   5.067  11.343   9.277
   23SBC   C02915811   4.982  11.418   9.358
   23SBC   C02B15812   4.846  11.411   9.338
   23SBC   C02C15813   4.763  11.496   9.408
   23SBC   C02X15814   4.631  11.490   9.385
   23SBC   C03E15815   4.554  11.572   9.456
   23SBC   C03G15816   4.597  11.645   9.563
   23SBC   C04Q15817   4.732  11.661   9.580
   23SBC   C04R15818   4.784  11.742   9.677
   23SBC   C04S15819   4.916  11.756   9.692
   23SBC   C04L15820   5.002  11.682   9.611
   23SBC   C04M15821   4.953  11.587   9.523
   23SBC   C04K15822   5.140  11.695   9.623
   23SBC   C04F15823   5.194  11.779   9.719
   23SBC   C04E15824   5.106  11.856   9.802
   23SBC   C04D15825   5.161  11.935   9.896
   23SBC   C05015826   5.075  12.005   9.977
   23SBC   C05115827   5.133  12.082  10.082
   23SBC   C05Q15828   5.050  12.156  10.160
   23SBC   C05V15829   5.105  12.242  10.256
   23SBC   N00515830   5.017  12.326  10.334
   23SBC   C07V15831   4.881  12.307  10.324
   23SBC   C08215832   4.793  12.389  10.400
   23SBC   C08115833   4.842  12.488  10.484
   23SBC   C07C15834   4.980  12.501  10.496
   23SBC   C07B15835   5.031  12.604  10.581
   23SBC   C08015836   4.949  12.683  10.662
   23SBC   C07Z15837   5.006  12.773  10.745
   23SBC   H00L15838   4.939  12.830  10.808
   23SBC   C07915839   5.144  12.801  10.741
   23SBC   C07815840   5.229  12.712  10.675
   23SBC   C07715841   5.366  12.716  10.705
   23SBC   C07X15842   5.422  12.822  10.780
   23SBC   H00I15843   5.529  12.835  10.789
   23SBC   C07Y15844   5.343  12.925  10.818
   23SBC   H00H15845   5.389  13.017  10.850
   23SBC   C07615846   5.446  12.618  10.651
   23SBC   C06C15847   5.589  12.603  10.690
   23SBC   H00C15848   5.639  12.672  10.757
   23SBC   C06F15849   5.390  12.537  10.548
   23SBC   C06E15850   5.466  12.446  10.476
   23SBC   C06G15851   5.427  12.351  10.381
   23SBC   C06H15852   5.289  12.345  10.361
   23SBC   C06I15853   5.207  12.430  10.436
   23SBC   C06L15854   5.517  12.280  10.295
   23SBC   C06M15855   5.658  12.306  10.305
   23SBC   C06K15856   5.464  12.184  10.214
   23SBC   C05S15857   5.320  12.173  10.202
   23SBC   C05U15858   5.546  12.100  10.136
   23SBC   C05X15859   5.692  12.123  10.137
   23SBC   C05G15860   5.765  12.020  10.058
   23SBC   C05F15861   5.693  11.923   9.994
   23SBC   C05E15862   5.779  11.849   9.911
   23SBC   C04815863   5.732  11.762   9.815
   23SBC   C05615864   5.826  11.705   9.728
   23SBC   C04515865   5.771  11.627   9.623
   23SBC   C04715866   5.595  11.762   9.798
   23SBC   C04915867   5.513  11.850   9.870
   23SBC   C04B15868   5.382  11.858   9.840
   23SBC   C04615869   5.549  11.695   9.688
   23SBC   C04H15870   5.415  11.699   9.664
   23SBC   C05D15871   5.912  11.901   9.915
   23SBC   C04A15872   5.558  11.923   9.977
   23SBC   C05T15873   5.486  12.006  10.053
   23SBC   C05515874   5.353  12.011  10.025
   23SBC   C06D15875   5.605  12.450  10.498
   23SBC   C07W15876   5.253  12.528  10.525
   23SBC   C08515877   5.206  12.914  10.803
   23SBC   H00M15878   5.138  12.991  10.836
   23SBC   C08415879   4.810  12.669  10.648
   23SBC   H00J15880   4.756  12.729  10.720
   23SBC   C07A15881   5.169  12.617  10.590
   23SBC   C08315882   4.763  12.573  10.561
   23SBC   H00K15883   4.658  12.554  10.545
   23SBC   O00K15884   4.655  12.368  10.389
   23SBC   C0GO15885   4.605  12.267  10.312
   23SBC   C0GN15886   4.468  12.259  10.310
   23SBC   H01L15887   4.414  12.322  10.379
   23SBC   C0GM15888   4.407  12.158  10.224
   23SBC   C0GL15889   4.279  12.129  10.236
   23SBC   H01M15890   4.220  12.178  10.313
   23SBC   O00J15891   4.220  12.045  10.147
   23SBC   C0GK15892   4.301  11.978  10.058
   23SBC   H01N15893   4.249  11.904   9.998
   23SBC   C05K15894   4.435  12.004  10.048
   23SBC   C05J15895   4.515  11.942   9.946
   23SBC   C04Y15896   4.467  11.859   9.838
   23SBC   C04X15897   4.552  11.794   9.743
   23SBC   O00615898   4.328  11.825   9.823
   23SBC   C05315899   4.272  11.762   9.716
   23SBC   C04O15900   4.361  11.701   9.624
   23SBC   C03C15901   4.322  11.624   9.507
   23SBC   C03B15902   4.199  11.584   9.440
   23SBC   C05415903   4.073  11.585   9.509
   23SBC   C0GR15904   3.962  11.511   9.460
   23SBC   C03M15905   3.928  11.415   9.350
   23SBC   C03I15906   4.018  11.357   9.259
   23SBC   C03J15907   3.969  11.272   9.156
   23SBC   N00215908   4.057  11.191   9.073
   23SBC   C02U15909   4.011  11.105   8.969
   23SBC   C02T15910   4.096  11.040   8.884
   23SBC   C02Z15911   4.049  10.953   8.788
   23SBC   N00115912   4.138  10.888   8.699
   23SBC   C02R15913   4.094  10.783   8.616
   23SBC   C03215914   3.960  10.760   8.602
   23SBC   C03115915   3.874  10.830   8.687
   23SBC   H00715916   3.769  10.811   8.675
   23SBC   C03315917   3.923  10.661   8.508
   23SBC   H00315918   3.817  10.647   8.494
   23SBC   O00415919   4.007  10.565   8.455
   23SBC   C03415920   4.137  10.604   8.466
   23SBC   C03515921   4.228  10.524   8.393
   23SBC   C03615922   4.366  10.543   8.402
   23SBC   H00515923   4.436  10.480   8.349
   23SBC   C03715924   4.415  10.662   8.470
   23SBC   H00615925   4.520  10.683   8.466
   23SBC   C00D15926   4.326  10.746   8.536
   23SBC   C00C15927   4.369  10.853   8.612
   23SBC   C00B15928   4.516  10.889   8.613
   23SBC   C00A15929   4.656  10.842   8.563
   23SBC   C00915930   4.735  10.880   8.671
   23SBC   C00815931   4.880  10.898   8.677
   23SBC   C00715932   4.953  10.886   8.560
   23SBC   C00615933   5.093  10.902   8.563
   23SBC   C00515934   5.162  10.916   8.438
   23SBC   C00415935   5.094  10.925   8.317
   23SBC   C00315936   4.953  10.909   8.319
   23SBC   C00215937   4.878  10.937   8.204
   23SBC   C01C15938   4.949  10.964   8.085
   23SBC   C01B15939   4.878  10.963   7.959
   23SBC   H00015940   4.775  10.936   7.944
   23SBC   C00115941   4.738  10.945   8.210
   23SBC   C00015942   4.663  10.899   8.322
   23SBC   C01U15943   4.536  10.955   8.309
   23SBC   H00215944   4.453  10.955   8.379
   23SBC   C01T15945   4.535  11.039   8.187
   23SBC   O00215946   4.450  11.124   8.156
   23SBC   O00115947   4.658  11.021   8.124
   23SBC   C01S15948   4.880  10.888   8.440
   23SBC   C00N15949   4.932  10.963   8.788
   23SBC   C00M15950   4.850  11.023   8.882
   23SBC   C00J15951   4.717  11.030   8.861
   23SBC   C00I15952   4.631  11.104   8.934
   23SBC   C00H15953   4.496  11.102   8.912
   23SBC   C00G15954   4.447  11.035   8.811
   23SBC   C00F15955   4.310  11.011   8.798
   23SBC   C01X15956   4.413  11.168   8.999
   23SBC   C01W15957   4.464  11.247   9.096
   23SBC   C01V15958   4.603  11.257   9.115
   23SBC   C02015959   4.657  11.330   9.216
   23SBC   C01Z15960   4.381  11.319   9.180
   23SBC   C02Y15961   4.444  11.395   9.271
   23SBC   C03915962   4.363  11.480   9.341
   23SBC   C02W15963   4.240  11.311   9.171
   23SBC   C01Y15964   4.274  11.149   8.990
   23SBC   C00U15965   4.685  11.178   9.034
   23SBC   C00S15966   4.822  11.173   9.065
   23SBC   C00T15967   4.875  11.253   9.164
   23SBC   C00R15968   4.907  11.103   8.985
   23SBC   C00Q15969   5.041  11.118   8.999
   23SBC   C00V15970   5.093  11.190   9.099
   23SBC   C02415971   5.230  11.202   9.111
   23SBC   C00X15972   5.311  11.125   9.031
   23SBC   C00P15973   5.121  11.047   8.911
   23SBC   C00O15974   5.068  10.977   8.800
   23SBC   C00K15975   4.665  10.948   8.768
   23SBC   N00015976   4.734  10.871   8.441
   23SBC   C00L15977   4.536  10.963   8.729
   23SBC   H00415978   4.192  10.430   8.353
   23SBC   C02Q15979   4.189  10.713   8.539
   23SBC   C00E15980   4.274  10.921   8.697
   23SBC   C03015981   3.915  10.917   8.786
   23SBC   O00315982   3.830  10.979   8.877
   23SBC   C02S15983   4.225  11.064   8.894
   23SBC   C03815984   3.880  11.078   8.960
   23SBC   C03L15985   3.798  11.139   9.050
   23SBC   H00815986   3.693  11.112   9.043
   23SBC   C02V15987   4.192  11.211   9.083
   23SBC   C03K15988   3.836  11.232   9.150
   23SBC   C0BK15989   3.751  11.294   9.243
   23SBC   H00T15990   3.647  11.265   9.232
   23SBC   C03H15991   4.156  11.380   9.260
   23SBC   C0BL15992   3.787  11.385   9.342
   23SBC   C0GU15993   3.700  11.435   9.439
   23SBC   H01O15994   3.597  11.404   9.440
   23SBC   C0GT15995   3.727  11.526   9.538
   23SBC   H01P15996   3.655  11.562   9.609
   23SBC   C0GS15997   3.860  11.566   9.544
   23SBC   C0GV15998   3.914  11.645   9.649
   23SBC   C0GW15999   3.860  11.707   9.767
   23SBC   H01Q16000   3.757  11.719   9.796
   23SBC   C0GX16001   3.940  11.781   9.851
   23SBC   H01R16002   3.904  11.835   9.937
   23SBC   O00L16003   4.075  11.808   9.823
   23SBC   C0GQ16004   4.049  11.667   9.622
   23SBC   C03A16005   4.229  11.483   9.343
   23SBC   C05L16006   4.130  11.749   9.712
   23SBC   C04W16007   4.656  11.958   9.948
   23SBC   C05I16008   4.716  12.038  10.047
   23SBC   C05O16009   4.637  12.098  10.147
   23SBC   C05216010   4.855  12.054  10.056
   23SBC   C04V16011   4.745  11.894   9.865
   23SBC   C04U16012   4.883  11.909   9.868
   23SBC   N00916013   4.498  12.082  10.141
   23SBC   C0GP16014   4.689  12.195  10.231
   23SBC   C05W16015   4.827  12.215  10.234
   23SBC   C07D16016   5.070  12.424  10.421
   23SBC   C06J16017   5.240  12.252  10.280
   23SBC   C05P16018   4.910  12.137  10.151
   23SBC   C05R16019   5.268  12.086  10.106
   23SBC   C04Z16020   4.938  11.991   9.964
   23SBC   C04C16021   5.299  11.933   9.923
   23SBC   C04G16022   5.330  11.781   9.739
   23SBC   C04J16023   5.226  11.619   9.541
   23SBC   C04T16024   4.967  11.841   9.783
   23SBC   N00316025   4.691  11.812   9.763
   23SBC   C04P16026   4.504  11.709   9.642
   23SBC   C03D16027   4.417  11.557   9.437
   23SBC   C02116028   4.579  11.406   9.295
   23SBC   C03F16029   4.818  11.584   9.500
   23SBC   C02216030   4.793  11.329   9.235
   23SBC   C02A16031   5.037  11.508   9.448
   23SBC   C02316032   5.009  11.259   9.183
   23SBC   C02516033   5.285  11.291   9.203
   23SBC   C02D16034   5.424  11.302   9.214
   23SBC   C02E16035   5.504  11.236   9.121
   23SBC   C02N16036   5.640  11.264   9.114
   23SBC   C04N16037   5.172  11.522   9.458
   23SBC   C02P16038   5.477  11.389   9.304
   23SBC   C04I16039   5.366  11.623   9.562
   23SBC   C04416040   5.633  11.622   9.603
   23SBC   C04316041   5.617  11.400   9.316
   23SBC   C05N16042   5.697  11.336   9.218
   23SBC   C09U16043   6.111  11.410   9.234
   23SBC   C09V16044   6.243  11.455   9.232
   23SBC   C09X16045   6.336  11.406   9.145
   23SBC   C09Y16046   6.466  11.452   9.122
   23SBC   C0A116047   6.512  11.549   9.206
   23SBC   C0A216048   6.427  11.590   9.309
   23SBC   C0A416049   6.472  11.690   9.394
   23SBC   C07116050   6.386  11.735   9.503
   23SBC   C0A516051   6.434  11.833   9.588
   23SBC   C0A916052   6.557  11.893   9.559
   23SBC   C0A816053   6.636  11.845   9.453
   23SBC   C0AP16054   6.764  11.907   9.438
   23SBC   C0BY16055   6.834  11.860   9.329
   23SBC   C0BX16056   6.795  11.765   9.242
   23SBC   C0C216057   6.878  11.731   9.132
   23SBC   C0C316058   6.835  11.632   9.041
   23SBC   C0CT16059   6.711  11.573   9.072
   23SBC   C0C116060   6.991  11.800   9.101
   23SBC   C0C016061   7.048  11.891   9.202
   23SBC   C0A716062   6.676  11.704   9.265
   23SBC   C0BZ16063   6.962  11.909   9.313
   23SBC   C0BO16064   7.005  12.020   9.382
   23SBC   C0BN16065   6.926  12.074   9.486
   23SBC   C0BM16066   6.978  12.182   9.546
   23SBC   C0B916067   6.895  12.237   9.643
   23SBC   C0B816068   6.771  12.179   9.678
   23SBC   C0AD16069   6.728  12.065   9.606
   23SBC   C0AF16070   6.688  12.235   9.770
   23SBC   C0AG16071   6.727  12.349   9.838
   23SBC   C0B716072   6.849  12.403   9.800
   23SBC   C0AE16073   6.574  12.166   9.799
   23SBC   C0AB16074   6.530  12.052   9.737
   23SBC   C0AA16075   6.404  11.996   9.759
   23SBC   C0AJ16076   6.488  12.226   9.886
   23SBC   C0AK16077   6.361  12.177   9.909
   23SBC   C06W16078   6.294  12.269   9.983
   23SBC   C0AI16079   6.507  12.353   9.950
   23SBC   C0BP16080   7.127  12.063   9.333
   23SBC   C0BQ16081   7.174  12.189   9.394
   23SBC   C0BW16082   6.807  12.013   9.512
   23SBC   C0AC16083   6.605  12.003   9.634
   23SBC   C0A616084   6.594  11.743   9.372
   23SBC   C0A316085   6.631  11.611   9.178
   23SBC   C09Z16086   6.548  11.409   9.016
   23SBC   C09W16087   6.293  11.543   9.326
   23SBC   C07216088   6.210  11.588   9.427
   23SBC   C09H16089   6.293  11.306   9.061
   23SBC   C09G16090   6.377  11.257   8.954
   23SBC   C09P16091   6.295  11.188   8.869
   23SBC   C02O16092   5.917  11.149   8.901
   23SBC   C02M16093   5.721  11.198   9.013
   23SBC   C02F16094   5.446  11.148   9.033
   23SBC   C00W16095   5.251  11.048   8.935
   23SBC   C01R16096   5.144  10.933   8.692
   23SBC   C01N16097   5.504  10.981   8.727
   23SBC   C01L16098   5.651  11.015   8.542
   23SBC   C01H16099   5.590  11.023   8.203
   23SBC   C01K16100   5.306  10.936   8.424
   23SBC   C01E16101   5.163  10.956   8.202
   23SBC   C01G16102   5.520  11.044   8.078
   23SBC   C01D16103   5.091  10.971   8.084
   23SBC   C01A16104   4.944  10.991   7.838
   23SBC   H00116105   4.884  11.000   7.749
   23SBC   C01F16106   5.352  11.069   7.843
   23SBC   C03P16107   5.460  11.166   7.593
   23SBC   C03T16108   5.674  11.176   7.693
   23SBC   C08I16109   5.945  11.232   7.706
   23SBC   C08J16110   6.081  11.261   7.717
   23SBC   C08L16111   6.283  11.281   7.851
   23SBC   C09316112   6.487  11.314   8.001
   23SBC   C08Z16113   6.351  11.170   8.201
   23SBC   C09T16114   6.757  11.346   8.389
   23SBC   C09S16115   6.473  11.142   8.477
   23SBC   C09Q16116   6.349  11.155   8.740
   23SBC   C09F16117   6.504  11.310   8.932
   23SBC   C09E16118   6.722  11.315   8.634
   23SBC   C0A016119   6.667  11.474   8.981
   23SBC   C0CU16120   6.913  11.588   8.936
   23SBC   C0CR16121   7.036  11.650   8.915
   23SBC   C0CZ16122   7.126  11.599   8.825
   23SBC   C0DA16123   6.805  11.379   8.529
   23SBC   C0D916124   7.144  11.408   8.429
   23SBC   H00V16125   7.109  11.410   8.327
   23SBC   C0CY16126   7.083  11.485   8.753
   23SBC   C0DF16127   7.281  11.441   8.469
   23SBC   C0DE16128   7.404  11.501   8.424
   23SBC   C0GI16129   7.450  11.519   8.292
   23SBC   H01K16130   7.398  11.483   8.205
   23SBC   C0GJ16131   7.568  11.583   8.287
   23SBC   H01J16132   7.615  11.588   8.189
   23SBC   O00I16133   7.643  11.637   8.388
   23SBC   C0GH16134   7.588  11.649   8.516
   23SBC   C0GG16135   7.638  11.747   8.602
   23SBC   O00G16136   7.762  11.796   8.577
   23SBC   C0G816137   7.817  11.892   8.660
   23SBC   C0G916138   7.950  11.913   8.639
   23SBC   H01G16139   7.991  11.863   8.552
   23SBC   C0GA16140   8.010  12.022   8.704
   23SBC   H01H16141   8.110  12.047   8.672
   23SBC   C0GB16142   7.952  12.097   8.807
   23SBC   C0EP16143   7.815  12.066   8.834
   23SBC   C0E816144   7.749  12.134   8.951
   23SBC   C0CK16145   7.626  12.141   9.018
   23SBC   C0CL16146   7.507  12.104   8.958
   23SBC   C0E916147   7.506  12.015   8.842
   23SBC   C0GE16148   7.606  11.936   8.765
   23SBC   C0E716149   7.824  12.234   9.017
   23SBC   C0CJ16150   7.752  12.299   9.119
   23SBC   C0E616151   7.813  12.409   9.184
   23SBC   H00Y16152   7.752  12.471   9.248
   23SBC   C0EO16153   7.944  12.445   9.156
   23SBC   H01116154   7.970  12.537   9.208
   23SBC   C0G616155   8.020  12.370   9.056
   23SBC   C0G516156   8.151  12.395   9.013
   23SBC   H01F16157   8.208  12.481   9.047
   23SBC   C0GD16158   8.215  12.317   8.929
   23SBC   H01I16159   8.320  12.335   8.908
   23SBC   O00H16160   8.160  12.221   8.857
   23SBC   C0EQ16161   7.957  12.266   8.980
   23SBC   C0GC16162   8.025  12.193   8.885
   23SBC   C0G716163   7.744  11.968   8.762
   23SBC   C0DD16164   7.471  11.559   8.533
   23SBC   C0GF16165   7.557  11.824   8.691
   23SBC   C0CO16166   7.374  11.991   8.823
   23SBC   C0D016167   7.244  11.675   8.807
   23SBC   C0C416168   7.061  11.773   8.987
   23SBC   C0CN16169   7.288  12.070   8.903
   23SBC   C0CP16170   7.156  11.985   9.218
   23SBC   C0CM16171   7.376  12.149   8.990
   23SBC   C0CI16172   7.623  12.231   9.136
   23SBC   C0CD16173   7.532  12.451   9.552
   23SBC   C0BR16174   7.302  12.238   9.362
   23SBC   C0CS16175   7.094  12.239   9.500
   23SBC   C0B616176   6.937  12.354   9.703
   23SBC   C0CG16177   7.309  12.496   9.626
   23SBC   C0CF16178   7.442  12.526   9.625
   23SBC   C0E516179   7.709  12.546   9.679
   23SBC   C0DT16180   7.812  12.747   9.833
   23SBC   C0DL16181   7.450  12.821   9.844
   23SBC   C0DM16182   7.365  12.899   9.920
   23SBC   C0DY16183   7.550  13.034   9.998
   23SBC   C0DU16184   7.855  12.860   9.892
   23SBC   C0F016185   8.036  12.955  10.019
   23SBC   C0F416186   8.120  13.086  10.241
   23SBC   C0FG16187   7.799  13.249  10.166
   23SBC   O00B16188   8.044  13.231  10.423
   23SBC   C0FN16189   7.726  13.315  10.260
   23SBC   C0DZ16190   7.601  13.135  10.082
   23SBC   O00C16191   7.304  13.220  10.266
   23SBC   C0FR16192   7.172  13.198  10.275
   23SBC   O00D16193   7.111  13.263  10.363
   23SBC   C0E016194   7.414  13.001   9.998
   23SBC   C0E316195   7.119  13.096  10.198
   23SBC   C0AW16196   6.986  13.048  10.213
   23SBC   C0AV16197   6.882  13.110  10.294
   23SBC   H00Q16198   6.892  13.208  10.338
   23SBC   C0AU16199   6.752  13.055  10.308
   23SBC   H00R16200   6.668  13.110  10.349
   23SBC   C0AT16201   6.726  12.932  10.245
   23SBC   C0AS16202   6.614  12.847  10.236
   23SBC   C0AR16203   6.502  12.874  10.317
   23SBC   C0BE16204   6.829  12.872  10.177
   23SBC   C0DN16205   7.235  12.862   9.930
   23SBC   C0AX16206   6.954  12.934  10.150
   23SBC   C0BB16207   7.061  12.695   9.894
   23SBC   C0BD16208   6.781  12.757  10.119
   23SBC   C0B216209   6.885  12.519   9.869
   23SBC   C0AH16210   6.636  12.416   9.926
   23SBC   C0BF16211   6.644  12.734  10.145
   23SBC   C0AL16212   6.379  12.380  10.013
   23SBC   C07U16213   6.368  12.666  10.238
   23SBC   C0AQ16214   6.390  12.780  10.318
   23SBC   C0BG16215   6.507  12.934  10.446
   23SBC   C0FY16216   6.345  12.781  10.734
   23SBC   C0BJ16217   6.611  12.896  10.535
   23SBC   H00S16218   6.710  12.863  10.509
   23SBC   C0FZ16219   6.453  12.715  10.788
   23SBC   C07S16220   6.227  12.701  10.706
   23SBC   C0G116221   6.312  12.417  10.934
   23SBC   C07K16222   5.951  12.350  10.903
   23SBC   C07H16223   6.005  12.529  10.676
   23SBC   C06B16224   5.659  12.519  10.604
   23SBC   C06N16225   5.696  12.391  10.411
   23SBC   C06616226   6.044  12.562  10.426
   23SBC   C06216227   6.087  12.421  10.165
   23SBC   C05Y16228   5.742  12.237  10.212
   23SBC   C06116229   6.064  12.327  10.059
   23SBC   C05H16230   5.901  12.001  10.019
   23SBC   C06V16231   6.161  12.239  10.006
   23SBC   C06Y16232   6.318  12.058   9.852
   23SBC   C05C16233   6.004  11.845   9.818
   23SBC   C06Z16234   6.349  11.892   9.682
   23SBC   C07016235   6.258  11.682   9.521
   23SBC   C05B16236   5.961  11.744   9.731
   23SBC   C05716237   5.857  11.564   9.532
   23SBC   C05916238   6.076  11.545   9.430
   24SBC   C05816239   4.425   4.766  12.975
   24SBC   C05A16240   4.296   4.784  13.027
   24SBC   C06Q16241   4.200   4.866  12.969
   24SBC   C06R16242   4.076   4.885  13.028
   24SBC   C06S16243   4.045   4.833  13.153
   24SBC   C06T16244   3.919   4.869  13.207
   24SBC   C06U16245   3.864   4.833  13.340
   24SBC   C06X16246   3.890   4.735  13.436
   24SBC   C06016247   3.808   4.741  13.559
   24SBC   C05Z16248   3.751   4.630  13.647
   24SBC   C06816249   3.610   4.689  13.671
   24SBC   C06716250   3.518   4.640  13.774
   24SBC   C06916251   3.552   4.531  13.863
   24SBC   C06A16252   3.487   4.491  13.983
   24SBC   C07316253   3.408   4.558  14.077
   24SBC   C07P16254   3.434   4.532  14.211
   24SBC   C07O16255   3.556   4.483  14.270
   24SBC   H00D16256   3.641   4.478  14.205
   24SBC   C07N16257   3.570   4.445  14.402
   24SBC   H00E16258   3.665   4.408  14.438
   24SBC   C07M16259   3.464   4.458  14.488
   24SBC   H00F16260   3.481   4.436  14.593
   24SBC   C07L16261   3.342   4.516  14.437
   24SBC   C07Q16262   3.230   4.554  14.522
   24SBC   H00G16263   3.243   4.535  14.628
   24SBC   O00F16264   3.110   4.609  14.482
   24SBC   C07J16265   3.103   4.646  14.347
   24SBC   C07I16266   3.214   4.624  14.256
   24SBC   N00416267   3.198   4.664  14.122
   24SBC   C07R16268   3.075   4.716  14.081
   24SBC   C07T16269   2.976   4.748  14.179
   24SBC   C0FX16270   2.861   4.824  14.154
   24SBC   C0FW16271   2.780   4.891  14.247
   24SBC   C0G016272   2.808   4.850  14.384
   24SBC   C0G216273   2.725   4.900  14.482
   24SBC   H01E16274   2.731   4.856  14.580
   24SBC   C0G316275   2.624   4.989  14.446
   24SBC   H01C16276   2.555   5.027  14.520
   24SBC   C0G416277   2.599   5.016  14.310
   24SBC   H01D16278   2.515   5.081  14.290
   24SBC   O00E16279   2.902   4.750  14.414
   24SBC   C0FV16280   2.681   4.979  14.206
   24SBC   C0FU16281   2.689   5.022  14.066
   24SBC   H01B16282   2.630   5.106  14.031
   24SBC   C0FT16283   2.754   4.947  13.972
   24SBC   C0FS16284   2.788   4.958  13.835
   24SBC   C0BI16285   2.869   4.843  13.801
   24SBC   C0BH16286   2.940   4.867  13.680
   24SBC   C07F16287   3.077   4.866  13.662
   24SBC   C07E16288   3.165   4.782  13.730
   24SBC   C07G16289   3.157   4.725  13.857
   24SBC   C07416290   3.282   4.678  13.891
   24SBC   C06516291   3.301   4.780  13.702
   24SBC   C06416292   3.342   4.870  13.597
   24SBC   C06316293   3.464   4.874  13.532
   24SBC   C07516294   3.443   4.987  13.430
   24SBC   C0AM16295   3.309   5.036  13.425
   24SBC   C0AN16296   3.243   5.135  13.333
   24SBC   C0AO16297   3.288   5.201  13.207
   24SBC   C0B116298   3.213   5.301  13.137
   24SBC   C0B016299   3.113   5.363  13.197
   24SBC   C0AZ16300   3.049   5.476  13.149
   24SBC   C0AY16301   2.951   5.541  13.225
   24SBC   N00716302   2.899   5.663  13.179
   24SBC   C0E216303   2.817   5.733  13.270
   24SBC   C0E116304   2.791   5.859  13.230
   24SBC   C0E416305   2.709   5.935  13.323
   24SBC   C0FF16306   2.681   6.071  13.295
   24SBC   C0FJ16307   2.629   6.185  13.379
   24SBC   C0FK16308   2.646   6.217  13.520
   24SBC   H01616309   2.672   6.156  13.605
   24SBC   C0FL16310   2.652   6.360  13.535
   24SBC   H01716311   2.676   6.417  13.624
   24SBC   C0FM16312   2.615   6.417  13.404
   24SBC   C0FH16313   2.615   6.538  13.317
   24SBC   C0FI16314   2.623   6.476  13.187
   24SBC   C0F316315   2.696   6.533  13.086
   24SBC   C0F216316   2.729   6.443  12.987
   24SBC   C0DW16317   2.729   6.303  12.997
   24SBC   C0FE16318   2.682   6.245  13.108
   24SBC   C0DV16319   2.806   6.231  12.917
   24SBC   C0DX16320   2.833   6.095  12.950
   24SBC   C0DK16321   2.920   6.021  12.866
   24SBC   C0DJ16322   2.972   6.078  12.749
   24SBC   C0DI16323   3.056   6.001  12.665
   24SBC   C0DH16324   3.072   5.868  12.688
   24SBC   C0DG16325   3.030   5.813  12.808
   24SBC   C0BV16326   3.065   5.686  12.849
   24SBC   C0BC16327   3.025   5.636  12.977
   24SBC   C0BA16328   3.150   5.614  12.765
   24SBC   C0B416329   3.215   5.504  12.821
   24SBC   C0B316330   3.182   5.458  12.951
   24SBC   C0B516331   3.314   5.443  12.747
   24SBC   C0BU16332   3.334   5.480  12.614
   24SBC   C0BT16333   3.281   5.599  12.562
   24SBC   C0BS16334   3.313   5.647  12.431
   24SBC   C0CC16335   3.272   5.774  12.396
   24SBC   C0CB16336   3.310   5.826  12.272
   24SBC   C0CH16337   3.304   5.964  12.263
   24SBC   C0DO16338   3.245   6.050  12.361
   24SBC   C0DP16339   3.256   6.186  12.353
   24SBC   C0EA16340   3.348   6.245  12.255
   24SBC   H01216341   3.412   6.180  12.197
   24SBC   O00916342   3.362   6.385  12.248
   24SBC   C0EH16343   3.291   6.463  12.338
   24SBC   C0EG16344   3.310   6.601  12.332
   24SBC   C0EJ16345   3.398   6.684  12.257
   24SBC   H01016346   3.472   6.653  12.185
   24SBC   C0EK16347   3.371   6.828  12.299
   24SBC   H00Z16348   3.408   6.924  12.265
   24SBC   C0EL16349   3.281   6.811  12.410
   24SBC   C0EM16350   3.224   6.907  12.498
   24SBC   C0EW16351   3.239   7.048  12.495
   24SBC   H01316352   3.298   7.097  12.419
   24SBC   C0EX16353   3.177   7.133  12.603
   24SBC   H01416354   3.199   7.239  12.608
   24SBC   C0F116355   3.101   7.068  12.705
   24SBC   C0EU16356   3.091   6.931  12.705
   24SBC   C0ET16357   3.014   6.863  12.796
   24SBC   C0ES16358   3.019   6.735  12.731
   24SBC   C0EE16359   3.104   6.723  12.617
   24SBC   C0ED16360   3.158   6.632  12.524
   24SBC   C0EC16361   3.134   6.489  12.526
   24SBC   C0EB16362   3.043   6.425  12.615
   24SBC   C0EN16363   2.946   6.497  12.703
   24SBC   C0ER16364   2.865   6.420  12.788
   24SBC   C0DS16365   3.038   6.281  12.628
   24SBC   C0DR16366   3.116   6.205  12.546
   24SBC   C0EY16367   2.928   6.633  12.760
   24SBC   C0EZ16368   2.845   6.632  12.879
   24SBC   C0F516369   2.812   6.724  12.990
   24SBC   C0F616370   2.852   6.860  12.991
   24SBC   N00816371   2.807   6.933  13.114
   24SBC   C0F716372   2.741   6.869  13.221
   24SBC   C0FQ16373   2.714   6.946  13.333
   24SBC   H01816374   2.658   6.899  13.412
   24SBC   C0FP16375   2.727   7.078  13.329
   24SBC   H01916376   2.718   7.125  13.426
   24SBC   C0FO16377   2.778   7.143  13.226
   24SBC   H01A16378   2.796   7.250  13.229
   24SBC   C0F816379   2.714   6.737  13.210
   24SBC   C0F916380   2.827   7.075  13.115
   24SBC   C0FA16381   2.886   7.145  13.000
   24SBC   H01516382   2.892   7.252  12.997
   24SBC   C0FB16383   2.948   7.073  12.898
   24SBC   C0FD16384   2.928   6.932  12.895
   24SBC   C0FC16385   3.033   7.146  12.803
   24SBC   O00A16386   3.037   7.268  12.793
   24SBC   C0EV16387   3.147   6.855  12.603
   24SBC   C0EF16388   3.246   6.674  12.424
   24SBC   C0EI16389   3.206   6.409  12.439
   24SBC   C0DQ16390   3.196   6.269  12.446
   24SBC   C0CE16391   3.184   5.983  12.465
   24SBC   H00U16392   3.353   6.005  12.176
   24SBC   C0CA16393   3.349   5.734  12.162
   24SBC   C0C916394   3.403   5.604  12.203
   24SBC   C0C816395   3.472   5.526  12.107
   24SBC   C0C716396   3.588   5.446  12.110
   24SBC   C0C616397   3.650   5.396  11.991
   24SBC   C0C516398   3.779   5.344  11.943
   24SBC   C0CQ16399   3.805   5.372  11.811
   24SBC   C0D116400   3.726   5.459  11.740
   24SBC   C0D816401   3.793   5.529  11.650
   24SBC   C0D716402   3.912   5.455  11.628
   24SBC   C0D616403   4.027   5.486  11.549
   24SBC   C0D516404   4.152   5.416  11.546
   24SBC   C0D416405   4.208   5.311  11.628
   24SBC   C0D316406   4.349   5.311  11.616
   24SBC   C0CX16407   4.394   5.247  11.736
   24SBC   C0CW16408   4.286   5.244  11.843
   24SBC   C0CV16409   4.270   5.222  11.979
   24SBC   C0D216410   4.382   5.187  12.061
   24SBC   C09D16411   4.517   5.186  12.022
   24SBC   C09C16412   4.622   5.161  12.117
   24SBC   C09B16413   4.762   5.140  12.091
   24SBC   C09A16414   4.797   5.156  11.957
   24SBC   C09916415   4.711   5.209  11.871
   24SBC   C09816416   4.761   5.191  11.739
   24SBC   C08Y16417   4.886   5.115  11.749
   24SBC   C08X16418   4.951   5.029  11.656
   24SBC   C08W16419   4.902   5.015  11.521
   24SBC   C08U16420   4.780   5.076  11.462
   24SBC   C08V16421   4.667   5.144  11.518
   24SBC   C0DC16422   4.586   5.187  11.406
   24SBC   H00W16423   4.503   5.255  11.421
   24SBC   C0DB16424   4.637   5.136  11.286
   24SBC   H00X16425   4.602   5.141  11.184
   24SBC   C08T16426   4.754   5.064  11.325
   24SBC   C08S16427   4.837   5.006  11.232
   24SBC   H00N16428   4.806   5.003  11.129
   24SBC   C08R16429   4.950   4.931  11.283
   24SBC   C08Q16430   5.046   4.868  11.199
   24SBC   H00O16431   5.031   4.869  11.092
   24SBC   C08P16432   5.151   4.784  11.245
   24SBC   C08O16433   5.235   4.703  11.161
   24SBC   H00P16434   5.222   4.710  11.054
   24SBC   C08N16435   5.334   4.623  11.212
   24SBC   C08M16436   5.418   4.552  11.125
   24SBC   O00816437   5.397   4.551  11.003
   24SBC   O00716438   5.513   4.473  11.180
   24SBC   C08H16439   5.534   4.461  11.319
   24SBC   C08G16440   5.640   4.379  11.379
   24SBC   C03V16441   5.741   4.304  11.314
   24SBC   H00916442   5.744   4.288  11.207
   24SBC   C03U16443   5.841   4.232  11.382
   24SBC   C03W16444   5.950   4.161  11.322
   24SBC   H00A16445   5.955   4.175  11.215
   24SBC   C03X16446   6.021   4.078  11.397
   24SBC   H00B16447   6.094   4.019  11.344
   24SBC   O00516448   6.013   4.064  11.531
   24SBC   C03O16449   5.928   4.150  11.595
   24SBC   C03N16450   5.908   4.143  11.735
   24SBC   O00016451   5.992   4.062  11.798
   24SBC   C01916452   5.981   4.036  11.930
   24SBC   C01816453   5.893   4.111  12.009
   24SBC   C01716454   5.811   4.205  11.945
   24SBC   C01616455   5.725   4.295  12.015
   24SBC   C01516456   5.731   4.278  12.150
   24SBC   C01416457   5.666   4.371  12.231
   24SBC   C01316458   5.575   4.469  12.180
   24SBC   C01216459   5.514   4.525  12.302
   24SBC   C01116460   5.581   4.458  12.411
   24SBC   C01016461   5.557   4.496  12.538
   24SBC   C00Z16462   5.602   4.434  12.654
   24SBC   C00Y16463   5.510   4.487  12.750
   24SBC   C01O16464   5.422   4.581  12.698
   24SBC   C01P16465   5.292   4.595  12.742
   24SBC   C02L16466   5.210   4.662  12.656
   24SBC   C02K16467   5.253   4.692  12.528
   24SBC   C01M16468   5.366   4.636  12.462
   24SBC   C02J16469   5.173   4.787  12.462
   24SBC   C02I16470   5.192   4.836  12.332
   24SBC   C02H16471   5.276   4.799  12.229
   24SBC   C01Q16472   5.371   4.703  12.220
   24SBC   C02G16473   5.407   4.683  12.089
   24SBC   C08916474   5.356   4.796  12.018
   24SBC   C08816475   5.343   4.759  11.882
   24SBC   C08716476   5.427   4.638  11.872
   24SBC   C08616477   5.461   4.568  11.754
   24SBC   C03S16478   5.558   4.472  11.735
   24SBC   N00616479   5.561   4.453  11.594
   24SBC   C08F16480   5.464   4.527  11.531
   24SBC   C01J16481   5.650   4.393  11.808
   24SBC   C03R16482   5.734   4.304  11.735
   24SBC   C03Q16483   5.741   4.309  11.588
   24SBC   C08E16484   5.397   4.601  11.626
   24SBC   C08D16485   5.293   4.692  11.581
   24SBC   C08K16486   5.269   4.694  11.438
   24SBC   C08C16487   5.228   4.786  11.660
   24SBC   C09116488   5.125   4.862  11.604
   24SBC   C09216489   5.092   4.863  11.463
   24SBC   C08B16490   5.250   4.827  11.790
   24SBC   C09016491   5.153   4.929  11.816
   24SBC   C09416492   5.112   4.974  11.945
   24SBC   C09516493   5.004   5.057  11.977
   24SBC   C09R16494   4.986   5.056  12.114
   24SBC   C09716495   5.074   4.972  12.174
   24SBC   C09616496   5.155   4.934  12.068
   24SBC   C01I16497   5.476   4.592  12.001
   24SBC   C08A16498   5.256   4.848  12.105
   24SBC   C09L16499   5.086   4.925  12.307
   24SBC   C09K16500   4.998   4.930  12.422
   24SBC   C09J16501   4.873   4.997  12.424
   24SBC   C09I16502   4.769   4.964  12.509
   24SBC   C09O16503   4.753   4.881  12.627
   24SBC   C09N16504   4.852   4.799  12.685
   24SBC   C09M16505   4.986   4.771  12.629
   24SBC   C06O16506   4.817   4.739  12.810
   24SBC   C05M16507   4.685   4.746  12.861
   24SBC   C06P16508   4.591   4.824  12.800
   24SBC   C04216509   4.649   4.676  12.979
   24SBC   C04116510   4.741   4.596  13.043
   24SBC   C04016511   4.702   4.524  13.155
   24SBC   C03Z16512   4.786   4.441  13.222
   24SBC   C03Y16513   4.914   4.435  13.177
   24SBC   C02716514   5.002   4.346  13.243
   24SBC   C02616515   5.132   4.333  13.191
   24SBC   C02816516   5.212   4.232  13.247
   24SBC   C02916517   5.163   4.144  13.343
   24SBC   C02B16518   5.243   4.037  13.385
   24SBC   C02C16519   5.190   3.948  13.472
   24SBC   C02X16520   5.262   3.837  13.503
   24SBC   C03E16521   5.207   3.747  13.599
   24SBC   C03G16522   5.083   3.754  13.657
   24SBC   C04Q16523   5.011   3.868  13.624
   24SBC   C04R16524   4.882   3.890  13.680
   24SBC   C04S16525   4.807   3.998  13.635
   24SBC   C04L16526   4.856   4.085  13.533
   24SBC   C04M16527   4.984   4.072  13.487
   24SBC   C04K16528   4.779   4.186  13.484
   24SBC   C04F16529   4.650   4.202  13.533
   24SBC   C04E16530   4.597   4.113  13.630
   24SBC   C04D16531   4.468   4.126  13.681
   24SBC   C05016532   4.418   4.039  13.772
   24SBC   C05116533   4.290   4.061  13.826
   24SBC   C05Q16534   4.235   3.964  13.907
   24SBC   C05V16535   4.109   3.984  13.949
   24SBC   N00516536   4.056   3.890  14.038
   24SBC   C07V16537   4.135   3.784  14.086
   24SBC   C08216538   4.080   3.685  14.169
   24SBC   C08116539   3.954   3.689  14.216
   24SBC   C07C16540   3.876   3.799  14.178
   24SBC   C07B16541   3.745   3.809  14.233
   24SBC   C08016542   3.697   3.716  14.332
   24SBC   C07Z16543   3.579   3.750  14.398
   24SBC   H00L16544   3.557   3.684  14.480
   24SBC   C07916545   3.499   3.858  14.363
   24SBC   C07816546   3.539   3.939  14.251
   24SBC   C07716547   3.461   4.049  14.213
   24SBC   C07X16548   3.332   4.074  14.275
   24SBC   H00I16549   3.264   4.155  14.249
   24SBC   C07Y16550   3.292   3.992  14.379
   24SBC   H00H16551   3.192   4.009  14.417
   24SBC   C07616552   3.514   4.140  14.121
   24SBC   C06C16553   3.447   4.262  14.095
   24SBC   H00C16554   3.355   4.285  14.147
   24SBC   C06F16555   3.640   4.119  14.063
   24SBC   C06E16556   3.689   4.200  13.965
   24SBC   C06G16557   3.813   4.200  13.909
   24SBC   C06H16558   3.890   4.093  13.949
   24SBC   C06I16559   3.841   3.993  14.040
   24SBC   C06L16560   3.861   4.306  13.823
   24SBC   C06M16561   3.781   4.420  13.781
   24SBC   C06K16562   3.998   4.294  13.776
   24SBC   C05S16563   4.076   4.182  13.818
   24SBC   C05U16564   4.047   4.385  13.683
   24SBC   C05X16565   3.965   4.494  13.632
   24SBC   C05G16566   4.026   4.549  13.509
   24SBC   C05F16567   4.160   4.514  13.477
   24SBC   C05E16568   4.203   4.582  13.361
   24SBC   C04816569   4.327   4.572  13.306
   24SBC   C05616570   4.363   4.644  13.200
   24SBC   C04516571   4.486   4.620  13.146
   24SBC   C04716572   4.410   4.481  13.372
   24SBC   C04916573   4.370   4.418  13.486
   24SBC   C04B16574   4.446   4.317  13.543
   24SBC   C04616575   4.536   4.465  13.323
   24SBC   C04H16576   4.617   4.377  13.386
   24SBC   C05D16577   4.100   4.666  13.325
   24SBC   C04A16578   4.243   4.425  13.541
   24SBC   C05T16579   4.180   4.357  13.639
   24SBC   C05516580   4.255   4.247  13.685
   24SBC   C06D16581   3.618   4.314  13.932
   24SBC   C07W16582   3.713   4.009  14.100
   24SBC   C08516583   3.376   3.886  14.427
   24SBC   H00M16584   3.347   3.823  14.510
   24SBC   C08416585   3.777   3.607  14.366
   24SBC   H00J16586   3.744   3.536  14.441
   24SBC   C07A16587   3.665   3.916  14.194
   24SBC   C08316588   3.901   3.597  14.308
   24SBC   H00K16589   3.965   3.512  14.330
   24SBC   O00K16590   4.157   3.580  14.212
   24SBC   C0GO16591   4.280   3.568  14.161
   24SBC   C0GN16592   4.354   3.456  14.205
   24SBC   H01L16593   4.310   3.383  14.271
   24SBC   C0GM16594   4.488   3.441  14.169
   24SBC   C0GL16595   4.558   3.334  14.216
   24SBC   H01M16596   4.506   3.262  14.278
   24SBC   O00J16597   4.689   3.324  14.194
   24SBC   C0GK16598   4.747   3.413  14.106
   24SBC   H01N16599   4.855   3.406  14.101
   24SBC   C05K16600   4.677   3.515  14.052
   24SBC   C05J16601   4.739   3.605  13.957
   24SBC   C04Y16602   4.868   3.592  13.899
   24SBC   C04X16603   4.919   3.684  13.807
   24SBC   O00616604   4.948   3.488  13.936
   24SBC   C05316605   5.070   3.457  13.878
   24SBC   C04O16606   5.114   3.545  13.775
   24SBC   C03C16607   5.239   3.528  13.699
   24SBC   C03B16608   5.345   3.434  13.684
   24SBC   C05416609   5.360   3.328  13.767
   24SBC   C0GR16610   5.469   3.239  13.758
   24SBC   C03M16611   5.584   3.218  13.664
   24SBC   C03I16612   5.624   3.302  13.554
   24SBC   C03J16613   5.733   3.267  13.472
   24SBC   N00216614   5.783   3.357  13.370
   24SBC   C02U16615   5.886   3.328  13.278
   24SBC   C02T16616   5.927   3.412  13.175
   24SBC   C02Z16617   6.023   3.363  13.086
   24SBC   N00116618   6.069   3.451  12.980
   24SBC   C02R16619   6.163   3.403  12.891
   24SBC   C03216620   6.208   3.267  12.895
   24SBC   C03116621   6.163   3.184  12.998
   24SBC   H00716622   6.192   3.081  13.011
   24SBC   C03316623   6.304   3.234  12.795
   24SBC   H00316624   6.352   3.138  12.788
   24SBC   O00416625   6.350   3.320  12.697
   24SBC   C03416626   6.303   3.446  12.698
   24SBC   C03516627   6.343   3.526  12.588
   24SBC   C03616628   6.299   3.656  12.575
   24SBC   H00516629   6.322   3.712  12.485
   24SBC   C03716630   6.211   3.704  12.670
   24SBC   H00616631   6.171   3.800  12.643
   24SBC   C00D16632   6.151   3.619  12.772
   24SBC   C00C16633   6.054   3.666  12.857
   24SBC   C00B16634   5.979   3.793  12.842
   24SBC   C00A16635   5.966   3.909  12.749
   24SBC   C00916636   5.890   4.002  12.826
   24SBC   C00816637   5.811   4.107  12.775
   24SBC   C00716638   5.820   4.133  12.637
   24SBC   C00616639   5.749   4.238  12.588
   24SBC   C00516640   5.742   4.253  12.446
   24SBC   C00416641   5.806   4.162  12.358
   24SBC   C00316642   5.871   4.053  12.419
   24SBC   C00216643   5.926   3.956  12.337
   24SBC   C01C16644   5.937   3.976  12.200
   24SBC   C01B16645   6.019   3.900  12.123
   24SBC   H00016646   6.078   3.816  12.156
   24SBC   C00116647   5.965   3.834  12.390
   24SBC   C00016648   5.945   3.812  12.527
   24SBC   C01U16649   5.911   3.674  12.544
   24SBC   H00216650   5.879   3.624  12.634
   24SBC   C01T16651   5.927   3.616  12.407
   24SBC   O00216652   5.908   3.498  12.384
   24SBC   O00116653   5.962   3.709  12.319
   24SBC   C01S16654   5.882   4.043  12.556
   24SBC   C00N16655   5.720   4.165  12.868
   24SBC   C00M16656   5.694   4.114  12.998
   24SBC   C00J16657   5.759   4.000  13.040
   24SBC   C00I16658   5.724   3.921  13.145
   24SBC   C00H16659   5.775   3.794  13.155
   24SBC   C00G16660   5.872   3.744  13.068
   24SBC   C00F16661   5.919   3.614  13.065
   24SBC   C01X16662   5.726   3.702  13.244
   24SBC   C01W16663   5.621   3.745  13.324
   24SBC   C01V16664   5.564   3.871  13.307
   24SBC   C02016665   5.440   3.895  13.362
   24SBC   C01Z16666   5.562   3.648  13.410
   24SBC   C02Y16667   5.448   3.683  13.460
   24SBC   C03916668   5.386   3.593  13.544
   24SBC   C02W16669   5.615   3.520  13.430
   24SBC   C01Y16670   5.780   3.575  13.262
   24SBC   C00U16671   5.614   3.959  13.216
   24SBC   C00S16672   5.540   4.070  13.174
   24SBC   C00T16673   5.421   4.101  13.243
   24SBC   C00R16674   5.584   4.150  13.069
   24SBC   C00Q16675   5.511   4.259  13.029
   24SBC   C00V16676   5.389   4.292  13.093
   24SBC   C02416677   5.303   4.392  13.041
   24SBC   C00X16678   5.344   4.462  12.929
   24SBC   C00P16679   5.548   4.322  12.910
   24SBC   C00O16680   5.644   4.272  12.818
   24SBC   C00K16681   5.865   3.959  12.956
   24SBC   N00016682   5.930   3.918  12.614
   24SBC   C00L16683   5.910   3.830  12.961
   24SBC   H00416684   6.405   3.492  12.507
   24SBC   C02Q16685   6.212   3.494  12.794
   24SBC   C00E16686   6.010   3.581  12.962
   24SBC   C03016687   6.073   3.235  13.096
   24SBC   O00316688   6.034   3.152  13.199
   24SBC   C02S16689   5.876   3.536  13.171
   24SBC   C03816690   5.948   3.199  13.298
   24SBC   C03L16691   5.916   3.119  13.408
   24SBC   H00816692   5.956   3.020  13.422
   24SBC   C02V16693   5.728   3.486  13.354
   24SBC   C03K16694   5.811   3.153  13.497
   24SBC   C0BK16695   5.774   3.081  13.611
   24SBC   H00T16696   5.834   2.993  13.630
   24SBC   C03H16697   5.565   3.428  13.524
   24SBC   C0BL16698   5.670   3.111  13.697
   24SBC   C0GU16699   5.657   3.044  13.818
   24SBC   H01O16700   5.725   2.963  13.838
   24SBC   C0GT16701   5.550   3.060  13.908
   24SBC   H01P16702   5.534   3.000  13.997
   24SBC   C0GS16703   5.459   3.163  13.876
   24SBC   C0GV16704   5.334   3.192  13.939
   24SBC   C0GW16705   5.275   3.124  14.052
   24SBC   H01Q16706   5.324   3.046  14.108
   24SBC   C0GX16707   5.150   3.162  14.083
   24SBC   H01R16708   5.098   3.107  14.160
   24SBC   O00L16709   5.083   3.268  14.022
   24SBC   C0GQ16710   5.266   3.293  13.873
   24SBC   C03A16711   5.436   3.469  13.585
   24SBC   C05L16712   5.143   3.345  13.923
   24SBC   C04W16713   4.659   3.716  13.908
   24SBC   C05I16714   4.528   3.738  13.960
   24SBC   C05O16715   4.471   3.645  14.042
   24SBC   C05216716   4.451   3.845  13.913
   24SBC   C04V16717   4.706   3.813  13.817
   24SBC   C04U16718   4.630   3.923  13.775
   24SBC   N00916719   4.544   3.537  14.088
   24SBC   C0GP16720   4.338   3.661  14.073
   24SBC   C05W16721   4.262   3.770  14.036
   24SBC   C07D16722   3.922   3.893  14.081
   24SBC   C06J16723   4.023   4.088  13.910
   24SBC   C05P16724   4.315   3.863  13.951
   24SBC   C05R16725   4.209   4.162  13.779
   24SBC   C04Z16726   4.504   3.939  13.824
   24SBC   C04C16727   4.388   4.226  13.634
   24SBC   C04G16728   4.569   4.303  13.491
   24SBC   C04J16729   4.825   4.270  13.386
   24SBC   C04T16730   4.680   4.014  13.683
   24SBC   N00316731   4.837   3.794  13.769
   24SBC   C04P16732   5.039   3.665  13.752
   24SBC   C03D16733   5.276   3.630  13.617
   24SBC   C02116734   5.381   3.802  13.439
   24SBC   C03F16735   5.063   3.960  13.527
   24SBC   C02216736   5.369   4.014  13.334
   24SBC   C02A16737   5.036   4.159  13.390
   24SBC   C02316738   5.342   4.214  13.199
   24SBC   C02516739   5.174   4.406  13.087
   24SBC   C02D16740   5.084   4.490  13.015
   24SBC   C02E16741   5.126   4.555  12.901
   24SBC   C02N16742   5.037   4.634  12.827
   24SBC   C04N16743   4.957   4.260  13.344
   24SBC   C02P16744   4.955   4.501  13.061
   24SBC   C04I16745   4.741   4.360  13.331
   24SBC   C04416746   4.574   4.536  13.206
   24SBC   C04316747   4.868   4.589  12.996
   24SBC   C05N16748   4.907   4.651  12.872
   24SBC   C09U16749   4.618   4.887  12.678
   24SBC   C09V16750   4.510   4.950  12.608
   24SBC   C09X16751   4.530   5.015  12.495
   24SBC   C09Y16752   4.430   5.068  12.409
   24SBC   C0A116753   4.305   5.067  12.457
   24SBC   C0A216754   4.280   5.013  12.583
   24SBC   C0A416755   4.152   5.024  12.638
   24SBC   C07116756   4.129   4.978  12.771
   24SBC   C0A516757   4.008   4.999  12.827
   24SBC   C0A916758   3.914   5.072  12.757
   24SBC   C0A816759   3.935   5.109  12.627
   24SBC   C0AP16760   3.832   5.167  12.554
   24SBC   C0BY16761   3.855   5.195  12.426
   24SBC   C0BX16762   3.974   5.185  12.362
   24SBC   C0C216763   3.995   5.231  12.224
   24SBC   C0C316764   4.119   5.217  12.173
   24SBC   C0CT16765   4.222   5.164  12.250
   24SBC   C0C116766   3.889   5.287  12.152
   24SBC   C0C016767   3.765   5.322  12.226
   24SBC   C0A716768   4.072   5.129  12.434
   24SBC   C0BZ16769   3.761   5.267  12.358
   24SBC   C0BO16770   3.651   5.314  12.423
   24SBC   C0BN16771   3.618   5.264  12.547
   24SBC   C0BM16772   3.504   5.316  12.601
   24SBC   C0B916773   3.479   5.273  12.729
   24SBC   C0B816774   3.569   5.195  12.801
   24SBC   C0AD16775   3.693   5.168  12.749
   24SBC   C0AF16776   3.546   5.163  12.933
   24SBC   C0AG16777   3.432   5.207  13.000
   24SBC   C0B716778   3.347   5.295  12.936
   24SBC   C0AE16779   3.649   5.106  12.999
   24SBC   C0AB16780   3.770   5.075  12.948
   24SBC   C0AA16781   3.864   5.001  13.016
   24SBC   C0AJ16782   3.629   5.078  13.133
   24SBC   C0AK16783   3.724   5.011  13.203
   24SBC   C06W16784   3.675   4.982  13.326
   24SBC   C0AI16785   3.511   5.092  13.206
   24SBC   C0BP16786   3.578   5.400  12.347
   24SBC   C0BQ16787   3.451   5.452  12.404
   24SBC   C0BW16788   3.715   5.202  12.617
   24SBC   C0AC16789   3.793   5.094  12.815
   24SBC   C0A616790   4.052   5.085  12.565
   24SBC   C0A316791   4.199   5.122  12.382
   24SBC   C09Z16792   4.453   5.119  12.284
   24SBC   C09W16793   4.383   4.959  12.663
   24SBC   C07216794   4.358   4.900  12.785
   24SBC   C09H16795   4.656   5.021  12.452
   24SBC   C09G16796   4.680   5.080  12.323
   24SBC   C09P16797   4.819   5.066  12.306
   24SBC   C02O16798   5.046   4.836  12.514
   24SBC   C02M16799   5.075   4.686  12.703
   24SBC   C02F16800   5.255   4.535  12.857
   24SBC   C00W16801   5.473   4.433  12.876
   24SBC   C01R16802   5.669   4.313  12.685
   24SBC   C01N16803   5.447   4.578  12.564
   24SBC   C01L16804   5.413   4.626  12.326
   24SBC   C01H16805   5.566   4.487  12.038
   24SBC   C01K16806   5.667   4.357  12.371
   24SBC   C01E16807   5.804   4.179  12.220
   24SBC   C01G16808   5.650   4.396  11.952
   24SBC   C01D16809   5.878   4.090  12.143
   24SBC   C01A16810   6.049   3.932  11.991
   24SBC   H00116811   6.115   3.867  11.935
   24SBC   C01F16812   5.817   4.220  11.806
   24SBC   C03P16813   5.833   4.225  11.518
   24SBC   C03T16814   5.648   4.378  11.518
   24SBC   C08I16815   5.449   4.534  11.398
   24SBC   C08J16816   5.349   4.616  11.349
   24SBC   C08L16817   5.169   4.780  11.385
   24SBC   C09316818   4.979   4.935  11.425
   24SBC   C08Z16819   5.066   4.950  11.696
   24SBC   C09T16820   4.647   5.177  11.656
   24SBC   C09S16821   4.909   5.118  11.890
   24SBC   C09Q16822   4.865   5.098  12.179
   24SBC   C09F16823   4.581   5.121  12.242
   24SBC   C09E16824   4.572   5.206  11.889
   24SBC   C0A016825   4.350   5.156  12.196
   24SBC   C0CU16826   4.137   5.240  12.033
   24SBC   C0CR16827   4.030   5.290  11.958
   24SBC   C0CZ16828   4.048   5.318  11.819
   24SBC   C0DA16829   4.532   5.193  11.754
   24SBC   C0D916830   4.382   5.446  11.571
   24SBC   H00V16831   4.479   5.493  11.575
   24SBC   C0CY16832   4.178   5.299  11.768
   24SBC   C0DF16833   4.263   5.503  11.514
   24SBC   C0DE16834   4.203   5.630  11.488
   24SBC   C0GI16835   4.256   5.758  11.448
   24SBC   H01K16836   4.358   5.773  11.416
   24SBC   C0GJ16837   4.166   5.856  11.419
   24SBC   H01J16838   4.209   5.946  11.379
   24SBC   O00I16839   4.030   5.850  11.433
   24SBC   C0GH16840   3.971   5.732  11.487
   24SBC   C0GG16841   3.831   5.746  11.524
   24SBC   O00G16842   3.772   5.862  11.477
   24SBC   C0G816843   3.652   5.902  11.522
   24SBC   C0G916844   3.599   6.011  11.453
   24SBC   H01G16845   3.651   6.061  11.373
   24SBC   C0GA16846   3.478   6.063  11.496
   24SBC   H01H16847   3.432   6.144  11.441
   24SBC   C0GB16848   3.414   6.024  11.616
   24SBC   C0EP16849   3.470   5.913  11.685
   24SBC   C0E816850   3.408   5.872  11.810
   24SBC   C0CK16851   3.434   5.782  11.920
   24SBC   C0CL16852   3.480   5.655  11.881
   24SBC   C0E916853   3.570   5.639  11.777
   24SBC   C0GE16854   3.638   5.721  11.672
   24SBC   C0E716855   3.294   5.942  11.860
   24SBC   C0CJ16856   3.249   5.894  11.986
   24SBC   C0E616857   3.128   5.941  12.039
   24SBC   H00Y16858   3.077   5.909  12.128
   24SBC   C0EO16859   3.068   6.036  11.956
   24SBC   H01116860   2.972   6.077  11.983
   24SBC   C0G616861   3.128   6.091  11.837
   24SBC   C0G516862   3.070   6.199  11.759
   24SBC   H01F16863   2.979   6.251  11.785
   24SBC   C0GD16864   3.125   6.244  11.646
   24SBC   H01I16865   3.069   6.312  11.584
   24SBC   O00H16866   3.247   6.192  11.601
   24SBC   C0EQ16867   3.244   6.037  11.780
   24SBC   C0GC16868   3.298   6.086  11.670
   24SBC   C0G716869   3.580   5.845  11.633
   24SBC   C0DD16870   4.057   5.620  11.506
   24SBC   C0GF16871   3.753   5.660  11.605
   24SBC   C0CO16872   3.610   5.503  11.794
   24SBC   C0D016873   3.930   5.374  11.754
   24SBC   C0C416874   3.895   5.307  12.018
   24SBC   C0CN16875   3.551   5.438  11.900
   24SBC   C0CP16876   3.647   5.413  12.226
   24SBC   C0CM16877   3.462   5.531  11.963
   24SBC   C0CI16878   3.347   5.798  12.033
   24SBC   C0CD16879   3.196   5.844  12.485
   24SBC   C0BR16880   3.387   5.563  12.342
   24SBC   C0CS16881   3.430   5.414  12.536
   24SBC   C0B616882   3.380   5.336  12.804
   24SBC   C0CG16883   3.194   5.666  12.645
   24SBC   C0CF16884   3.158   5.794  12.609
   24SBC   C0E516885   3.122   6.067  12.561
   24SBC   C0DT16886   2.957   6.214  12.722
   24SBC   C0DL16887   2.951   5.889  12.898
   24SBC   C0DM16888   2.897   5.835  13.014
   24SBC   C0DY16889   2.788   6.039  13.070
   24SBC   C0DU16890   2.871   6.281  12.804
   24SBC   C0F016891   2.807   6.500  12.886
   24SBC   C0F416892   2.741   6.666  13.094
   24SBC   C0FG16893   2.622   6.335  13.199
   24SBC   O00B16894   2.662   6.669  13.323
   24SBC   C0FN16895   2.594   6.303  13.323
   24SBC   C0DZ16896   2.714   6.119  13.163
   24SBC   O00C16897   2.669   5.881  13.443
   24SBC   C0FR16898   2.682   5.756  13.472
   24SBC   O00D16899   2.610   5.709  13.563
   24SBC   C0E016900   2.826   5.914  13.104
   24SBC   C0E316901   2.777   5.680  13.396
   24SBC   C0AW16902   2.823   5.558  13.431
   24SBC   C0AV16903   2.792   5.486  13.552
   24SBC   H00Q16904   2.727   5.529  13.626
   24SBC   C0AU16905   2.850   5.362  13.594
   24SBC   H00R16906   2.829   5.319  13.691
   24SBC   C0AT16907   2.941   5.304  13.503
   24SBC   C0AS16908   3.021   5.180  13.491
   24SBC   C0AR16909   3.003   5.055  13.563
   24SBC   C0BE16910   2.970   5.379  13.390
   24SBC   C0DN16911   2.931   5.706  13.049
   24SBC   C0AX16912   2.907   5.495  13.343
   24SBC   C0BB16913   3.087   5.525  13.028
   24SBC   C0BD16914   3.069   5.310  13.314
   24SBC   C0B216915   3.245   5.346  13.007
   24SBC   C0AH16916   3.404   5.167  13.138
   24SBC   C0BF16917   3.117   5.196  13.380
   24SBC   C0AL16918   3.537   5.037  13.337
   24SBC   C07U16919   3.251   4.965  13.539
   24SBC   C0AQ16920   3.120   4.970  13.583
   24SBC   C0BG16921   2.891   4.990  13.630
   24SBC   C0FY16922   2.921   4.795  13.922
   24SBC   C0BJ16923   2.788   5.044  13.721
   24SBC   H00S16924   2.734   5.137  13.722
   24SBC   C0FZ16925   2.843   4.849  14.020
   24SBC   C07S16926   3.052   4.743  13.947
   24SBC   C0G116927   2.994   4.719  14.315
   24SBC   C07K16928   3.332   4.562  14.303
   24SBC   C07H16929   3.305   4.640  14.028
   24SBC   C06B16930   3.499   4.349  14.003
   24SBC   C06N16931   3.657   4.427  13.853
   24SBC   C06616932   3.379   4.689  13.783
   24SBC   C06216933   3.585   4.810  13.580
   24SBC   C05Y16934   3.832   4.516  13.688
   24SBC   C06116935   3.717   4.846  13.531
   24SBC   C05H16936   3.991   4.644  13.407
   24SBC   C06V16937   3.747   4.894  13.398
   24SBC   C06Y16938   3.841   4.960  13.142
   24SBC   C05C16939   4.138   4.747  13.210
   24SBC   C06Z16940   3.982   4.960  12.957
   24SBC   C07016941   4.229   4.913  12.842
   24SBC   C05B16942   4.264   4.724  13.144
   24SBC   C05716943   4.520   4.686  13.033
   24SBC   C05916944   4.460   4.831  12.854
   25SBC   C05816945   9.595   4.921  10.735
   25SBC   C05A16946   9.504   4.957  10.836
   25SBC   C06Q16947   9.443   5.076  10.821
   25SBC   C06R16948   9.357   5.122  10.924
   25SBC   C06S16949   9.338   5.050  11.044
   25SBC   C06T16950   9.283   5.116  11.153
   25SBC   C06U16951   9.263   5.067  11.291
   25SBC   C06X16952   9.259   4.938  11.342
   25SBC   C06016953   9.251   4.940  11.491
   25SBC   C05Z16954   9.176   4.850  11.577
   25SBC   C06816955   9.103   4.946  11.668
   25SBC   C06716956   9.027   4.912  11.786
   25SBC   C06916957   9.000   4.775  11.831
   25SBC   C06A16958   8.942   4.732  11.956
   25SBC   C07316959   8.972   4.790  12.082
   25SBC   C07P16960   9.036   4.714  12.183
   25SBC   C07O16961   9.126   4.600  12.163
   25SBC   H00D16962   9.157   4.576  12.063
   25SBC   C07N16963   9.185   4.533  12.270
   25SBC   H00E16964   9.248   4.448  12.252
   25SBC   C07M16965   9.152   4.570  12.400
   25SBC   H00F16966   9.182   4.510  12.485
   25SBC   C07L16967   9.064   4.678  12.422
   25SBC   C07Q16968   9.022   4.725  12.552
   25SBC   H00G16969   9.081   4.689  12.635
   25SBC   O00F16970   8.935   4.825  12.580
   25SBC   C07J16971   8.895   4.896  12.472
   25SBC   C07I16972   8.918   4.858  12.340
   25SBC   N00416973   8.868   4.936  12.226
   25SBC   C07R16974   8.788   5.050  12.257
   25SBC   C07T16975   8.772   5.089  12.394
   25SBC   C0FX16976   8.720   5.207  12.435
   25SBC   C0FW16977   8.726   5.260  12.565
   25SBC   C0G016978   8.767   5.176  12.668
   25SBC   C0G216979   8.781   5.219  12.799
   25SBC   H01E16980   8.795   5.146  12.877
   25SBC   C0G316981   8.760   5.353  12.823
   25SBC   H01C16982   8.771   5.384  12.926
   25SBC   C0G416983   8.721   5.438  12.718
   25SBC   H01D16984   8.700   5.540  12.746
   25SBC   O00E16985   8.796   5.048  12.629
   25SBC   C0FV16986   8.703   5.397  12.587
   25SBC   C0FU16987   8.664   5.478  12.477
   25SBC   H01B16988   8.646   5.584  12.489
   25SBC   C0FT16989   8.653   5.423  12.352
   25SBC   C0FS16990   8.652   5.470  12.216
   25SBC   C0BI16991   8.623   5.359  12.127
   25SBC   C0BH16992   8.668   5.397  12.004
   25SBC   C07F16993   8.779   5.341  11.930
   25SBC   C07E16994   8.831   5.213  11.937
   25SBC   C07G16995   8.806   5.122  12.031
   25SBC   C07416996   8.872   5.005  11.994
   25SBC   C06516997   8.928   5.160  11.847
   25SBC   C06416998   8.971   5.246  11.745
   25SBC   C06316999   9.059   5.221  11.644
   25SBC   C07517000   9.080   5.358  11.584
   25SBC   C0AM17001   9.003   5.462  11.649
   25SBC   C0AN17002   8.992   5.607  11.610
   25SBC   C0AO17003   9.036   5.688  11.493
   25SBC   C0B117004   9.032   5.833  11.484
   25SBC   C0B017005   8.995   5.908  11.591
   25SBC   C0AZ17006   8.984   6.046  11.596
   25SBC   C0AY17007   8.934   6.109  11.705
   25SBC   N00717008   8.920   6.243  11.707
   25SBC   C0E217009   8.857   6.309  11.818
   25SBC   C0E117010   8.876   6.448  11.825
   25SBC   C0E417011   8.808   6.511  11.929
   25SBC   C0FF17012   8.828   6.649  11.950
   25SBC   C0FJ17013   8.762   6.745  12.041
   25SBC   C0FK17014   8.619   6.750  12.056
   25SBC   H01617015   8.556   6.670  12.019
   25SBC   C0FL17016   8.580   6.885  12.079
   25SBC   H01717017   8.486   6.938  12.079
   25SBC   C0FM17018   8.706   6.962  12.091
   25SBC   C0FH17019   8.755   7.090  12.045
   25SBC   C0FI17020   8.885   7.064  11.987
   25SBC   C0F317021   8.915   7.133  11.867
   25SBC   C0F217022   8.991   7.060  11.784
   25SBC   C0DW17023   9.009   6.923  11.779
   25SBC   C0FE17024   8.962   6.846  11.880
   25SBC   C0DV17025   9.052   6.854  11.664
   25SBC   C0DX17026   9.034   6.719  11.652
   25SBC   C0DK17027   9.073   6.657  11.534
   25SBC   C0DJ17028   9.120   6.731  11.421
   25SBC   C0DI17029   9.140   6.667  11.297
   25SBC   C0DH17030   9.126   6.533  11.284
   25SBC   C0DG17031   9.078   6.460  11.391
   25SBC   C0BV17032   9.054   6.327  11.378
   25SBC   C0BC17033   9.014   6.255  11.484
   25SBC   C0BA17034   9.084   6.263  11.256
   25SBC   C0B417035   9.084   6.124  11.254
   25SBC   C0B317036   9.053   6.048  11.368
   25SBC   C0B517037   9.111   6.062  11.137
   25SBC   C0BU17038   9.132   6.137  11.021
   25SBC   C0BT17039   9.142   6.275  11.022
   25SBC   C0BS17040   9.165   6.347  10.900
   25SBC   C0CC17041   9.192   6.484  10.921
   25SBC   C0CB17042   9.227   6.564  10.812
   25SBC   C0CH17043   9.293   6.685  10.843
   25SBC   C0DO17044   9.275   6.752  10.969
   25SBC   C0DP17045   9.293   6.890  10.984
   25SBC   C0EA17046   9.336   6.969  10.874
   25SBC   H01217047   9.381   6.924  10.787
   25SBC   O00917048   9.329   7.108  10.876
   25SBC   C0EH17049   9.243   7.158  10.968
   25SBC   C0EG17050   9.202   7.290  10.949
   25SBC   C0EJ17051   9.219   7.390  10.844
   25SBC   H01017052   9.276   7.376  10.753
   25SBC   C0EK17053   9.133   7.508  10.881
   25SBC   H00Z17054   9.110   7.589  10.814
   25SBC   C0EL17055   9.068   7.482  11.007
   25SBC   C0EM17056   8.975   7.549  11.091
   25SBC   C0EW17057   8.906   7.671  11.061
   25SBC   H01317058   8.918   7.717  10.965
   25SBC   C0EX17059   8.818   7.733  11.164
   25SBC   H01417060   8.766   7.826  11.145
   25SBC   C0F117061   8.808   7.667  11.294
   25SBC   C0EU17062   8.876   7.543  11.316
   25SBC   C0ET17063   8.876   7.462  11.431
   25SBC   C0ES17064   8.956   7.355  11.399
   25SBC   C0EE17065   9.008   7.364  11.263
   25SBC   C0ED17066   9.083   7.294  11.164
   25SBC   C0EC17067   9.134   7.160  11.186
   25SBC   C0EB17068   9.125   7.087  11.310
   25SBC   C0EN17069   9.070   7.140  11.436
   25SBC   C0ER17070   9.081   7.064  11.555
   25SBC   C0DS17071   9.147   6.947  11.316
   25SBC   C0DR17072   9.180   6.878  11.200
   25SBC   C0EY17073   9.016   7.263  11.482
   25SBC   C0EZ17074   8.970   7.254  11.622
   25SBC   C0F517075   8.873   7.321  11.709
   25SBC   C0F617076   8.796   7.434  11.668
   25SBC   N00817077   8.700   7.482  11.771
   25SBC   C0F717078   8.681   7.416  11.898
   25SBC   C0FQ17079   8.595   7.480  11.990
   25SBC   H01817080   8.584   7.447  12.092
   25SBC   C0FP17081   8.520   7.596  11.968
   25SBC   H01917082   8.447   7.641  12.034
   25SBC   C0FO17083   8.540   7.651  11.841
   25SBC   H01A17084   8.473   7.734  11.822
   25SBC   C0F817085   8.745   7.290  11.911
   25SBC   C0F917086   8.626   7.599  11.743
   25SBC   C0FA17087   8.626   7.673  11.619
   25SBC   H01517088   8.563   7.759  11.606
   25SBC   C0FB17089   8.729   7.630  11.526
   25SBC   C0FD17090   8.803   7.514  11.547
   25SBC   C0FC17091   8.720   7.707  11.402
   25SBC   O00A17092   8.647   7.808  11.388
   25SBC   C0EV17093   8.950   7.487  11.217
   25SBC   C0EF17094   9.118   7.353  11.044
   25SBC   C0EI17095   9.209   7.092  11.087
   25SBC   C0DQ17096   9.237   6.953  11.094
   25SBC   C0CE17097   9.213   6.680  11.070
   25SBC   H00U17098   9.354   6.736  10.770
   25SBC   C0CA17099   9.218   6.515  10.675
   25SBC   C0C917100   9.196   6.371  10.653
   25SBC   C0C817101   9.179   6.322  10.514
   25SBC   C0C717102   9.199   6.193  10.449
   25SBC   C0C617103   9.172   6.181  10.308
   25SBC   C0C517104   9.217   6.101  10.196
   25SBC   C0CQ17105   9.218   6.160  10.066
   25SBC   C0D117106   9.217   6.300  10.071
   25SBC   C0D817107   9.305   6.355   9.978
   25SBC   C0D717108   9.341   6.246   9.891
   25SBC   C0D617109   9.435   6.249   9.781
   25SBC   C0D517110   9.472   6.134   9.708
   25SBC   C0D417111   9.441   5.995   9.724
   25SBC   C0D317112   9.547   5.924   9.658
   25SBC   C0CX17113   9.570   5.803   9.732
   25SBC   C0CW17114   9.506   5.821   9.869
   25SBC   C0CV17115   9.507   5.749   9.995
   25SBC   C0D217116   9.591   5.633  10.020
   25SBC   C09D17117   9.696   5.584   9.940
   25SBC   C09C17118   9.783   5.484   9.979
   25SBC   C09B17119   9.883   5.418   9.900
   25SBC   C09A17120   9.897   5.467   9.769
   25SBC   C09917121   9.830   5.571   9.727
   25SBC   C09817122   9.832   5.583   9.589
   25SBC   C08Y17123   9.895   5.453   9.543
   25SBC   C08X17124   9.885   5.385   9.412
   25SBC   C08W17125   9.799   5.439   9.309
   25SBC   C08U17126   9.713   5.561   9.319
   25SBC   C08V17127   9.668   5.654   9.416
   25SBC   C0DC17128   9.569   5.737   9.360
   25SBC   H00W17129   9.527   5.815   9.422
   25SBC   C0DB17130   9.542   5.708   9.227
   25SBC   H00X17131   9.474   5.756   9.159
   25SBC   C08T17132   9.628   5.593   9.204
   25SBC   C08S17133   9.633   5.531   9.081
   25SBC   H00N17134   9.576   5.568   8.997
   25SBC   C08R17135   9.724   5.421   9.062
   25SBC   C08Q17136   9.741   5.350   8.939
   25SBC   H00O17137   9.695   5.397   8.853
   25SBC   C08P17138   9.814   5.229   8.926
   25SBC   C08O17139   9.833   5.160   8.804
   25SBC   H00P17140   9.785   5.205   8.719
   25SBC   C08N17141   9.902   5.034   8.799
   25SBC   C08M17142   9.917   4.975   8.672
   25SBC   O00817143   9.879   5.015   8.559
   25SBC   O00717144   9.991   4.863   8.672
   25SBC   C08H17145  10.043   4.798   8.779
   25SBC   C08G17146  10.102   4.667   8.777
   25SBC   C03V17147  10.118   4.574   8.668
   25SBC   H00917148  10.072   4.606   8.576
   25SBC   C03U17149  10.183   4.446   8.681
   25SBC   C03W17150  10.211   4.350   8.575
   25SBC   H00A17151  10.179   4.371   8.474
   25SBC   C03X17152  10.274   4.236   8.604
   25SBC   H00B17153  10.291   4.161   8.528
   25SBC   O00517154  10.321   4.195   8.733
   25SBC   C03O17155  10.295   4.287   8.833
   25SBC   C03N17156  10.330   4.242   8.958
   25SBC   O00017157  10.399   4.123   8.968
   25SBC   C01917158  10.435   4.072   9.089
   25SBC   C01817159  10.404   4.140   9.207
   25SBC   C01717160  10.343   4.269   9.197
   25SBC   C01617161  10.312   4.342   9.310
   25SBC   C01517162  10.339   4.277   9.429
   25SBC   C01417163  10.315   4.345   9.547
   25SBC   C01317164  10.281   4.482   9.548
   25SBC   C01217165  10.265   4.513   9.694
   25SBC   C01117166  10.308   4.391   9.760
   25SBC   C01017167  10.333   4.391   9.891
   25SBC   C00Z17168  10.356   4.284   9.972
   25SBC   C00Y17169  10.330   4.333  10.104
   25SBC   C01O17170  10.303   4.473  10.105
   25SBC   C01P17171  10.202   4.517  10.190
   25SBC   C02L17172  10.134   4.632  10.153
   25SBC   C02K17173  10.160   4.684  10.025
   25SBC   C01M17174  10.228   4.607   9.917
   25SBC   C02J17175  10.110   4.819  10.011
   25SBC   C02I17176  10.128   4.894   9.900
   25SBC   C02H17177  10.169   4.866   9.766
   25SBC   C01Q17178  10.222   4.749   9.708
   25SBC   C02G17179  10.230   4.770   9.568
   25SBC   C08917180  10.203   4.908   9.550
   25SBC   C08817181  10.158   4.928   9.424
   25SBC   C08717182  10.174   4.798   9.354
   25SBC   C08617183  10.134   4.766   9.219
   25SBC   C03S17184  10.174   4.650   9.143
   25SBC   N00617185  10.139   4.684   9.010
   25SBC   C08F17186  10.072   4.800   9.006
   25SBC   C01J17187  10.233   4.524   9.170
   25SBC   C03R17188  10.250   4.448   9.055
   25SBC   C03Q17189  10.213   4.492   8.921
   25SBC   C08E17190  10.062   4.857   9.132
   25SBC   C08D17191  10.002   4.992   9.150
   25SBC   C08K17192   9.944   5.049   9.034
   25SBC   C08C17193  10.011   5.073   9.264
   25SBC   C09117194   9.940   5.195   9.265
   25SBC   C09217195   9.869   5.253   9.153
   25SBC   C08B17196  10.085   5.054   9.387
   25SBC   C09017197  10.047   5.174   9.465
   25SBC   C09417198  10.093   5.196   9.603
   25SBC   C09517199  10.031   5.293   9.690
   25SBC   C09R17200  10.031   5.249   9.823
   25SBC   C09717201  10.083   5.122   9.830
   25SBC   C09617202  10.123   5.096   9.698
   25SBC   C01I17203  10.227   4.696   9.443
   25SBC   C08A17204  10.161   4.966   9.670
   25SBC   C09L17205  10.089   5.023   9.932
   25SBC   C09K17206  10.042   5.022  10.068
   25SBC   C09J17207   9.967   5.124  10.123
   25SBC   C09I17208   9.879   5.106  10.233
   25SBC   C09O17209   9.845   5.001  10.332
   25SBC   C09N17210   9.909   4.875  10.331
   25SBC   C09M17211  10.000   4.823  10.235
   25SBC   C06O17212   9.873   4.793  10.443
   25SBC   C05M17213   9.783   4.839  10.543
   25SBC   C06P17214   9.715   4.965  10.532
   25SBC   C04217215   9.752   4.756  10.653
   25SBC   C04117216   9.816   4.637  10.671
   25SBC   C04017217   9.780   4.553  10.782
   25SBC   C03Z17218   9.833   4.424  10.793
   25SBC   C03Y17219   9.916   4.374  10.698
   25SBC   C02717220   9.965   4.243  10.707
   25SBC   C02617221  10.051   4.193  10.606
   25SBC   C02817222  10.098   4.062  10.609
   25SBC   C02917223  10.049   3.980  10.708
   25SBC   C02B17224  10.074   3.844  10.704
   25SBC   C02C17225  10.025   3.758  10.802
   25SBC   C02X17226  10.052   3.623  10.795
   25SBC   C03E17227  10.013   3.545  10.897
   25SBC   C03G17228   9.933   3.584  10.996
   25SBC   C04Q17229   9.904   3.720  11.007
   25SBC   C04R17230   9.822   3.767  11.104
   25SBC   C04S17231   9.782   3.901  11.109
   25SBC   C04L17232   9.826   3.986  11.006
   25SBC   C04M17233   9.915   3.941  10.908
   25SBC   C04K17234   9.786   4.118  10.999
   25SBC   C04F17235   9.698   4.162  11.097
   25SBC   C04E17236   9.652   4.080  11.197
   25SBC   C04D17237   9.556   4.125  11.293
   25SBC   C05017238   9.498   4.039  11.381
   25SBC   C05117239   9.409   4.085  11.479
   25SBC   C05Q17240   9.350   3.999  11.569
   25SBC   C05V17241   9.263   4.053  11.665
   25SBC   N00517242   9.213   3.965  11.761
   25SBC   C07V17243   9.251   3.826  11.755
   25SBC   C08217244   9.204   3.739  11.852
   25SBC   C08117245   9.117   3.790  11.955
   25SBC   C07C17246   9.071   3.919  11.948
   25SBC   C07B17247   8.988   3.969  12.048
   25SBC   C08017248   8.948   3.893  12.153
   25SBC   C07Z17249   8.865   3.946  12.256
   25SBC   H00L17250   8.839   3.894  12.347
   25SBC   C07917251   8.812   4.073  12.248
   25SBC   C07817252   8.859   4.153  12.143
   25SBC   C07717253   8.815   4.287  12.140
   25SBC   C07X17254   8.714   4.339  12.227
   25SBC   H00I17255   8.659   4.432  12.229
   25SBC   C07Y17256   8.662   4.253  12.321
   25SBC   H00H17257   8.578   4.280  12.384
   25SBC   C07617258   8.874   4.373  12.046
   25SBC   C06C17259   8.849   4.514  12.053
   25SBC   H00C17260   8.809   4.559  12.142
   25SBC   C06F17261   8.961   4.323  11.953
   25SBC   C06E17262   9.015   4.406  11.852
   25SBC   C06G17263   9.106   4.372  11.759
   25SBC   C06H17264   9.135   4.235  11.757
   25SBC   C06I17265   9.084   4.148  11.853
   25SBC   C06L17266   9.155   4.469  11.668
   25SBC   C06M17267   9.125   4.606  11.667
   25SBC   C06K17268   9.240   4.417  11.574
   25SBC   C05S17269   9.279   4.279  11.570
   25SBC   C05U17270   9.286   4.498  11.466
   25SBC   C05X17271   9.251   4.637  11.462
   25SBC   C05G17272   9.285   4.701  11.333
   25SBC   C05F17273   9.361   4.627  11.243
   25SBC   C05E17274   9.400   4.705  11.139
   25SBC   C04817275   9.494   4.666  11.045
   25SBC   C05617276   9.530   4.750  10.947
   25SBC   C04517277   9.629   4.720  10.858
   25SBC   C04717278   9.550   4.546  11.068
   25SBC   C04917279   9.509   4.462  11.176
   25SBC   C04B17280   9.565   4.338  11.189
   25SBC   C04617281   9.649   4.504  10.982
   25SBC   C04H17282   9.697   4.378  10.993
   25SBC   C05D17283   9.341   4.829  11.150
   25SBC   C04A17284   9.419   4.506  11.269
   25SBC   C05T17285   9.373   4.438  11.374
   25SBC   C05517286   9.422   4.306  11.382
   25SBC   C06D17287   8.984   4.541  11.856
   25SBC   C07W17288   8.990   4.188  11.947
   25SBC   C08517289   8.719   4.127  12.342
   25SBC   H00M17290   8.683   4.066  12.423
   25SBC   C08417291   8.992   3.758  12.155
   25SBC   H00J17292   8.954   3.685  12.225
   25SBC   C07A17293   8.941   4.101  12.042
   25SBC   C08317294   9.071   3.709  12.052
   25SBC   H00K17295   9.099   3.604  12.057
   25SBC   O00K17296   9.239   3.608  11.858
   25SBC   C0GO17297   9.338   3.566  11.777
   25SBC   C0GN17298   9.383   3.441  11.787
   25SBC   H01L17299   9.345   3.370  11.859
   25SBC   C0GM17300   9.489   3.391  11.700
   25SBC   C0GL17301   9.544   3.268  11.716
   25SBC   H01M17302   9.500   3.203  11.790
   25SBC   O00J17303   9.644   3.223  11.638
   25SBC   C0GK17304   9.671   3.295  11.525
   25SBC   H01N17305   9.728   3.241  11.451
   25SBC   C05K17306   9.619   3.419  11.503
   25SBC   C05J17307   9.659   3.495  11.388
   25SBC   C04Y17308   9.739   3.452  11.279
   25SBC   C04X17309   9.794   3.539  11.186
   25SBC   O00617310   9.747   3.313  11.252
   25SBC   C05317311   9.823   3.261  11.151
   25SBC   C04O17312   9.893   3.352  11.067
   25SBC   C03C17313   9.979   3.315  10.957
   25SBC   C03B17314  10.032   3.190  10.894
   25SBC   C05417315   9.976   3.067  10.924
   25SBC   C0GR17316  10.015   2.952  10.855
   25SBC   C03M17317  10.084   2.920  10.726
   25SBC   C03I17318  10.146   3.013  10.634
   25SBC   C03J17319  10.200   2.967  10.511
   25SBC   N00217320  10.252   3.053  10.414
   25SBC   C02U17321  10.296   3.008  10.287
   25SBC   C02T17322  10.338   3.094  10.186
   25SBC   C02Z17323  10.377   3.044  10.060
   25SBC   N00117324  10.412   3.131   9.952
   25SBC   C02R17325  10.453   3.076   9.825
   25SBC   C03217326  10.453   2.938   9.813
   25SBC   C03117327  10.417   2.854   9.926
   25SBC   H00717328  10.407   2.747   9.918
   25SBC   C03317329  10.505   2.893   9.685
   25SBC   H00317330  10.527   2.788   9.670
   25SBC   O00417331  10.550   2.973   9.587
   25SBC   C03417332  10.523   3.110   9.600
   25SBC   C03517333  10.544   3.185   9.485
   25SBC   C03617334  10.514   3.327   9.484
   25SBC   H00517335  10.520   3.379   9.390
   25SBC   C03717336  10.462   3.380   9.610
   25SBC   H00617337  10.428   3.482   9.603
   25SBC   C00D17338  10.461   3.305   9.729
   25SBC   C00C17339  10.423   3.361   9.848
   25SBC   C00B17340  10.419   3.509   9.871
   25SBC   C00A17341  10.418   3.651   9.808
   25SBC   C00917342  10.402   3.737   9.920
   25SBC   C00817343  10.401   3.875   9.929
   25SBC   C00717344  10.408   3.945   9.815
   25SBC   C00617345  10.382   4.083   9.816
   25SBC   C00517346  10.376   4.150   9.690
   25SBC   C00417347  10.406   4.083   9.572
   25SBC   C00317348  10.454   3.952   9.574
   25SBC   C00217349  10.512   3.891   9.464
   25SBC   C01C17350  10.493   3.955   9.338
   25SBC   C01B17351  10.538   3.899   9.218
   25SBC   H00017352  10.592   3.805   9.213
   25SBC   C00117353  10.569   3.766   9.479
   25SBC   C00017354  10.556   3.695   9.602
   25SBC   C01U17355  10.657   3.593   9.604
   25SBC   H00217356  10.687   3.525   9.682
   25SBC   C01T17357  10.728   3.608   9.473
   25SBC   O00217358  10.810   3.534   9.427
   25SBC   O00117359  10.666   3.706   9.405
   25SBC   C01S17360  10.442   3.879   9.694
   25SBC   C00N17361  10.369   3.930  10.056
   25SBC   C00M17362  10.348   3.854  10.167
   25SBC   C00J17363  10.365   3.716  10.164
   25SBC   C00I17364  10.330   3.632  10.263
   25SBC   C00H17365  10.331   3.494  10.243
   25SBC   C00G17366  10.360   3.446  10.120
   25SBC   C00F17367  10.365   3.311  10.095
   25SBC   C01X17368  10.301   3.407  10.347
   25SBC   C01W17369  10.246   3.458  10.464
   25SBC   C01V17370  10.236   3.599  10.479
   25SBC   C02017371  10.172   3.657  10.585
   25SBC   C01Z17372  10.200   3.374  10.562
   25SBC   C02Y17373  10.155   3.443  10.674
   25SBC   C03917374  10.111   3.362  10.780
   25SBC   C02W17375  10.205   3.240  10.552
   25SBC   C01Y17376  10.297   3.274  10.329
   25SBC   C00U17377  10.275   3.685  10.376
   25SBC   C00S17378  10.260   3.822  10.386
   25SBC   C00T17379  10.193   3.877  10.495
   25SBC   C00R17380  10.292   3.906  10.279
   25SBC   C00Q17381  10.262   4.038  10.282
   25SBC   C00V17382  10.202   4.090  10.396
   25SBC   C02417383  10.163   4.223  10.401
   25SBC   C00X17384  10.205   4.306  10.301
   25SBC   C00P17385  10.299   4.120  10.182
   25SBC   C00O17386  10.343   4.066  10.059
   25SBC   C00K17387  10.388   3.662  10.037
   25SBC   N00017388  10.473   3.737   9.703
   25SBC   C00L17389  10.399   3.532  10.012
   25SBC   H00417390  10.571   3.138   9.392
   25SBC   C02Q17391  10.482   3.167   9.724
   25SBC   C00E17392  10.407   3.273   9.965
   25SBC   C03017393  10.381   2.908  10.049
   25SBC   O00317394  10.335   2.824  10.147
   25SBC   C02S17395  10.339   3.229  10.203
   25SBC   C03817396  10.298   2.869  10.268
   25SBC   C03L17397  10.246   2.782  10.358
   25SBC   H00817398  10.241   2.678  10.331
   25SBC   C02V17399  10.258   3.191  10.431
   25SBC   C03K17400  10.201   2.832  10.483
   25SBC   C0BK17401  10.152   2.747  10.584
   25SBC   H00T17402  10.168   2.640  10.577
   25SBC   C03H17403  10.157   3.152  10.657
   25SBC   C0BL17404  10.093   2.784  10.703
   25SBC   C0GU17405  10.048   2.684  10.796
   25SBC   H01O17406  10.054   2.579  10.770
   25SBC   C0GT17407   9.981   2.710  10.914
   25SBC   H01P17408   9.942   2.627  10.970
   25SBC   C0GS17409   9.967   2.846  10.939
   25SBC   C0GV17410   9.895   2.896  11.051
   25SBC   C0GW17411   9.835   2.826  11.158
   25SBC   H01Q17412   9.850   2.719  11.153
   25SBC   C0GX17413   9.774   2.903  11.246
   25SBC   H01R17414   9.736   2.852  11.332
   25SBC   O00L17415   9.766   3.043  11.239
   25SBC   C0GQ17416   9.890   3.039  11.035
   25SBC   C03A17417  10.102   3.224  10.776
   25SBC   C05L17418   9.821   3.116  11.135
   25SBC   C04W17419   9.625   3.632  11.385
   25SBC   C05I17420   9.535   3.687  11.486
   25SBC   C05O17421   9.492   3.609  11.588
   25SBC   C05217422   9.493   3.817  11.477
   25SBC   C04V17423   9.676   3.724  11.295
   25SBC   C04U17424   9.640   3.857  11.295
   25SBC   N00917425   9.534   3.477  11.599
   25SBC   C0GP17426   9.391   3.648  11.674
   25SBC   C05W17427   9.341   3.780  11.662
   25SBC   C07D17428   9.121   4.014  11.854
   25SBC   C06J17429   9.231   4.188  11.665
   25SBC   C05P17430   9.389   3.866  11.565
   25SBC   C05R17431   9.368   4.225  11.481
   25SBC   C04Z17432   9.541   3.905  11.383
   25SBC   C04C17433   9.518   4.256  11.291
   25SBC   C04G17434   9.649   4.293  11.092
   25SBC   C04J17435   9.835   4.206  10.902
   25SBC   C04T17436   9.693   3.943  11.201
   25SBC   N00317437   9.767   3.677  11.200
   25SBC   C04P17438   9.879   3.492  11.086
   25SBC   C03D17439  10.043   3.411  10.883
   25SBC   C02117440  10.128   3.575  10.686
   25SBC   C03F17441   9.949   3.806  10.908
   25SBC   C02217442  10.147   3.793  10.596
   25SBC   C02A17443   9.968   4.025  10.810
   25SBC   C02317444  10.167   4.011  10.503
   25SBC   C02517445  10.084   4.279  10.501
   25SBC   C02D17446  10.032   4.409  10.491
   25SBC   C02E17447  10.062   4.487  10.377
   25SBC   C02N17448  10.011   4.617  10.362
   25SBC   C04N17449   9.925   4.160  10.810
   25SBC   C02P17450   9.952   4.460  10.590
   25SBC   C04I17451   9.791   4.338  10.900
   25SBC   C04417452   9.685   4.596  10.876
   25SBC   C04317453   9.901   4.587  10.574
   25SBC   C05N17454   9.935   4.668  10.463
   25SBC   C09U17455   9.742   5.043  10.425
   25SBC   C09V17456   9.676   5.166  10.410
   25SBC   C09X17457   9.697   5.250  10.308
   25SBC   C09Y17458   9.625   5.366  10.284
   25SBC   C0A117459   9.525   5.401  10.369
   25SBC   C0A217460   9.502   5.319  10.480
   25SBC   C0A417461   9.413   5.357  10.578
   25SBC   C07117462   9.397   5.278  10.690
   25SBC   C0A517463   9.328   5.329  10.795
   25SBC   C0A917464   9.284   5.466  10.788
   25SBC   C0A817465   9.292   5.537  10.668
   25SBC   C0AP17466   9.246   5.666  10.666
   25SBC   C0BY17467   9.258   5.732  10.547
   25SBC   C0BX17468   9.321   5.689  10.434
   25SBC   C0C217469   9.343   5.767  10.322
   25SBC   C0C317470   9.411   5.723  10.213
   25SBC   C0CT17471   9.475   5.600  10.229
   25SBC   C0C117472   9.306   5.904  10.322
   25SBC   C0C017473   9.271   5.961  10.456
   25SBC   C0A717474   9.366   5.558  10.437
   25SBC   C0BZ17475   9.252   5.871  10.558
   25SBC   C0BO17476   9.222   5.933  10.676
   25SBC   C0BN17477   9.183   5.863  10.785
   25SBC   C0BM17478   9.154   5.934  10.898
   25SBC   C0B917479   9.135   5.859  11.014
   25SBC   C0B817480   9.158   5.723  11.017
   25SBC   C0AD17481   9.194   5.655  10.898
   25SBC   C0AF17482   9.146   5.652  11.131
   25SBC   C0AG17483   9.109   5.709  11.251
   25SBC   C0B717484   9.082   5.845  11.251
   25SBC   C0AE17485   9.175   5.521  11.123
   25SBC   C0AB17486   9.218   5.452  11.017
   25SBC   C0AA17487   9.254   5.320  11.018
   25SBC   C0AJ17488   9.179   5.454  11.246
   25SBC   C0AK17489   9.209   5.320  11.251
   25SBC   C06W17490   9.192   5.276  11.378
   25SBC   C0AI17491   9.130   5.498  11.376
   25SBC   C0BP17492   9.209   6.068  10.664
   25SBC   C0BQ17493   9.171   6.147  10.782
   25SBC   C0BW17494   9.206   5.726  10.782
   25SBC   C0AC17495   9.227   5.524  10.898
   25SBC   C0A617496   9.349   5.479  10.557
   25SBC   C0A317497   9.452   5.516  10.342
   25SBC   C09Z17498   9.652   5.452  10.177
   25SBC   C09W17499   9.575   5.205  10.498
   25SBC   C07217500   9.553   5.121  10.609
   25SBC   C09H17501   9.808   5.225  10.237
   25SBC   C09G17502   9.845   5.320  10.141
   25SBC   C09P17503   9.939   5.253  10.065
   25SBC   C02O17504  10.045   4.889  10.116
   25SBC   C02M17505  10.050   4.693  10.249
   25SBC   C02F17506  10.164   4.438  10.293
   25SBC   C00W17507  10.277   4.248  10.201
   25SBC   C01R17508  10.363   4.141   9.945
   25SBC   C01N17509  10.282   4.496   9.970
   25SBC   C01L17510  10.241   4.631   9.777
   25SBC   C01H17511  10.256   4.559   9.427
   25SBC   C01K17512  10.337   4.290   9.676
   25SBC   C01E17513  10.392   4.145   9.445
   25SBC   C01G17514  10.266   4.480   9.304
   25SBC   C01D17515  10.434   4.084   9.330
   25SBC   C01A17516  10.513   3.951   9.095
   25SBC   H00117517  10.539   3.902   9.003
   25SBC   C01F17518  10.305   4.322   9.074
   25SBC   C03P17519  10.229   4.408   8.809
   25SBC   C03T17520  10.155   4.614   8.895
   25SBC   C08I17521  10.021   4.861   8.900
   25SBC   C08J17522   9.949   4.976   8.912
   25SBC   C08L17523   9.876   5.180   9.039
   25SBC   C09317524   9.802   5.377   9.178
   25SBC   C08Z17525   9.957   5.263   9.388
   25SBC   C09T17526   9.713   5.655   9.557
   25SBC   C09S17527   9.955   5.405   9.659
   25SBC   C09Q17528   9.959   5.300   9.931
   25SBC   C09F17529   9.753   5.422  10.094
   25SBC   C09E17530   9.720   5.614   9.799
   25SBC   C0A017531   9.574   5.564  10.142
   25SBC   C0CU17532   9.415   5.796  10.092
   25SBC   C0CR17533   9.352   5.923  10.083
   25SBC   C0CZ17534   9.363   6.000   9.968
   25SBC   C0DA17535   9.661   5.694   9.695
   25SBC   C0D917536   9.652   6.020   9.619
   25SBC   H00V17537   9.752   5.979   9.612
   25SBC   C0CY17538   9.428   5.937   9.855
   25SBC   C0DF17539   9.599   6.152   9.651
   25SBC   C0DE17540   9.631   6.294   9.669
   25SBC   C0GI17541   9.735   6.386   9.619
   25SBC   H01K17542   9.814   6.350   9.555
   25SBC   C0GJ17543   9.718   6.517   9.650
   25SBC   H01J17544   9.778   6.592   9.601
   25SBC   O00I17545   9.613   6.571   9.724
   25SBC   C0GH17546   9.537   6.486   9.796
   25SBC   C0GG17547   9.455   6.548   9.901
   25SBC   O00G17548   9.486   6.680   9.920
   25SBC   C0G817549   9.436   6.748  10.026
   25SBC   C0G917550   9.458   6.886  10.015
   25SBC   H01G17551   9.513   6.918   9.927
   25SBC   C0GA17552   9.402   6.970  10.104
   25SBC   H01H17553   9.419   7.073  10.079
   25SBC   C0GB17554   9.337   6.923  10.228
   25SBC   C0EP17555   9.334   6.783  10.243
   25SBC   C0E817556   9.293   6.732  10.376
   25SBC   C0CK17557   9.280   6.607  10.433
   25SBC   C0CL17558   9.225   6.500  10.354
   25SBC   C0E917559   9.241   6.490  10.209
   25SBC   C0GE17560   9.326   6.556  10.105
   25SBC   C0E717561   9.235   6.817  10.472
   25SBC   C0CJ17562   9.188   6.754  10.588
   25SBC   C0E617563   9.110   6.826  10.683
   25SBC   H00Y17564   9.072   6.777  10.771
   25SBC   C0EO17565   9.116   6.971  10.663
   25SBC   H01117566   9.083   7.038  10.740
   25SBC   C0G617567   9.168   7.035  10.543
   25SBC   C0G517568   9.171   7.173  10.517
   25SBC   H01F17569   9.131   7.240  10.591
   25SBC   C0GD17570   9.222   7.220  10.403
   25SBC   H01I17571   9.215   7.328  10.393
   25SBC   O00H17572   9.267   7.143  10.295
   25SBC   C0EQ17573   9.227   6.955  10.445
   25SBC   C0GC17574   9.274   7.011  10.322
   25SBC   C0G717575   9.366   6.691  10.136
   25SBC   C0DD17576   9.530   6.354   9.753
   25SBC   C0GF17577   9.360   6.488   9.985
   25SBC   C0CO17578   9.180   6.371  10.181
   25SBC   C0D017579   9.313   6.129   9.970
   25SBC   C0C417580   9.287   5.974  10.200
   25SBC   C0CN17581   9.118   6.313  10.288
   25SBC   C0CP17582   9.243   6.084  10.521
   25SBC   C0CM17583   9.136   6.395  10.402
   25SBC   C0CI17584   9.234   6.618  10.572
   25SBC   C0CD17585   9.188   6.544  11.051
   25SBC   C0BR17586   9.180   6.288  10.774
   25SBC   C0CS17587   9.150   6.076  10.899
   25SBC   C0B617588   9.104   5.919  11.134
   25SBC   C0CG17589   9.121   6.335  11.145
   25SBC   C0CF17590   9.144   6.471  11.159
   25SBC   C0E517591   9.180   6.741  11.191
   25SBC   C0DT17592   9.121   6.869  11.429
   25SBC   C0DL17593   9.045   6.523  11.517
   25SBC   C0DM17594   8.994   6.452  11.620
   25SBC   C0DY17595   8.970   6.647  11.750
   25SBC   C0DU17596   9.097   6.924  11.553
   25SBC   C0F017597   9.017   7.128  11.662
   25SBC   C0F417598   8.848   7.249  11.829
   25SBC   C0FG17599   8.906   6.923  11.986
   25SBC   O00B17600   8.696   7.214  12.014
   25SBC   C0FN17601   8.811   6.871  12.065
   25SBC   C0DZ17602   8.926   6.711  11.869
   25SBC   O00C17603   8.720   6.439  12.011
   25SBC   C0FR17604   8.708   6.306  12.013
   25SBC   O00D17605   8.624   6.257  12.090
   25SBC   C0E017606   8.945   6.515  11.731
   25SBC   C0E317607   8.791   6.236  11.919
   25SBC   C0AW17608   8.795   6.097  11.912
   25SBC   C0AV17609   8.728   6.004  12.005
   25SBC   H00Q17610   8.674   6.037  12.092
   25SBC   C0AU17611   8.741   5.866  11.986
   25SBC   H00R17612   8.680   5.805  12.051
   25SBC   C0AT17613   8.815   5.812  11.883
   25SBC   C0AS17614   8.858   5.679  11.839
   25SBC   C0AR17615   8.803   5.561  11.894
   25SBC   C0BE17616   8.882   5.903  11.803
   25SBC   C0DN17617   8.973   6.318  11.601
   25SBC   C0AX17618   8.875   6.042  11.811
   25SBC   C0BB17619   9.018   6.119  11.481
   25SBC   C0BD17620   8.939   5.837  11.698
   25SBC   C0B217621   9.054   5.910  11.371
   25SBC   C0AH17622   9.094   5.635  11.373
   25SBC   C0BF17623   8.930   5.698  11.710
   25SBC   C0AL17624   9.145   5.384  11.459
   25SBC   C07U17625   8.945   5.385  11.752
   25SBC   C0AQ17626   8.845   5.433  11.849
   25SBC   C0BG17627   8.696   5.538  11.998
   25SBC   C0FY17628   8.657   5.241  12.196
   25SBC   C0BJ17629   8.714   5.579  12.137
   25SBC   H00S17630   8.759   5.667  12.180
   25SBC   C0FZ17631   8.672   5.288  12.333
   25SBC   C07S17632   8.737   5.133  12.156
   25SBC   C0G117633   8.829   5.014  12.498
   25SBC   C07K17634   9.006   4.749  12.317
   25SBC   C07H17635   8.912   4.912  12.093
   25SBC   C06B17636   8.910   4.595  11.959
   25SBC   C06N17637   9.035   4.645  11.775
   25SBC   C06617638   8.952   5.017  11.868
   25SBC   C06217639   9.123   5.085  11.619
   25SBC   C05Y17640   9.184   4.695  11.573
   25SBC   C06117641   9.224   5.074  11.524
   25SBC   C05H17642   9.261   4.830  11.266
   25SBC   C06V17643   9.222   5.145  11.398
   25SBC   C06Y17644   9.252   5.250  11.137
   25SBC   C05C17645   9.382   4.919  11.043
   25SBC   C06Z17646   9.306   5.253  10.908
   25SBC   C07017647   9.460   5.155  10.705
   25SBC   C05B17648   9.472   4.877  10.942
   25SBC   C05717649   9.654   4.797  10.747
   25SBC   C05917650   9.626   5.001  10.626
   26SBC   C05817651   4.182   3.356  13.925
   26SBC   C05A17652   4.279   3.399  13.838
   26SBC   C06Q17653   4.256   3.515  13.764
   26SBC   C06R17654   4.354   3.565  13.675
   26SBC   C06S17655   4.482   3.496  13.665
   26SBC   C06T17656   4.586   3.559  13.588
   26SBC   C06U17657   4.726   3.516  13.559
   26SBC   C06X17658   4.803   3.401  13.590
   26SBC   C06017659   4.941   3.424  13.554
   26SBC   C05Z17660   5.033   3.320  13.501
   26SBC   C06817661   5.100   3.397  13.390
   26SBC   C06717662   5.201   3.333  13.300
   26SBC   C06917663   5.265   3.202  13.325
   26SBC   C06A17664   5.353   3.122  13.240
   26SBC   C07317665   5.370   3.123  13.098
   26SBC   C07P17666   5.387   2.995  13.038
   26SBC   C07O17667   5.343   2.873  13.098
   26SBC   H00D17668   5.261   2.881  13.167
   26SBC   C07N17669   5.384   2.750  13.050
   26SBC   H00E17670   5.356   2.659  13.099
   26SBC   C07M17671   5.449   2.750  12.923
   26SBC   H00F17672   5.460   2.653  12.877
   26SBC   C07L17673   5.465   2.868  12.846
   26SBC   C07Q17674   5.523   2.873  12.719
   26SBC   H00G17675   5.551   2.782  12.668
   26SBC   O00F17676   5.551   2.986  12.648
   26SBC   C07J17677   5.529   3.103  12.709
   26SBC   C07I17678   5.481   3.109  12.841
   26SBC   N00417679   5.445   3.235  12.900
   26SBC   C07R17680   5.496   3.350  12.833
   26SBC   C07T17681   5.547   3.340  12.705
   26SBC   C0FX17682   5.585   3.451  12.630
   26SBC   C0FW17683   5.597   3.456  12.490
   26SBC   C0G017684   5.589   3.327  12.434
   26SBC   C0G217685   5.579   3.318  12.295
   26SBC   H01E17686   5.569   3.220  12.251
   26SBC   C0G317687   5.585   3.435  12.215
   26SBC   H01C17688   5.591   3.426  12.108
   26SBC   C0G417689   5.593   3.562  12.274
   26SBC   H01D17690   5.587   3.650  12.212
   26SBC   O00E17691   5.597   3.214  12.507
   26SBC   C0FV17692   5.594   3.581  12.414
   26SBC   C0FU17693   5.592   3.702  12.489
   26SBC   H01B17694   5.587   3.795  12.433
   26SBC   C0FT17695   5.581   3.700  12.629
   26SBC   C0FS17696   5.540   3.791  12.735
   26SBC   C0BI17697   5.542   3.723  12.862
   26SBC   C0BH17698   5.467   3.787  12.959
   26SBC   C07F17699   5.360   3.726  13.026
   26SBC   C07E17700   5.350   3.593  13.064
   26SBC   C07G17701   5.414   3.482  13.012
   26SBC   C07417702   5.346   3.376  13.071
   26SBC   C06517703   5.250   3.551  13.157
   26SBC   C06417704   5.154   3.650  13.179
   26SBC   C06317705   5.047   3.636  13.264
   26SBC   C07517706   4.958   3.751  13.237
   26SBC   C0AM17707   5.017   3.843  13.144
   26SBC   C0AN17708   4.953   3.955  13.079
   26SBC   C0AO17709   4.815   4.018  13.090
   26SBC   C0B117710   4.768   4.126  13.004
   26SBC   C0B017711   4.850   4.181  12.910
   26SBC   C0AZ17712   4.812   4.270  12.807
   26SBC   C0AY17713   4.902   4.310  12.713
   26SBC   N00717714   4.865   4.393  12.607
   26SBC   C0E217715   4.956   4.416  12.501
   26SBC   C0E117716   4.907   4.490  12.392
   26SBC   C0E417717   4.986   4.495  12.274
   26SBC   C0FF17718   4.949   4.572  12.164
   26SBC   C0FJ17719   4.998   4.576  12.023
   26SBC   C0FK17720   5.041   4.460  11.949
   26SBC   H01617721   5.067   4.361  11.983
   26SBC   C0FL17722   5.007   4.491  11.806
   26SBC   H01717723   5.009   4.430  11.718
   26SBC   C0FM17724   4.939   4.622  11.801
   26SBC   C0FH17725   4.838   4.703  11.733
   26SBC   C0FI17726   4.787   4.776  11.844
   26SBC   C0F317727   4.653   4.823  11.841
   26SBC   C0F217728   4.599   4.830  11.962
   26SBC   C0DW17729   4.652   4.784  12.082
   26SBC   C0FE17730   4.778   4.739  12.086
   26SBC   C0DV17731   4.567   4.757  12.190
   26SBC   C0DX17732   4.617   4.688  12.301
   26SBC   C0DK17733   4.527   4.651  12.400
   26SBC   C0DJ17734   4.391   4.681  12.391
   26SBC   C0DI17735   4.294   4.637  12.482
   26SBC   C0DH17736   4.339   4.575  12.592
   26SBC   C0DG17737   4.473   4.538  12.606
   26SBC   C0BV17738   4.517   4.458  12.713
   26SBC   C0BC17739   4.645   4.414  12.717
   26SBC   C0BA17740   4.427   4.419  12.809
   26SBC   C0B417741   4.470   4.337  12.916
   26SBC   C0B317742   4.595   4.283  12.913
   26SBC   C0B517743   4.378   4.294  13.009
   26SBC   C0BU17744   4.249   4.353  13.003
   26SBC   C0BT17745   4.201   4.434  12.902
   26SBC   C0BS17746   4.069   4.488  12.906
   26SBC   C0CC17747   4.027   4.551  12.790
   26SBC   C0CB17748   3.885   4.580  12.772
   26SBC   C0CH17749   3.841   4.585  12.636
   26SBC   C0DO17750   3.927   4.622  12.535
   26SBC   C0DP17751   3.884   4.679  12.416
   26SBC   C0EA17752   3.744   4.679  12.383
   26SBC   H01217753   3.673   4.631  12.449
   26SBC   O00917754   3.690   4.747  12.278
   26SBC   C0EH17755   3.783   4.805  12.196
   26SBC   C0EG17756   3.734   4.889  12.095
   26SBC   C0EJ17757   3.617   4.967  12.076
   26SBC   H01017758   3.530   4.976  12.139
   26SBC   C0EK17759   3.615   5.024  11.938
   26SBC   H00Z17760   3.542   5.084  11.886
   26SBC   C0EL17761   3.751   4.995  11.896
   26SBC   C0EM17762   3.816   5.021  11.768
   26SBC   C0EW17763   3.765   5.093  11.655
   26SBC   H01317764   3.670   5.143  11.664
   26SBC   C0EX17765   3.849   5.109  11.533
   26SBC   H01417766   3.826   5.180  11.455
   26SBC   C0F117767   3.983   5.047  11.535
   26SBC   C0EU17768   4.026   4.973  11.648
   26SBC   C0ET17769   4.145   4.909  11.676
   26SBC   C0ES17770   4.143   4.853  11.803
   26SBC   C0EE17771   4.019   4.893  11.858
   26SBC   C0ED17772   3.953   4.886  11.983
   26SBC   C0EC17773   4.011   4.825  12.101
   26SBC   C0EB17774   4.149   4.807  12.127
   26SBC   C0EN17775   4.249   4.847  12.028
   26SBC   C0ER17776   4.381   4.843  12.067
   26SBC   C0DS17777   4.202   4.761  12.250
   26SBC   C0DR17778   4.112   4.709  12.341
   26SBC   C0EY17779   4.254   4.871  11.886
   26SBC   C0EZ17780   4.385   4.873  11.842
   26SBC   C0F517781   4.451   4.860  11.715
   26SBC   C0F617782   4.379   4.867  11.591
   26SBC   N00817783   4.457   4.843  11.472
   26SBC   C0F717784   4.582   4.776  11.478
   26SBC   C0FQ17785   4.629   4.729  11.352
   26SBC   H01817786   4.723   4.676  11.353
   26SBC   C0FP17787   4.569   4.759  11.231
   26SBC   H01917788   4.617   4.736  11.137
   26SBC   C0FO17789   4.464   4.844  11.227
   26SBC   H01A17790   4.429   4.883  11.132
   26SBC   C0F817791   4.645   4.766  11.606
   26SBC   C0F917792   4.401   4.884  11.343
   26SBC   C0FA17793   4.281   4.954  11.330
   26SBC   H01517794   4.255   4.991  11.232
   26SBC   C0FB17795   4.206   4.975  11.448
   26SBC   C0FD17796   4.246   4.922  11.571
   26SBC   C0FC17797   4.079   5.051  11.432
   26SBC   O00A17798   4.058   5.105  11.319
   26SBC   C0EV17799   3.942   4.960  11.760
   26SBC   C0EF17800   3.821   4.922  11.995
   26SBC   C0EI17801   3.925   4.787  12.202
   26SBC   C0DQ17802   3.975   4.723  12.319
   26SBC   C0CE17803   4.066   4.615  12.560
   26SBC   H00U17804   3.734   4.577  12.628
   26SBC   C0CA17805   3.806   4.609  12.886
   26SBC   C0C917806   3.848   4.540  13.011
   26SBC   C0C817807   3.766   4.556  13.130
   26SBC   C0C717808   3.753   4.470  13.248
   26SBC   C0C617809   3.657   4.507  13.344
   26SBC   C0C517810   3.563   4.446  13.440
   26SBC   C0CQ17811   3.434   4.503  13.458
   26SBC   C0D117812   3.397   4.601  13.368
   26SBC   C0D817813   3.263   4.588  13.331
   26SBC   C0D717814   3.208   4.490  13.417
   26SBC   C0D617815   3.075   4.438  13.416
   26SBC   C0D517816   3.026   4.345  13.514
   26SBC   C0D417817   3.088   4.238  13.586
   26SBC   C0D317818   3.030   4.232  13.718
   26SBC   C0CX17819   3.132   4.187  13.816
   26SBC   C0CW17820   3.252   4.171  13.736
   26SBC   C0CV17821   3.384   4.101  13.745
   26SBC   C0D217822   3.402   3.980  13.816
   26SBC   C09D17823   3.302   3.917  13.896
   26SBC   C09C17824   3.321   3.789  13.955
   26SBC   C09B17825   3.240   3.728  14.053
   26SBC   C09A17826   3.124   3.802  14.091
   26SBC   C09917827   3.098   3.915  14.026
   26SBC   C09817828   3.003   3.988  14.100
   26SBC   C08Y17829   2.986   3.935  14.230
   26SBC   C08X17830   2.939   3.993  14.354
   26SBC   C08W17831   2.886   4.131  14.359
   26SBC   C08U17832   2.904   4.236  14.260
   26SBC   C08V17833   2.983   4.237  14.136
   26SBC   C0DC17834   2.965   4.360  14.076
   26SBC   H00W17835   3.009   4.379  13.979
   26SBC   C0DB17836   2.875   4.448  14.160
   26SBC   H00X17837   2.836   4.547  14.145
   26SBC   C08T17838   2.854   4.365  14.277
   26SBC   C08S17839   2.781   4.396  14.390
   26SBC   H00N17840   2.737   4.494  14.400
   26SBC   C08R17841   2.766   4.300  14.490
   26SBC   C08Q17842   2.695   4.327  14.613
   26SBC   H00O17843   2.633   4.415  14.623
   26SBC   C08P17844   2.712   4.250  14.730
   26SBC   C08O17845   2.657   4.279  14.860
   26SBC   H00P17846   2.581   4.355  14.870
   26SBC   C08N17847   2.709   4.221  14.980
   26SBC   C08M17848   2.664   4.270  15.112
   26SBC   O00817849   2.569   4.349  15.132
   26SBC   O00717850   2.730   4.221  15.224
   26SBC   C08H17851   2.815   4.115  15.213
   26SBC   C08G17852   2.876   4.053  15.327
   26SBC   C03V17853   2.866   4.098  15.459
   26SBC   H00917854   2.803   4.183  15.481
   26SBC   C03U17855   2.937   4.036  15.572
   26SBC   C03W17856   2.928   4.072  15.715
   26SBC   H00A17857   2.868   4.155  15.749
   26SBC   C03X17858   3.003   4.014  15.810
   26SBC   H00B17859   2.991   4.050  15.911
   26SBC   O00517860   3.092   3.915  15.775
   26SBC   C03O17861   3.089   3.869  15.644
   26SBC   C03N17862   3.162   3.756  15.613
   26SBC   O00017863   3.228   3.690  15.717
   26SBC   C01917864   3.323   3.602  15.698
   26SBC   C01817865   3.345   3.552  15.563
   26SBC   C01717866   3.271   3.604  15.454
   26SBC   C01617867   3.293   3.558  15.326
   26SBC   C01517868   3.380   3.447  15.319
   26SBC   C01417869   3.404   3.387  15.190
   26SBC   C01317870   3.343   3.444  15.072
   26SBC   C01217871   3.400   3.359  14.964
   26SBC   C01117872   3.476   3.255  15.031
   26SBC   C01017873   3.542   3.153  14.966
   26SBC   C00Z17874   3.640   3.070  15.010
   26SBC   C00Y17875   3.698   3.025  14.891
   26SBC   C01O17876   3.644   3.077  14.777
   26SBC   C01P17877   3.724   3.114  14.670
   26SBC   C02L17878   3.672   3.202  14.577
   26SBC   C02K17879   3.553   3.270  14.619
   26SBC   C01M17880   3.491   3.272  14.751
   26SBC   C02J17881   3.496   3.341  14.506
   26SBC   C02I17882   3.379   3.408  14.509
   26SBC   C02H17883   3.309   3.460  14.618
   26SBC   C01Q17884   3.320   3.448  14.755
   26SBC   C02G17885   3.224   3.533  14.824
   26SBC   C08917886   3.141   3.580  14.721
   26SBC   C08817887   3.077   3.697  14.759
   26SBC   C08717888   3.102   3.703  14.906
   26SBC   C08617889   3.051   3.799  14.999
   26SBC   C03S17890   3.064   3.791  15.140
   26SBC   N00617891   2.983   3.898  15.181
   26SBC   C08F17892   2.923   3.959  15.077
   26SBC   C01J17893   3.131   3.720  15.240
   26SBC   C03R17894   3.118   3.765  15.375
   26SBC   C03Q17895   3.037   3.876  15.407
   26SBC   C08E17896   2.963   3.900  14.959
   26SBC   C08D17897   2.923   3.957  14.832
   26SBC   C08K17898   2.840   4.073  14.843
   26SBC   C08C17899   2.955   3.915  14.704
   26SBC   C09117900   2.914   3.988  14.591
   26SBC   C09217901   2.844   4.112  14.598
   26SBC   C08B17902   3.013   3.794  14.660
   26SBC   C09017903   3.010   3.793  14.518
   26SBC   C09417904   3.061   3.681  14.430
   26SBC   C09517905   3.093   3.701  14.298
   26SBC   C09R17906   3.200   3.616  14.256
   26SBC   C09717907   3.238   3.537  14.361
   26SBC   C09617908   3.155   3.578  14.471
   26SBC   C01I17909   3.194   3.594  14.952
   26SBC   C08A17910   3.196   3.540  14.597
   26SBC   C09L17911   3.346   3.447  14.378
   26SBC   C09K17912   3.459   3.413  14.296
   26SBC   C09J17913   3.473   3.447  14.156
   26SBC   C09I17914   3.605   3.460  14.106
   26SBC   C09O17915   3.735   3.400  14.127
   26SBC   C09N17916   3.766   3.309  14.225
   26SBC   C09M17917   3.691   3.287  14.351
   26SBC   C06O17918   3.895   3.250  14.224
   26SBC   C05M17919   3.986   3.277  14.117
   26SBC   C06P17920   3.958   3.378  14.028
   26SBC   C04217921   4.112   3.211  14.111
   26SBC   C04117922   4.147   3.118  14.204
   26SBC   C04017923   4.273   3.057  14.202
   26SBC   C03Z17924   4.322   2.979  14.309
   26SBC   C03Y17925   4.242   2.969  14.422
   26SBC   C02717926   4.295   2.901  14.531
   26SBC   C02617927   4.218   2.884  14.646
   26SBC   C02817928   4.271   2.824  14.757
   26SBC   C02917929   4.398   2.780  14.755
   26SBC   C02B17930   4.457   2.728  14.873
   26SBC   C02C17931   4.583   2.673  14.867
   26SBC   C02X17932   4.639   2.627  14.984
   26SBC   C03E17933   4.767   2.584  14.983
   26SBC   C03G17934   4.852   2.600  14.880
   26SBC   C04Q17935   4.801   2.654  14.764
   26SBC   C04R17936   4.877   2.672  14.653
   26SBC   C04S17937   4.824   2.719  14.539
   26SBC   C04L17938   4.696   2.771  14.534
   26SBC   C04M17939   4.615   2.752  14.644
   26SBC   C04K17940   4.637   2.822  14.415
   26SBC   C04F17941   4.714   2.832  14.300
   26SBC   C04E17942   4.849   2.791  14.304
   26SBC   C04D17943   4.924   2.809  14.191
   26SBC   C05017944   5.056   2.766  14.192
   26SBC   C05117945   5.132   2.785  14.081
   26SBC   C05Q17946   5.264   2.737  14.079
   26SBC   C05V17947   5.334   2.746  13.958
   26SBC   N00517948   5.462   2.690  13.955
   26SBC   C07V17949   5.518   2.642  14.070
   26SBC   C08217950   5.648   2.597  14.070
   26SBC   C08117951   5.723   2.584  13.952
   26SBC   C07C17952   5.666   2.635  13.835
   26SBC   C07B17953   5.735   2.640  13.713
   26SBC   C08017954   5.861   2.572  13.699
   26SBC   C07Z17955   5.921   2.575  13.573
   26SBC   H00L17956   6.015   2.525  13.554
   26SBC   C07917957   5.876   2.654  13.468
   26SBC   C07817958   5.764   2.730  13.489
   26SBC   C07717959   5.721   2.815  13.385
   26SBC   C07X17960   5.802   2.832  13.270
   26SBC   H00I17961   5.783   2.916  13.206
   26SBC   C07Y17962   5.919   2.758  13.251
   26SBC   H00H17963   5.983   2.779  13.166
   26SBC   C07617964   5.601   2.881  13.393
   26SBC   C06C17965   5.549   2.962  13.289
   26SBC   H00C17966   5.585   2.967  13.187
   26SBC   C06F17967   5.525   2.866  13.514
   26SBC   C06E17968   5.410   2.942  13.533
   26SBC   C06G17969   5.324   2.932  13.644
   26SBC   C06H17970   5.364   2.833  13.741
   26SBC   C06I17971   5.488   2.761  13.728
   26SBC   C06L17972   5.206   3.007  13.649
   26SBC   C06M17973   5.171   3.112  13.557
   26SBC   C06K17974   5.123   2.977  13.758
   26SBC   C05S17975   5.166   2.878  13.855
   26SBC   C05U17976   5.000   3.035  13.766
   26SBC   C05X17977   4.960   3.144  13.680
   26SBC   C05G17978   4.818   3.178  13.699
   26SBC   C05F17979   4.740   3.113  13.793
   26SBC   C05E17980   4.621   3.175  13.801
   26SBC   C04817981   4.525   3.135  13.893
   26SBC   C05617982   4.411   3.211  13.901
   26SBC   C04517983   4.322   3.175  14.000
   26SBC   C04717984   4.566   3.044  13.985
   26SBC   C04917985   4.694   2.993  13.980
   26SBC   C04B17986   4.744   2.921  14.082
   26SBC   C04617987   4.482   3.022  14.091
   26SBC   C04H17988   4.533   2.944  14.192
   26SBC   C05D17989   4.618   3.288  13.716
   26SBC   C04A17990   4.780   3.026  13.880
   26SBC   C05T17991   4.910   2.988  13.869
   26SBC   C05517992   4.957   2.900  13.967
   26SBC   C06D17993   5.368   3.027  13.439
   26SBC   C07W17994   5.567   2.780  13.616
   26SBC   C08517995   5.953   2.671  13.351
   26SBC   H00M17996   6.043   2.613  13.343
   26SBC   C08417997   5.919   2.515  13.811
   26SBC   H00J17998   6.018   2.477  13.791
   26SBC   C07A17999   5.688   2.715  13.609
   26SBC   C08318000   5.855   2.531  13.935
   26SBC   H00K18001   5.914   2.501  14.020
   26SBC   O00K18002   5.714   2.566  14.185
   26SBC   C0GO18003   5.649   2.585  14.307
   26SBC   C0GN18004   5.711   2.580  14.431
   26SBC   H01L18005   5.818   2.585  14.419
   26SBC   C0GM18006   5.644   2.579  14.553
   26SBC   C0GL18007   5.710   2.568  14.666
   26SBC   H01M18008   5.817   2.560  14.658
   26SBC   O00J18009   5.649   2.574  14.788
   26SBC   C0GK18010   5.518   2.572  14.788
   26SBC   H01N18011   5.471   2.572  14.885
   26SBC   C05K18012   5.447   2.583  14.673
   26SBC   C05J18013   5.299   2.598  14.676
   26SBC   C04Y18014   5.212   2.594  14.788
   26SBC   C04X18015   5.074   2.608  14.781
   26SBC   O00618016   5.265   2.553  14.913
   26SBC   C05318017   5.192   2.554  15.028
   26SBC   C04O18018   5.052   2.556  15.024
   26SBC   C03C18019   4.964   2.538  15.132
   26SBC   C03B18020   4.975   2.528  15.271
   26SBC   C05418021   5.091   2.539  15.336
   26SBC   C0GR18022   5.100   2.549  15.475
   26SBC   C03M18023   5.005   2.552  15.589
   26SBC   C03I18024   4.861   2.563  15.583
   26SBC   C03J18025   4.787   2.590  15.705
   26SBC   N00218026   4.649   2.626  15.712
   26SBC   C02U18027   4.586   2.666  15.825
   26SBC   C02T18028   4.459   2.727  15.820
   26SBC   C02Z18029   4.400   2.779  15.934
   26SBC   N00118030   4.281   2.849  15.930
   26SBC   C02R18031   4.221   2.900  16.051
   26SBC   C03218032   4.281   2.883  16.174
   26SBC   C03118033   4.405   2.808  16.175
   26SBC   H00718034   4.460   2.802  16.268
   26SBC   C03318035   4.212   2.938  16.285
   26SBC   H00318036   4.271   2.931  16.375
   26SBC   O00418037   4.094   3.012  16.280
   26SBC   C03418038   4.034   3.001  16.161
   26SBC   C03518039   3.905   3.052  16.157
   26SBC   C03618040   3.833   3.049  16.038
   26SBC   H00518041   3.732   3.086  16.040
   26SBC   C03718042   3.890   3.004  15.924
   26SBC   H00618043   3.830   3.005  15.834
   26SBC   C00D18044   4.028   2.966  15.919
   26SBC   C00C18045   4.084   2.920  15.803
   26SBC   C00B18046   4.019   2.943  15.676
   26SBC   C00A18047   3.899   3.006  15.600
   26SBC   C00918048   3.907   2.946  15.471
   26SBC   C00818049   3.836   2.986  15.356
   26SBC   C00718050   3.736   3.075  15.375
   26SBC   C00618051   3.661   3.112  15.258
   26SBC   C00518052   3.571   3.225  15.277
   26SBC   C00418053   3.555   3.292  15.401
   26SBC   C00318054   3.637   3.250  15.513
   26SBC   C00218055   3.630   3.321  15.633
   26SBC   C01C18056   3.525   3.411  15.655
   26SBC   C01B18057   3.496   3.465  15.788
   26SBC   H00018058   3.555   3.434  15.873
   26SBC   C00118059   3.734   3.308  15.721
   26SBC   C00018060   3.840   3.223  15.689
   26SBC   C01U18061   3.945   3.258  15.773
   26SBC   H00218062   4.041   3.210  15.786
   26SBC   C01T18063   3.893   3.352  15.877
   26SBC   O00218064   3.949   3.396  15.975
   26SBC   O00118065   3.770   3.388  15.828
   26SBC   C01S18066   3.723   3.144  15.495
   26SBC   C00N18067   3.878   2.927  15.238
   26SBC   C00M18068   3.992   2.840  15.227
   26SBC   C00J18069   4.060   2.813  15.338
   26SBC   C00I18070   4.183   2.752  15.341
   26SBC   C00H18071   4.250   2.737  15.465
   26SBC   C00G18072   4.202   2.792  15.583
   26SBC   C00F18073   4.274   2.797  15.696
   26SBC   C01X18074   4.380   2.687  15.472
   26SBC   C01W18075   4.438   2.650  15.352
   26SBC   C01V18076   4.372   2.675  15.226
   26SBC   C02018077   4.439   2.677  15.108
   26SBC   C01Z18078   4.570   2.605  15.349
   26SBC   C02Y18079   4.626   2.595  15.225
   26SBC   C03918080   4.758   2.556  15.224
   26SBC   C02W18081   4.638   2.583  15.470
   26SBC   C01Y18082   4.451   2.680  15.593
   26SBC   C00U18083   4.242   2.719  15.225
   26SBC   C00S18084   4.178   2.756  15.106
   26SBC   C00T18085   4.250   2.760  14.987
   26SBC   C00R18086   4.052   2.810  15.110
   26SBC   C00Q18087   3.993   2.865  14.996
   26SBC   C00V18088   4.059   2.855  14.874
   26SBC   C02418089   4.013   2.916  14.763
   26SBC   C00X18090   3.887   2.970  14.766
   26SBC   C00P18091   3.875   2.930  15.004
   26SBC   C00O18092   3.811   2.963  15.125
   26SBC   C00K18093   4.004   2.850  15.459
   26SBC   N00018094   3.823   3.121  15.596
   26SBC   C00L18095   4.073   2.856  15.578
   26SBC   H00418096   3.857   3.098  16.242
   26SBC   C02Q18097   4.094   2.956  16.041
   26SBC   C00E18098   4.209   2.855  15.807
   26SBC   C03018099   4.465   2.756  16.056
   26SBC   O00318100   4.585   2.690  16.060
   26SBC   C02S18101   4.397   2.736  15.703
   26SBC   C03818102   4.649   2.648  15.944
   26SBC   C03L18103   4.777   2.596  15.947
   26SBC   H00818104   4.820   2.575  16.044
   26SBC   C02V18105   4.574   2.623  15.590
   26SBC   C03K18106   4.854   2.581  15.829
   26SBC   C0BK18107   4.988   2.543  15.829
   26SBC   H00T18108   5.031   2.519  15.924
   26SBC   C03H18109   4.781   2.560  15.464
   26SBC   C0BL18110   5.068   2.537  15.716
   26SBC   C0GU18111   5.205   2.533  15.731
   26SBC   H01O18112   5.238   2.537  15.834
   26SBC   C0GT18113   5.296   2.559  15.625
   26SBC   H01P18114   5.402   2.556  15.643
   26SBC   C0GS18115   5.241   2.557  15.504
   26SBC   C0GV18116   5.316   2.552  15.382
   26SBC   C0GW18117   5.460   2.555  15.361
   26SBC   H01Q18118   5.538   2.564  15.435
   26SBC   C0GX18119   5.490   2.552  15.228
   26SBC   H01R18120   5.594   2.555  15.199
   26SBC   O00L18121   5.400   2.546  15.124
   26SBC   C0GQ18122   5.224   2.551  15.275
   26SBC   C03A18123   4.844   2.549  15.334
   26SBC   C05L18124   5.268   2.546  15.146
   26SBC   C04W18125   5.236   2.626  14.552
   26SBC   C05I18126   5.304   2.631  14.434
   26SBC   C05O18127   5.439   2.611  14.431
   26SBC   C05218128   5.246   2.671  14.313
   26SBC   C04V18129   5.100   2.656  14.543
   26SBC   C04U18130   5.037   2.707  14.426
   26SBC   N00918131   5.509   2.595  14.549
   26SBC   C0GP18132   5.511   2.611  14.307
   26SBC   C05W18133   5.450   2.647  14.191
   26SBC   C07D18134   5.539   2.688  13.835
   26SBC   C06J18135   5.289   2.817  13.850
   26SBC   C05P18136   5.319   2.683  14.198
   26SBC   C05R18137   5.088   2.853  13.971
   26SBC   C04Z18138   5.110   2.710  14.310
   26SBC   C04C18139   4.873   2.875  14.079
   26SBC   C04G18140   4.662   2.895  14.190
   26SBC   C04J18141   4.506   2.865  14.410
   26SBC   C04T18142   4.901   2.741  14.424
   26SBC   N00318143   5.017   2.644  14.656
   26SBC   C04P18144   4.993   2.589  14.895
   26SBC   C03D18145   4.825   2.549  15.108
   26SBC   C02118146   4.570   2.634  15.106
   26SBC   C03F18147   4.665   2.682  14.756
   26SBC   C02218148   4.383   2.725  14.987
   26SBC   C02A18149   4.478   2.794  14.642
   26SBC   C02318150   4.192   2.814  14.874
   26SBC   C02518151   4.086   2.929  14.646
   26SBC   C02D18152   4.036   3.003  14.541
   26SBC   C02E18153   3.912   3.066  14.546
   26SBC   C02N18154   3.868   3.151  14.442
   26SBC   C04N18155   4.428   2.854  14.529
   26SBC   C02P18156   4.114   3.025  14.429
   26SBC   C04I18157   4.454   2.929  14.303
   26SBC   C04418158   4.355   3.077  14.096
   26SBC   C04318159   4.068   3.100  14.321
   26SBC   C05N18160   3.945   3.166  14.330
   26SBC   C09U18161   3.835   3.441  14.033
   26SBC   C09V18162   3.813   3.544  13.943
   26SBC   C09X18163   3.688   3.598  13.921
   26SBC   C09Y18164   3.663   3.715  13.850
   26SBC   C0A118165   3.766   3.771  13.786
   26SBC   C0A218166   3.890   3.710  13.791
   26SBC   C0A418167   3.994   3.765  13.711
   26SBC   C07118168   4.114   3.699  13.702
   26SBC   C0A518169   4.212   3.746  13.618
   26SBC   C0A918170   4.192   3.856  13.544
   26SBC   C0A818171   4.075   3.930  13.556
   26SBC   C0AP18172   4.049   4.041  13.477
   26SBC   C0BY18173   3.929   4.104  13.493
   26SBC   C0BX18174   3.826   4.061  13.571
   26SBC   C0C218175   3.708   4.130  13.570
   26SBC   C0C318176   3.607   4.085  13.653
   26SBC   C0CT18177   3.624   3.958  13.722
   26SBC   C0C118178   3.683   4.237  13.484
   26SBC   C0C018179   3.779   4.258  13.374
   26SBC   C0A718180   3.853   3.949  13.646
   26SBC   C0BZ18181   3.900   4.198  13.394
   26SBC   C0BO18182   3.989   4.234  13.297
   26SBC   C0BN18183   4.121   4.189  13.296
   26SBC   C0BM18184   4.204   4.231  13.199
   26SBC   C0B918185   4.330   4.168  13.197
   26SBC   C0B818186   4.359   4.068  13.289
   26SBC   C0AD18187   4.264   4.021  13.379
   26SBC   C0AF18188   4.483   4.005  13.280
   26SBC   C0AG18189   4.586   4.049  13.190
   26SBC   C0B718190   4.549   4.149  13.103
   26SBC   C0AE18191   4.505   3.899  13.363
   26SBC   C0AB18192   4.407   3.840  13.443
   26SBC   C0AA18193   4.431   3.735  13.529
   26SBC   C0AJ18194   4.631   3.847  13.366
   26SBC   C0AK18195   4.653   3.733  13.438
   26SBC   C06W18196   4.780   3.702  13.412
   26SBC   C0AI18197   4.736   3.877  13.275
   26SBC   C0BP18198   3.938   4.328  13.208
   26SBC   C0BQ18199   4.028   4.379  13.104
   26SBC   C0BW18200   4.144   4.083  13.385
   26SBC   C0AC18201   4.290   3.903  13.453
   26SBC   C0A618202   3.976   3.881  13.638
   26SBC   C0A318203   3.748   3.892  13.715
   26SBC   C09Z18204   3.540   3.783  13.860
   26SBC   C09W18205   3.917   3.597  13.868
   26SBC   C07218206   4.036   3.532  13.856
   26SBC   C09H18207   3.589   3.553  14.002
   26SBC   C09G18208   3.460   3.602  13.991
   26SBC   C09P18209   3.392   3.545  14.097
   26SBC   C02O18210   3.558   3.347  14.376
   26SBC   C02M18211   3.744   3.211  14.457
   26SBC   C02F18212   3.837   3.046  14.660
   26SBC   C00W18213   3.818   2.963  14.881
   26SBC   C01R18214   3.703   3.050  15.137
   26SBC   C01N18215   3.547   3.167  14.826
   26SBC   C01L18216   3.402   3.367  14.818
   26SBC   C01H18217   3.255   3.552  15.077
   26SBC   C01K18218   3.494   3.280  15.166
   26SBC   C01E18219   3.456   3.389  15.423
   26SBC   C01G18220   3.222   3.614  15.210
   26SBC   C01D18221   3.446   3.447  15.547
   26SBC   C01A18222   3.400   3.563  15.807
   26SBC   H00118223   3.371   3.602  15.903
   26SBC   C01F18224   3.181   3.708  15.478
   26SBC   C03P18225   3.019   3.931  15.538
   26SBC   C03T18226   2.961   3.942  15.310
   26SBC   C08I18227   2.840   4.064  15.084
   26SBC   C08J18228   2.801   4.122  14.965
   26SBC   C08L18229   2.796   4.143  14.724
   26SBC   C09318230   2.831   4.180  14.478
   26SBC   C08Z18231   2.955   3.923  14.474
   26SBC   C09T18232   3.013   4.122  14.053
   26SBC   C09S18233   3.050   3.803  14.212
   26SBC   C09Q18234   3.280   3.624  14.137
   26SBC   C09F18235   3.436   3.726  13.922
   26SBC   C09E18236   3.185   3.987  13.945
   26SBC   C0A018237   3.523   3.908  13.801
   26SBC   C0CU18238   3.485   4.151  13.661
   26SBC   C0CR18239   3.465   4.266  13.578
   26SBC   C0CZ18240   3.331   4.310  13.557
   26SBC   C0DA18241   3.116   4.113  13.941
   26SBC   C0D918242   2.921   4.338  13.721
   26SBC   H00V18243   2.872   4.383  13.806
   26SBC   C0CY18244   3.229   4.226  13.607
   26SBC   C0DF18245   2.921   4.402  13.592
   26SBC   C0DE18246   2.882   4.524  13.521
   26SBC   C0GI18247   2.774   4.616  13.536
   26SBC   H01K18248   2.712   4.598  13.623
   26SBC   C0GJ18249   2.771   4.716  13.444
   26SBC   H01J18250   2.704   4.795  13.473
   26SBC   O00I18251   2.866   4.737  13.340
   26SBC   C0GH18252   2.975   4.652  13.325
   26SBC   C0GG18253   3.065   4.702  13.229
   26SBC   O00G18254   3.024   4.789  13.131
   26SBC   C0G818255   3.108   4.824  13.030
   26SBC   C0G918256   3.047   4.902  12.933
   26SBC   H01G18257   2.942   4.924  12.940
   26SBC   C0GA18258   3.121   4.953  12.830
   26SBC   H01H18259   3.070   5.016  12.759
   26SBC   C0GB18260   3.256   4.914  12.806
   26SBC   C0EP18261   3.318   4.830  12.904
   26SBC   C0E818262   3.454   4.777  12.872
   26SBC   C0CK18263   3.556   4.700  12.937
   26SBC   C0CL18264   3.555   4.689  13.077
   26SBC   C0E918265   3.435   4.702  13.158
   26SBC   C0GE18266   3.292   4.718  13.133
   26SBC   C0E718267   3.519   4.828  12.763
   26SBC   C0CJ18268   3.651   4.779  12.744
   26SBC   C0E618269   3.727   4.836  12.642
   26SBC   H00Y18270   3.835   4.833  12.635
   26SBC   C0EO18271   3.658   4.912  12.548
   26SBC   H01118272   3.717   4.941  12.462
   26SBC   C0G618273   3.523   4.943  12.556
   26SBC   C0G518274   3.446   5.022  12.459
   26SBC   H01F18275   3.493   5.058  12.368
   26SBC   C0GD18276   3.325   5.066  12.490
   26SBC   H01I18277   3.266   5.135  12.431
   26SBC   O00H18278   3.256   5.033  12.602
   26SBC   C0EQ18279   3.453   4.908  12.673
   26SBC   C0GC18280   3.324   4.948  12.685
   26SBC   C0G718281   3.246   4.794  13.023
   26SBC   C0DD18282   2.973   4.540  13.411
   26SBC   C0GF18283   3.202   4.668  13.233
   26SBC   C0CO18284   3.482   4.659  13.279
   26SBC   C0D018285   3.319   4.428  13.479
   26SBC   C0C418286   3.572   4.314  13.499
   26SBC   C0CN18287   3.622   4.633  13.284
   26SBC   C0CP18288   3.807   4.344  13.256
   26SBC   C0CM18289   3.672   4.659  13.157
   26SBC   C0CI18290   3.680   4.691  12.860
   26SBC   C0CD18291   4.117   4.567  12.686
   26SBC   C0BR18292   3.979   4.474  13.012
   26SBC   C0CS18293   4.159   4.323  13.104
   26SBC   C0B618294   4.418   4.204  13.104
   26SBC   C0CG18295   4.295   4.461  12.798
   26SBC   C0CF18296   4.252   4.537  12.693
   26SBC   C0E518297   4.155   4.650  12.459
   26SBC   C0DT18298   4.340   4.749  12.276
   26SBC   C0DL18299   4.564   4.575  12.506
   26SBC   C0DM18300   4.695   4.529  12.505
   26SBC   C0DY18301   4.749   4.639  12.296
   26SBC   C0DU18302   4.431   4.790  12.188
   26SBC   C0F018303   4.461   4.859  11.958
   26SBC   C0F418304   4.584   4.821  11.720
   26SBC   C0FG18305   4.852   4.746  11.964
   26SBC   O00B18306   4.764   4.697  11.616
   26SBC   C0FN18307   4.959   4.673  11.931
   26SBC   C0DZ18308   4.833   4.654  12.183
   26SBC   O00C18309   5.104   4.419  12.269
   26SBC   C0FR18310   5.161   4.360  12.374
   26SBC   O00D18311   5.273   4.315  12.355
   26SBC   C0E018312   4.786   4.558  12.399
   26SBC   C0E318313   5.082   4.357  12.496
   26SBC   C0AW18314   5.125   4.290  12.613
   26SBC   C0AV18315   5.257   4.249  12.638
   26SBC   H00Q18316   5.341   4.279  12.577
   26SBC   C0AU18317   5.293   4.170  12.748
   26SBC   H00R18318   5.397   4.143  12.757
   26SBC   C0AT18319   5.195   4.133  12.841
   26SBC   C0AS18320   5.180   4.027  12.943
   26SBC   C0AR18321   5.276   3.919  12.951
   26SBC   C0BE18322   5.075   4.196  12.824
   26SBC   C0DN18323   4.739   4.449  12.615
   26SBC   C0AX18324   5.032   4.270  12.715
   26SBC   C0BB18325   4.682   4.322  12.811
   26SBC   C0BD18326   4.983   4.139  12.915
   26SBC   C0B218327   4.637   4.185  13.002
   26SBC   C0AH18328   4.712   3.982  13.180
   26SBC   C0BF18329   5.040   4.028  12.988
   26SBC   C0AL18330   4.835   3.784  13.309
   26SBC   C07U18331   5.147   3.784  13.121
   26SBC   C0AQ18332   5.255   3.817  13.043
   26SBC   C0BG18333   5.407   3.904  12.894
   26SBC   C0FY18334   5.552   3.585  12.831
   26SBC   C0BJ18335   5.442   3.893  12.755
   26SBC   H00S18336   5.384   3.942  12.678
   26SBC   C0FZ18337   5.580   3.574  12.694
   26SBC   C07S18338   5.495   3.470  12.899
   26SBC   C0G118339   5.563   3.214  12.636
   26SBC   C07K18340   5.446   2.991  12.908
   26SBC   C07H18341   5.378   3.243  13.029
   26SBC   C06B18342   5.434   3.034  13.317
   26SBC   C06N18343   5.260   3.117  13.449
   26SBC   C06618344   5.260   3.410  13.187
   26SBC   C06218345   5.035   3.527  13.369
   26SBC   C05Y18346   5.055   3.193  13.579
   26SBC   C06118347   4.952   3.539  13.484
   26SBC   C05H18348   4.738   3.286  13.642
   26SBC   C06V18349   4.821   3.595  13.485
   26SBC   C06Y18350   4.552   3.674  13.520
   26SBC   C05C18351   4.495   3.372  13.733
   26SBC   C06Z18352   4.331   3.680  13.608
   26SBC   C07018353   4.130   3.583  13.775
   26SBC   C05B18354   4.395   3.327  13.826
   26SBC   C05718355   4.205   3.247  14.010
   26SBC   C05918356   4.058   3.419  13.936
   27SBC   C05818357   2.376   0.382   5.168
   27SBC   C05A18358   2.288   0.352   5.275
   27SBC   C06Q18359   2.228   0.225   5.281
   27SBC   C06R18360   2.131   0.191   5.378
   27SBC   C06S18361   2.089   0.286   5.471
   27SBC   C06T18362   1.987   0.249   5.562
   27SBC   C06U18363   1.910   0.336   5.660
   27SBC   C06X18364   1.930   0.468   5.698
   27SBC   C06018365   1.824   0.505   5.794
   27SBC   C05Z18366   1.835   0.580   5.923
   27SBC   C06818367   1.749   0.504   6.023
   27SBC   C06718368   1.696   0.549   6.146
   27SBC   C06918369   1.693   0.687   6.184
   27SBC   C06A18370   1.600   0.747   6.284
   27SBC   C07318371   1.470   0.714   6.320
   27SBC   C07P18372   1.373   0.819   6.322
   27SBC   C07O18373   1.383   0.944   6.260
   27SBC   H00D18374   1.473   0.966   6.204
   27SBC   C07N18375   1.291   1.049   6.260
   27SBC   H00E18376   1.312   1.151   6.231
   27SBC   C07M18377   1.181   1.014   6.338
   27SBC   H00F18378   1.108   1.091   6.352
   27SBC   C07L18379   1.163   0.894   6.410
   27SBC   C07Q18380   1.056   0.867   6.497
   27SBC   H00G18381   0.987   0.944   6.526
   27SBC   O00F18382   1.028   0.746   6.562
   27SBC   C07J18383   1.126   0.652   6.545
   27SBC   C07I18384   1.241   0.675   6.462
   27SBC   N00418385   1.341   0.573   6.451
   27SBC   C07R18386   1.324   0.456   6.532
   27SBC   C07T18387   1.207   0.435   6.606
   27SBC   C0FX18388   1.179   0.316   6.674
   27SBC   C0FW18389   1.060   0.278   6.726
   27SBC   C0G018390   0.960   0.377   6.727
   27SBC   C0G218391   0.834   0.353   6.784
   27SBC   H01E18392   0.753   0.423   6.774
   27SBC   C0G318393   0.803   0.227   6.838
   27SBC   H01C18394   0.701   0.204   6.864
   27SBC   C0G418395   0.903   0.127   6.824
   27SBC   H01D18396   0.886   0.028   6.865
   27SBC   O00E18397   0.986   0.503   6.674
   27SBC   C0FV18398   1.029   0.146   6.770
   27SBC   C0FU18399   1.132   0.049   6.748
   27SBC   H01B18400   1.119  -0.057   6.769
   27SBC   C0FT18401   1.261   0.090   6.711
   27SBC   C0FS18402   1.380   0.024   6.665
   27SBC   C0BI18403   1.477   0.123   6.625
   27SBC   C0BH18404   1.566   0.064   6.531
   27SBC   C07F18405   1.592   0.125   6.405
   27SBC   C07E18406   1.597   0.262   6.373
   27SBC   C07G18407   1.527   0.370   6.432
   27SBC   C07418408   1.546   0.482   6.352
   27SBC   C06518409   1.633   0.308   6.242
   27SBC   C06418410   1.633   0.206   6.146
   27SBC   C06318411   1.668   0.230   6.014
   27SBC   C07518412   1.652   0.092   5.954
   27SBC   C0AM18413   1.616  -0.013   6.051
   27SBC   C0AN18414   1.587  -0.162   6.032
   27SBC   C0AO18415   1.598  -0.247   5.910
   27SBC   C0B118416   1.547  -0.378   5.903
   27SBC   C0B018417   1.479  -0.433   6.000
   27SBC   C0AZ18418   1.424  -0.561   6.003
   27SBC   C0AY18419   1.369  -0.611   6.123
   27SBC   N00718420   1.333  -0.742   6.132
   27SBC   C0E218421   1.276  -0.790   6.255
   27SBC   C0E118422   1.236  -0.923   6.255
   27SBC   C0E418423   1.175  -0.971   6.371
   27SBC   C0FF18424   1.130  -1.107   6.385
   27SBC   C0FJ18425   1.047  -1.180   6.480
   27SBC   C0FK18426   0.919  -1.136   6.540
   27SBC   H01618427   0.893  -1.031   6.542
   27SBC   C0FL18428   0.833  -1.253   6.550
   27SBC   H01718429   0.725  -1.253   6.556
   27SBC   C0FM18430   0.909  -1.367   6.517
   27SBC   C0FH18431   0.897  -1.497   6.458
   27SBC   C0FI18432   1.013  -1.502   6.375
   27SBC   C0F318433   0.998  -1.568   6.253
   27SBC   C0F218434   1.081  -1.526   6.157
   27SBC   C0DW18435   1.151  -1.405   6.163
   27SBC   C0FE18436   1.150  -1.328   6.275
   27SBC   C0DV18437   1.189  -1.349   6.042
   27SBC   C0DX18438   1.226  -1.217   6.041
   27SBC   C0DK18439   1.265  -1.161   5.917
   27SBC   C0DJ18440   1.248  -1.229   5.793
   27SBC   C0DI18441   1.296  -1.177   5.675
   27SBC   C0DH18442   1.355  -1.053   5.675
   27SBC   C0DG18443   1.358  -0.977   5.793
   27SBC   C0BV18444   1.409  -0.851   5.789
   27SBC   C0BC18445   1.397  -0.770   5.900
   27SBC   C0BA18446   1.480  -0.809   5.678
   27SBC   C0B418447   1.538  -0.684   5.682
   27SBC   C0B318448   1.520  -0.599   5.793
   27SBC   C0B518449   1.611  -0.639   5.574
   27SBC   C0BU18450   1.631  -0.728   5.464
   27SBC   C0BT18451   1.563  -0.846   5.452
   27SBC   C0BS18452   1.572  -0.931   5.340
   27SBC   C0CC18453   1.486  -1.041   5.332
   27SBC   C0CB18454   1.468  -1.110   5.213
   27SBC   C0CH18455   1.347  -1.188   5.205
   27SBC   C0DO18456   1.286  -1.247   5.321
   27SBC   C0DP18457   1.206  -1.362   5.320
   27SBC   C0EA18458   1.160  -1.423   5.196
   27SBC   H01218459   1.184  -1.383   5.098
   27SBC   O00918460   1.103  -1.545   5.190
   27SBC   C0EH18461   1.055  -1.597   5.309
   27SBC   C0EG18462   1.006  -1.724   5.298
   27SBC   C0EJ18463   0.992  -1.826   5.192
   27SBC   H01018464   1.026  -1.826   5.090
   27SBC   C0EK18465   0.925  -1.945   5.250
   27SBC   H00Z18466   0.900  -2.039   5.204
   27SBC   C0EL18467   0.910  -1.912   5.389
   27SBC   C0EM18468   0.861  -1.987   5.504
   27SBC   C0EW18469   0.828  -2.122   5.502
   27SBC   H01318470   0.845  -2.184   5.414
   27SBC   C0EX18471   0.796  -2.186   5.629
   27SBC   H01418472   0.776  -2.291   5.633
   27SBC   C0F118473   0.778  -2.109   5.749
   27SBC   C0EU18474   0.813  -1.974   5.750
   27SBC   C0ET18475   0.820  -1.887   5.859
   27SBC   C0ES18476   0.861  -1.766   5.799
   27SBC   C0EE18477   0.891  -1.788   5.662
   27SBC   C0ED18478   0.958  -1.722   5.552
   27SBC   C0EC18479   1.031  -1.598   5.556
   27SBC   C0EB18480   1.080  -1.544   5.676
   27SBC   C0EN18481   1.051  -1.602   5.811
   27SBC   C0ER18482   1.107  -1.540   5.919
   27SBC   C0DS18483   1.154  -1.426   5.676
   27SBC   C0DR18484   1.197  -1.368   5.556
   27SBC   C0EY18485   0.966  -1.701   5.867
   27SBC   C0EZ18486   0.964  -1.695   6.010
   27SBC   C0F518487   0.879  -1.735   6.121
   27SBC   C0F618488   0.792  -1.851   6.109
   27SBC   N00818489   0.735  -1.897   6.233
   27SBC   C0F718490   0.735  -1.814   6.350
   27SBC   C0FQ18491   0.666  -1.869   6.459
   27SBC   H01818492   0.662  -1.816   6.554
   27SBC   C0FP18493   0.613  -1.999   6.462
   27SBC   H01918494   0.559  -2.045   6.543
   27SBC   C0FO18495   0.631  -2.080   6.352
   27SBC   H01A18496   0.598  -2.182   6.361
   27SBC   C0F818497   0.808  -1.691   6.347
   27SBC   C0F918498   0.694  -2.034   6.235
   27SBC   C0FA18499   0.692  -2.116   6.117
   27SBC   H01518500   0.660  -2.219   6.125
   27SBC   C0FB18501   0.746  -2.068   5.991
   27SBC   C0FD18502   0.788  -1.936   5.989
   27SBC   C0FC18503   0.746  -2.162   5.880
   27SBC   O00A18504   0.711  -2.284   5.892
   27SBC   C0EV18505   0.857  -1.919   5.634
   27SBC   C0EF18506   0.956  -1.782   5.416
   27SBC   C0EI18507   1.078  -1.537   5.435
   27SBC   C0DQ18508   1.164  -1.423   5.438
   27SBC   C0CE18509   1.318  -1.188   5.436
   27SBC   H00U18510   1.302  -1.213   5.110
   27SBC   C0CA18511   1.573  -1.097   5.117
   27SBC   C0C918512   1.674  -0.989   5.124
   27SBC   C0C818513   1.790  -0.996   5.037
   27SBC   C0C718514   1.887  -0.895   4.995
   27SBC   C0C618515   1.970  -0.939   4.892
   27SBC   C0C518516   2.051  -0.874   4.786
   27SBC   C0CQ18517   2.076  -0.955   4.668
   27SBC   C0D118518   1.997  -1.066   4.643
   27SBC   C0D818519   1.963  -1.074   4.514
   27SBC   C0D718520   2.055  -0.990   4.450
   27SBC   C0D618521   2.049  -0.957   4.310
   27SBC   C0D518522   2.127  -0.861   4.253
   27SBC   C0D418523   2.249  -0.793   4.298
   27SBC   C0D318524   2.268  -0.686   4.207
   27SBC   C0CX18525   2.329  -0.572   4.276
   27SBC   C0CW18526   2.304  -0.600   4.418
   27SBC   C0CV18527   2.329  -0.532   4.550
   27SBC   C0D218528   2.408  -0.413   4.560
   27SBC   C09D18529   2.504  -0.379   4.463
   27SBC   C09C18530   2.585  -0.269   4.490
   27SBC   C09B18531   2.681  -0.214   4.403
   27SBC   C09A18532   2.704  -0.285   4.281
   27SBC   C09918533   2.645  -0.409   4.265
   27SBC   C09818534   2.647  -0.438   4.124
   27SBC   C08Y18535   2.690  -0.317   4.056
   27SBC   C08X18536   2.679  -0.276   3.916
   27SBC   C08W18537   2.617  -0.366   3.819
   27SBC   C08U18538   2.536  -0.488   3.845
   27SBC   C08V18539   2.486  -0.551   3.968
   27SBC   C0DC18540   2.421  -0.674   3.928
   27SBC   H00W18541   2.376  -0.742   3.998
   27SBC   C0DB18542   2.441  -0.694   3.787
   27SBC   H00X18543   2.408  -0.778   3.726
   27SBC   C08T18544   2.499  -0.576   3.741
   27SBC   C08S18545   2.526  -0.543   3.611
   27SBC   H00N18546   2.485  -0.614   3.540
   27SBC   C08R18547   2.585  -0.418   3.571
   27SBC   C08Q18548   2.597  -0.373   3.437
   27SBC   H00O18549   2.560  -0.441   3.361
   27SBC   C08P18550   2.638  -0.246   3.399
   27SBC   C08O18551   2.641  -0.200   3.259
   27SBC   H00P18552   2.614  -0.266   3.177
   27SBC   C08N18553   2.664  -0.066   3.229
   27SBC   C08M18554   2.653  -0.022   3.089
   27SBC   O00818555   2.607  -0.096   3.003
   27SBC   O00718556   2.688   0.106   3.066
   27SBC   C08H18557   2.715   0.196   3.165
   27SBC   C08G18558   2.742   0.333   3.136
   27SBC   C03V18559   2.730   0.399   3.015
   27SBC   H00918560   2.695   0.346   2.928
   27SBC   C03U18561   2.744   0.540   3.005
   27SBC   C03W18562   2.736   0.618   2.881
   27SBC   H00A18563   2.715   0.563   2.791
   27SBC   C03X18564   2.737   0.754   2.890
   27SBC   H00B18565   2.709   0.804   2.799
   27SBC   O00518566   2.765   0.827   3.004
   27SBC   C03O18567   2.795   0.754   3.116
   27SBC   C03N18568   2.815   0.827   3.230
   27SBC   O00018569   2.808   0.965   3.218
   27SBC   C01918570   2.839   1.037   3.324
   27SBC   C01818571   2.862   0.978   3.452
   27SBC   C01718572   2.861   0.837   3.466
   27SBC   C01618573   2.873   0.781   3.593
   27SBC   C01518574   2.898   0.876   3.689
   27SBC   C01418575   2.907   0.833   3.828
   27SBC   C01318576   2.902   0.689   3.854
   27SBC   C01218577   2.904   0.687   4.001
   27SBC   C01118578   2.927   0.821   4.044
   27SBC   C01018579   2.941   0.858   4.171
   27SBC   C00Z18580   2.957   0.981   4.229
   27SBC   C00Y18581   2.942   0.952   4.365
   27SBC   C01O18582   2.920   0.815   4.389
   27SBC   C01P18583   2.861   0.766   4.501
   27SBC   C02L18584   2.828   0.638   4.493
   27SBC   C02K18585   2.854   0.570   4.371
   27SBC   C01M18586   2.886   0.631   4.243
   27SBC   C02J18587   2.832   0.429   4.390
   27SBC   C02I18588   2.852   0.335   4.291
   27SBC   C02H18589   2.885   0.339   4.154
   27SBC   C01Q18590   2.889   0.451   4.066
   27SBC   C02G18591   2.895   0.404   3.931
   27SBC   C08918592   2.903   0.266   3.940
   27SBC   C08818593   2.848   0.216   3.824
   27SBC   C08718594   2.842   0.327   3.733
   27SBC   C08618595   2.801   0.322   3.595
   27SBC   C03S18596   2.806   0.424   3.500
   27SBC   N00618597   2.781   0.362   3.374
   27SBC   C08F18598   2.757   0.232   3.394
   27SBC   C01J18599   2.830   0.564   3.495
   27SBC   C03R18600   2.817   0.624   3.368
   27SBC   C03Q18601   2.784   0.556   3.245
   27SBC   C08E18602   2.764   0.197   3.527
   27SBC   C08D18603   2.745   0.058   3.568
   27SBC   C08K18604   2.715  -0.029   3.465
   27SBC   C08C18605   2.754   0.006   3.700
   27SBC   C09118606   2.721  -0.122   3.734
   27SBC   C09218607   2.679  -0.210   3.629
   27SBC   C08B18608   2.803   0.073   3.819
   27SBC   C09018609   2.786  -0.031   3.929
   27SBC   C09418610   2.831  -0.022   4.068
   27SBC   C09518611   2.794  -0.105   4.168
   27SBC   C09R18612   2.789  -0.035   4.285
   27SBC   C09718613   2.815   0.098   4.265
   27SBC   C09618614   2.847   0.104   4.129
   27SBC   C01I18615   2.887   0.449   3.797
   27SBC   C08A18616   2.886   0.224   4.077
   27SBC   C09L18617   2.821   0.212   4.346
   27SBC   C09K18618   2.786   0.231   4.484
   27SBC   C09J18619   2.736   0.132   4.564
   27SBC   C09I18620   2.657   0.160   4.681
   27SBC   C09O18621   2.615   0.269   4.764
   27SBC   C09N18622   2.660   0.403   4.740
   27SBC   C09M18623   2.731   0.449   4.626
   27SBC   C06O18624   2.623   0.489   4.841
   27SBC   C05M18625   2.543   0.450   4.952
   27SBC   C06P18626   2.500   0.320   4.969
   27SBC   C04218627   2.504   0.544   5.047
   27SBC   C04118628   2.550   0.676   5.041
   27SBC   C04018629   2.525   0.770   5.137
   27SBC   C03Z18630   2.561   0.905   5.130
   27SBC   C03Y18631   2.631   0.945   5.020
   27SBC   C02718632   2.651   1.081   4.999
   27SBC   C02618633   2.718   1.125   4.885
   27SBC   C02818634   2.739   1.263   4.865
   27SBC   C02918635   2.684   1.351   4.952
   27SBC   C02B18636   2.684   1.489   4.924
   27SBC   C02C18637   2.617   1.580   5.001
   27SBC   C02X18638   2.598   1.710   4.959
   27SBC   C03E18639   2.521   1.791   5.034
   27SBC   C03G18640   2.463   1.752   5.150
   27SBC   C04Q18641   2.487   1.630   5.199
   27SBC   C04R18642   2.430   1.588   5.320
   27SBC   C04S18643   2.438   1.453   5.356
   27SBC   C04L18644   2.500   1.361   5.269
   27SBC   C04M18645   2.563   1.407   5.153
   27SBC   C04K18646   2.493   1.226   5.295
   27SBC   C04F18647   2.423   1.182   5.410
   27SBC   C04E18648   2.369   1.272   5.501
   27SBC   C04D18649   2.305   1.229   5.615
   27SBC   C05018650   2.245   1.322   5.700
   27SBC   C05118651   2.176   1.280   5.814
   27SBC   C05Q18652   2.126   1.370   5.905
   27SBC   C05V18653   2.058   1.328   6.015
   27SBC   N00518654   2.023   1.425   6.109
   27SBC   C07V18655   2.045   1.559   6.088
   27SBC   C08218656   2.026   1.654   6.190
   27SBC   C08118657   1.984   1.620   6.315
   27SBC   C07C18658   1.953   1.484   6.336
   27SBC   C07B18659   1.887   1.447   6.455
   27SBC   C08018660   1.873   1.534   6.558
   27SBC   C07Z18661   1.796   1.487   6.670
   27SBC   H00L18662   1.790   1.551   6.756
   27SBC   C07918663   1.736   1.364   6.681
   27SBC   C07818664   1.754   1.276   6.572
   27SBC   C07718665   1.689   1.150   6.568
   27SBC   C07X18666   1.605   1.116   6.675
   27SBC   H00I18667   1.547   1.026   6.687
   27SBC   C07Y18668   1.595   1.195   6.786
   27SBC   H00H18669   1.524   1.167   6.862
   27SBC   C07618670   1.711   1.062   6.460
   27SBC   C06C18671   1.628   0.945   6.442
   27SBC   H00C18672   1.555   0.907   6.512
   27SBC   C06F18673   1.811   1.095   6.370
   27SBC   C06E18674   1.847   1.005   6.265
   27SBC   C06G18675   1.933   1.023   6.162
   27SBC   C06H18676   1.979   1.154   6.156
   27SBC   C06I18677   1.948   1.250   6.253
   27SBC   C06L18678   1.956   0.924   6.057
   27SBC   C06M18679   1.892   0.796   6.049
   27SBC   C06K18680   2.038   0.965   5.953
   27SBC   C05S18681   2.083   1.096   5.945
   27SBC   C05U18682   2.080   0.875   5.857
   27SBC   C05X18683   2.021   0.741   5.850
   27SBC   C05G18684   2.072   0.659   5.744
   27SBC   C05F18685   2.176   0.708   5.663
   27SBC   C05E18686   2.203   0.629   5.555
   27SBC   C04818687   2.293   0.658   5.453
   27SBC   C05618688   2.307   0.569   5.356
   27SBC   C04518689   2.393   0.604   5.255
   27SBC   C04718690   2.346   0.784   5.461
   27SBC   C04918691   2.318   0.870   5.566
   27SBC   C04B18692   2.340   1.004   5.549
   27SBC   C04618693   2.421   0.825   5.354
   27SBC   C04H18694   2.453   0.955   5.339
   27SBC   C05D18695   2.129   0.514   5.564
   27SBC   C04A18696   2.230   0.834   5.668
   27SBC   C05T18697   2.170   0.922   5.758
   27SBC   C05518698   2.207   1.052   5.747
   27SBC   C06D18699   1.766   0.889   6.249
   27SBC   C07W18700   1.873   1.216   6.371
   27SBC   C08518701   1.654   1.318   6.787
   27SBC   H00M18702   1.609   1.378   6.865
   27SBC   C08418703   1.926   1.659   6.536
   27SBC   H00J18704   1.918   1.726   6.620
   27SBC   C07A18705   1.840   1.315   6.464
   27SBC   C08318706   1.965   1.712   6.416
   27SBC   H00K18707   1.987   1.816   6.401
   27SBC   O00K18708   2.047   1.788   6.157
   27SBC   C0GO18709   2.049   1.833   6.027
   27SBC   C0GN18710   2.028   1.957   5.987
   27SBC   H01L18711   1.997   2.040   6.049
   27SBC   C0GM18712   2.052   1.995   5.852
   27SBC   C0GL18713   2.021   2.120   5.822
   27SBC   H01M18714   1.994   2.190   5.900
   27SBC   O00J18715   2.040   2.169   5.697
   27SBC   C0GK18716   2.102   2.081   5.607
   27SBC   H01N18717   2.108   2.120   5.507
   27SBC   C05K18718   2.134   1.952   5.637
   27SBC   C05J18719   2.202   1.864   5.554
   27SBC   C04Y18720   2.264   1.899   5.423
   27SBC   C04X18721   2.341   1.809   5.348
   27SBC   O00618722   2.252   2.028   5.373
   27SBC   C05318723   2.292   2.074   5.256
   27SBC   C04O18724   2.359   1.980   5.172
   27SBC   C03C18725   2.408   2.008   5.043
   27SBC   C03B18726   2.405   2.116   4.947
   27SBC   C05418727   2.334   2.230   4.963
   27SBC   C0GR18728   2.325   2.331   4.864
   27SBC   C03M18729   2.370   2.347   4.726
   27SBC   C03I18730   2.437   2.246   4.653
   27SBC   C03J18731   2.459   2.276   4.513
   27SBC   N00218732   2.525   2.176   4.431
   27SBC   C02U18733   2.528   2.193   4.291
   27SBC   C02T18734   2.580   2.094   4.210
   27SBC   C02Z18735   2.564   2.103   4.074
   27SBC   N00118736   2.597   1.992   3.987
   27SBC   C02R18737   2.556   1.987   3.853
   27SBC   C03218738   2.494   2.096   3.799
   27SBC   C03118739   2.465   2.209   3.878
   27SBC   H00718740   2.410   2.293   3.840
   27SBC   C03318741   2.471   2.085   3.654
   27SBC   H00318742   2.413   2.156   3.599
   27SBC   O00418743   2.507   1.981   3.576
   27SBC   C03418744   2.549   1.868   3.643
   27SBC   C03518745   2.543   1.741   3.582
   27SBC   C03618746   2.573   1.621   3.648
   27SBC   H00518747   2.563   1.523   3.604
   27SBC   C03718748   2.631   1.639   3.773
   27SBC   H00618749   2.662   1.545   3.817
   27SBC   C00D18750   2.653   1.766   3.834
   27SBC   C00C18751   2.725   1.783   3.952
   27SBC   C00B18752   2.821   1.688   4.009
   27SBC   C00A18753   2.879   1.556   3.979
   27SBC   C00918754   2.932   1.506   4.095
   27SBC   C00818755   2.945   1.369   4.127
   27SBC   C00718756   2.937   1.280   4.017
   27SBC   C00618757   2.938   1.144   4.042
   27SBC   C00518758   2.936   1.060   3.929
   27SBC   C00418759   2.920   1.106   3.796
   27SBC   C00318760   2.919   1.244   3.778
   27SBC   C00218761   2.906   1.292   3.647
   27SBC   C01C18762   2.892   1.208   3.540
   27SBC   C01B18763   2.879   1.255   3.411
   27SBC   H00018764   2.881   1.356   3.374
   27SBC   C00118765   2.906   1.431   3.630
   27SBC   C00018766   2.915   1.512   3.743
   27SBC   C01U18767   2.914   1.643   3.694
   27SBC   H00218768   2.929   1.734   3.750
   27SBC   C01T18769   2.890   1.636   3.550
   27SBC   O00218770   2.874   1.723   3.473
   27SBC   O00118771   2.886   1.507   3.521
   27SBC   C01S18772   2.922   1.330   3.886
   27SBC   C00N18773   2.941   1.336   4.262
   27SBC   C00M18774   2.907   1.434   4.359
   27SBC   C00J18775   2.905   1.567   4.329
   27SBC   C00I18776   2.845   1.660   4.413
   27SBC   C00H18777   2.802   1.784   4.368
   27SBC   C00G18778   2.800   1.810   4.232
   27SBC   C00F18779   2.719   1.902   4.172
   27SBC   C01X18780   2.729   1.868   4.449
   27SBC   C01W18781   2.705   1.833   4.579
   27SBC   C01V18782   2.746   1.705   4.627
   27SBC   C02018783   2.709   1.663   4.752
   27SBC   C01Z18784   2.629   1.916   4.658
   27SBC   C02Y18785   2.610   1.873   4.784
   27SBC   C03918786   2.536   1.954   4.865
   27SBC   C02W18787   2.578   2.041   4.621
   27SBC   C01Y18788   2.663   1.981   4.401
   27SBC   C00U18789   2.816   1.620   4.543
   27SBC   C00S18790   2.834   1.485   4.585
   27SBC   C00T18791   2.792   1.445   4.710
   27SBC   C00R18792   2.876   1.391   4.491
   27SBC   C00Q18793   2.878   1.260   4.523
   27SBC   C00V18794   2.843   1.219   4.651
   27SBC   C02418795   2.826   1.082   4.679
   27SBC   C00X18796   2.862   0.989   4.587
   27SBC   C00P18797   2.911   1.165   4.423
   27SBC   C00O18798   2.942   1.204   4.290
   27SBC   C00K18799   2.921   1.601   4.191
   27SBC   N00018800   2.901   1.472   3.868
   27SBC   C00L18801   2.863   1.716   4.142
   27SBC   H00418802   2.509   1.736   3.479
   27SBC   C02Q18803   2.582   1.871   3.781
   27SBC   C00E18804   2.691   1.890   4.033
   27SBC   C03018805   2.496   2.205   4.014
   27SBC   O00318806   2.452   2.306   4.094
   27SBC   C02S18807   2.659   1.994   4.259
   27SBC   C03818808   2.466   2.303   4.231
   27SBC   C03L18809   2.417   2.401   4.311
   27SBC   H00818810   2.396   2.496   4.264
   27SBC   C02V18811   2.592   2.064   4.485
   27SBC   C03K18812   2.412   2.389   4.454
   27SBC   C0BK18813   2.353   2.482   4.537
   27SBC   H00T18814   2.322   2.568   4.480
   27SBC   C03H18815   2.502   2.126   4.702
   27SBC   C0BL18816   2.338   2.477   4.673
   27SBC   C0GU18817   2.280   2.581   4.745
   27SBC   H01O18818   2.243   2.671   4.697
   27SBC   C0GT18819   2.249   2.564   4.877
   27SBC   H01P18820   2.203   2.640   4.938
   27SBC   C0GS18821   2.267   2.441   4.931
   27SBC   C0GV18822   2.223   2.400   5.057
   27SBC   C0GW18823   2.152   2.474   5.158
   27SBC   H01Q18824   2.124   2.578   5.147
   27SBC   C0GX18825   2.127   2.404   5.272
   27SBC   H01R18826   2.068   2.455   5.347
   27SBC   O00L18827   2.173   2.279   5.301
   27SBC   C0GQ18828   2.276   2.270   5.086
   27SBC   C03A18829   2.479   2.079   4.833
   27SBC   C05L18830   2.256   2.209   5.212
   27SBC   C04W18831   2.224   1.731   5.592
   27SBC   C05I18832   2.179   1.684   5.715
   27SBC   C05O18833   2.126   1.769   5.802
   27SBC   C05218834   2.186   1.549   5.751
   27SBC   C04V18835   2.294   1.637   5.510
   27SBC   C04U18836   2.312   1.500   5.551
   27SBC   N00918837   2.101   1.901   5.762
   27SBC   C0GP18838   2.088   1.735   5.929
   27SBC   C05W18839   2.094   1.600   5.966
   27SBC   C07D18840   1.973   1.386   6.233
   27SBC   C06J18841   2.040   1.195   6.039
   27SBC   C05P18842   2.140   1.507   5.878
   27SBC   C05R18843   2.163   1.143   5.840
   27SBC   C04Z18844   2.246   1.457   5.667
   27SBC   C04C18845   2.291   1.094   5.641
   27SBC   C04G18846   2.409   1.046   5.436
   27SBC   C04J18847   2.540   1.134   5.204
   27SBC   C04T18848   2.371   1.407   5.470
   27SBC   N00318849   2.357   1.681   5.396
   27SBC   C04P18850   2.394   1.853   5.227
   27SBC   C03D18851   2.498   1.916   4.985
   27SBC   C02118852   2.646   1.750   4.834
   27SBC   C03F18853   2.550   1.540   5.119
   27SBC   C02218854   2.730   1.531   4.798
   27SBC   C02A18855   2.626   1.313   5.069
   27SBC   C02318856   2.800   1.311   4.749
   27SBC   C02518857   2.763   1.032   4.791
   27SBC   C02D18858   2.737   0.896   4.809
   27SBC   C02E18859   2.767   0.806   4.712
   27SBC   C02N18860   2.738   0.669   4.721
   27SBC   C04N18861   2.609   1.176   5.090
   27SBC   C02P18862   2.668   0.852   4.920
   27SBC   C04I18863   2.518   0.999   5.226
   27SBC   C04418864   2.451   0.729   5.250
   27SBC   C04318865   2.628   0.716   4.931
   27SBC   C05N18866   2.665   0.624   4.834
   27SBC   C09U18867   2.527   0.229   4.870
   27SBC   C09V18868   2.471   0.102   4.880
   27SBC   C09X18869   2.502   0.001   4.796
   27SBC   C09Y18870   2.439  -0.127   4.790
   27SBC   C0A118871   2.345  -0.150   4.882
   27SBC   C0A218872   2.321  -0.057   4.981
   27SBC   C0A418873   2.245  -0.088   5.089
   27SBC   C07118874   2.211   0.003   5.186
   27SBC   C0A518875   2.119  -0.030   5.283
   27SBC   C0A918876   2.072  -0.159   5.289
   27SBC   C0A818877   2.090  -0.242   5.185
   27SBC   C0AP18878   2.019  -0.358   5.182
   27SBC   C0BY18879   2.034  -0.440   5.070
   27SBC   C0BX18880   2.130  -0.419   4.971
   27SBC   C0C218881   2.153  -0.521   4.870
   27SBC   C0C318882   2.242  -0.494   4.769
   27SBC   C0CT18883   2.308  -0.370   4.779
   27SBC   C0C118884   2.085  -0.643   4.873
   27SBC   C0C018885   1.985  -0.664   4.979
   27SBC   C0A718886   2.195  -0.299   4.978
   27SBC   C0BZ18887   1.972  -0.562   5.071
   27SBC   C0BO18888   1.870  -0.593   5.165
   27SBC   C0BN18889   1.855  -0.515   5.274
   27SBC   C0BM18890   1.770  -0.559   5.371
   27SBC   C0B918891   1.759  -0.479   5.483
   27SBC   C0B818892   1.817  -0.349   5.486
   27SBC   C0AD18893   1.912  -0.315   5.390
   27SBC   C0AF18894   1.790  -0.266   5.591
   27SBC   C0AG18895   1.704  -0.304   5.693
   27SBC   C0B718896   1.651  -0.431   5.692
   27SBC   C0AE18897   1.854  -0.146   5.583
   27SBC   C0AB18898   1.951  -0.107   5.488
   27SBC   C0AA18899   2.002   0.020   5.483
   27SBC   C0AJ18900   1.796  -0.051   5.659
   27SBC   C0AK18901   1.835   0.081   5.645
   27SBC   C06W18902   1.774   0.150   5.737
   27SBC   C0AI18903   1.706  -0.070   5.764
   27SBC   C0BP18904   1.812  -0.716   5.146
   27SBC   C0BQ18905   1.720  -0.764   5.246
   27SBC   C0BW18906   1.927  -0.397   5.284
   27SBC   C0AC18907   1.989  -0.196   5.391
   27SBC   C0A618908   2.176  -0.210   5.084
   27SBC   C0A318909   2.285  -0.275   4.881
   27SBC   C09Z18910   2.466  -0.219   4.694
   27SBC   C09W18911   2.383   0.070   4.980
   27SBC   C07218912   2.355   0.160   5.080
   27SBC   C09H18913   2.602   0.030   4.708
   27SBC   C09G18914   2.635  -0.070   4.621
   27SBC   C09P18915   2.713  -0.006   4.525
   27SBC   C02O18916   2.783   0.370   4.513
   27SBC   C02M18917   2.767   0.583   4.614
   27SBC   C02F18918   2.833   0.857   4.606
   27SBC   C00W18919   2.912   1.035   4.465
   27SBC   C01R18920   2.949   1.115   4.181
   27SBC   C01N18921   2.917   0.760   4.265
   27SBC   C01L18922   2.888   0.584   4.106
   27SBC   C01H18923   2.890   0.590   3.750
   27SBC   C01K18924   2.934   0.913   3.941
   27SBC   C01E18925   2.903   1.019   3.684
   27SBC   C01G18926   2.865   0.641   3.610
   27SBC   C01D18927   2.889   1.068   3.562
   27SBC   C01A18928   2.850   1.177   3.304
   27SBC   H00118929   2.853   1.214   3.203
   27SBC   C01F18930   2.834   0.762   3.357
   27SBC   C03P18931   2.765   0.616   3.121
   27SBC   C03T18932   2.775   0.417   3.246
   27SBC   C08I18933   2.728   0.148   3.295
   27SBC   C08J18934   2.704   0.019   3.332
   27SBC   C08L18935   2.684  -0.162   3.496
   27SBC   C09318936   2.630  -0.333   3.676
   27SBC   C08Z18937   2.722  -0.149   3.873
   27SBC   C09T18938   2.524  -0.507   4.103
   27SBC   C09S18939   2.745  -0.234   4.161
   27SBC   C09Q18940   2.732  -0.082   4.409
   27SBC   C09F18941   2.557  -0.188   4.600
   27SBC   C09E18942   2.525  -0.434   4.332
   27SBC   C0A018943   2.393  -0.333   4.675
   27SBC   C0CU18944   2.256  -0.577   4.658
   27SBC   C0CR18945   2.183  -0.703   4.663
   27SBC   C0CZ18946   2.186  -0.777   4.544
   27SBC   C0DA18947   2.451  -0.517   4.235
   27SBC   C0D918948   2.154  -0.684   4.110
   27SBC   H00V18949   2.127  -0.615   4.031
   27SBC   C0CY18950   2.253  -0.729   4.426
   27SBC   C0DF18951   2.071  -0.798   4.140
   27SBC   C0DE18952   1.954  -0.875   4.113
   27SBC   C0GI18953   1.858  -0.873   3.997
   27SBC   H01K18954   1.887  -0.827   3.904
   27SBC   C0GJ18955   1.758  -0.959   4.007
   27SBC   H01J18956   1.701  -0.967   3.916
   27SBC   O00I18957   1.723  -1.030   4.123
   27SBC   C0GH18958   1.816  -1.037   4.233
   27SBC   C0GG18959   1.776  -1.123   4.339
   27SBC   O00G18960   1.658  -1.189   4.318
   27SBC   C0G818961   1.602  -1.268   4.416
   27SBC   C0G918962   1.495  -1.345   4.380
   27SBC   H01G18963   1.451  -1.347   4.281
   27SBC   C0GA18964   1.435  -1.423   4.478
   27SBC   H01H18965   1.364  -1.498   4.446
   27SBC   C0GB18966   1.471  -1.425   4.611
   27SBC   C0EP18967   1.557  -1.325   4.647
   27SBC   C0E818968   1.542  -1.278   4.783
   27SBC   C0CK18969   1.593  -1.172   4.864
   27SBC   C0CL18970   1.725  -1.148   4.843
   27SBC   C0E918971   1.795  -1.163   4.713
   27SBC   C0GE18972   1.755  -1.189   4.574
   27SBC   C0E718973   1.489  -1.369   4.882
   27SBC   C0CJ18974   1.506  -1.334   5.014
   27SBC   C0E618975   1.475  -1.426   5.114
   27SBC   H00Y18976   1.496  -1.392   5.214
   27SBC   C0EO18977   1.413  -1.549   5.074
   27SBC   H01118978   1.382  -1.626   5.142
   27SBC   C0G618979   1.380  -1.578   4.934
   27SBC   C0G518980   1.321  -1.702   4.877
   27SBC   H01F18981   1.297  -1.789   4.938
   27SBC   C0GD18982   1.310  -1.717   4.745
   27SBC   H01I18983   1.279  -1.813   4.706
   27SBC   O00H18984   1.339  -1.620   4.652
   27SBC   C0EQ18985   1.425  -1.489   4.839
   27SBC   C0GC18986   1.419  -1.518   4.699
   27SBC   C0G718987   1.641  -1.260   4.550
   27SBC   C0DD18988   1.936  -0.966   4.224
   27SBC   C0GF18989   1.839  -1.131   4.468
   27SBC   C0CO18990   1.922  -1.115   4.744
   27SBC   C0D018991   2.117  -0.902   4.552
   27SBC   C0C418992   2.103  -0.741   4.777
   27SBC   C0CN18993   1.940  -1.079   4.877
   27SBC   C0CP18994   1.880  -0.760   5.026
   27SBC   C0CM18995   1.821  -1.107   4.946
   27SBC   C0CI18996   1.563  -1.195   5.006
   27SBC   C0CD18997   1.403  -1.075   5.445
   27SBC   C0BR18998   1.659  -0.891   5.235
   27SBC   C0CS18999   1.703  -0.679   5.354
   27SBC   C0B619000   1.675  -0.516   5.585
   27SBC   C0CG19001   1.490  -0.887   5.564
   27SBC   C0CF19002   1.421  -1.005   5.561
   27SBC   C0E519003   1.272  -1.246   5.558
   27SBC   C0DT19004   1.191  -1.357   5.795
   27SBC   C0DL19005   1.307  -1.029   5.915
   27SBC   C0DM19006   1.305  -0.954   6.029
   27SBC   C0DY19007   1.225  -1.142   6.156
   27SBC   C0DU19008   1.169  -1.413   5.921
   27SBC   C0F019009   1.062  -1.595   6.037
   27SBC   C0F419010   0.897  -1.667   6.239
   27SBC   C0FG19011   1.089  -1.388   6.385
   27SBC   O00B19012   0.803  -1.597   6.452
   27SBC   C0FN19013   1.041  -1.320   6.493
   27SBC   C0DZ19014   1.171  -1.192   6.275
   27SBC   O00C19015   1.135  -0.883   6.474
   27SBC   C0FR19016   1.182  -0.756   6.475
   27SBC   O00D19017   1.150  -0.686   6.572
   27SBC   C0E019018   1.262  -1.007   6.149
   27SBC   C0E319019   1.268  -0.710   6.367
   27SBC   C0AW19020   1.324  -0.585   6.368
   27SBC   C0AV19021   1.341  -0.506   6.482
   27SBC   H00Q19022   1.314  -0.533   6.583
   27SBC   C0AU19023   1.415  -0.379   6.474
   27SBC   H00R19024   1.449  -0.333   6.565
   27SBC   C0AT19025   1.452  -0.334   6.341
   27SBC   C0AS19026   1.527  -0.220   6.284
   27SBC   C0AR19027   1.544  -0.094   6.352
   27SBC   C0BE19028   1.431  -0.416   6.236
   27SBC   C0DN19029   1.343  -0.823   6.019
   27SBC   C0AX19030   1.369  -0.540   6.243
   27SBC   C0BB19031   1.445  -0.644   5.899
   27SBC   C0BD19032   1.487  -0.364   6.123
   27SBC   C0B219033   1.572  -0.467   5.796
   27SBC   C0AH19034   1.664  -0.205   5.790
   27SBC   C0BF19035   1.542  -0.240   6.141
   27SBC   C0AL19036   1.690   0.063   5.817
   27SBC   C07U19037   1.618   0.064   6.174
   27SBC   C0AQ19038   1.597   0.026   6.308
   27SBC   C0BG19039   1.516  -0.072   6.499
   27SBC   C0FY19040   1.406   0.243   6.614
   27SBC   C0BJ19041   1.397  -0.090   6.581
   27SBC   H00S19042   1.324  -0.168   6.571
   27SBC   C0FZ19043   1.282   0.228   6.679
   27SBC   C07S19044   1.429   0.359   6.534
   27SBC   C0G119045   1.108   0.528   6.611
   27SBC   C07K19046   1.261   0.793   6.398
   27SBC   C07H19047   1.457   0.590   6.370
   27SBC   C06B19048   1.660   0.863   6.333
   27SBC   C06N19049   1.783   0.794   6.152
   27SBC   C06619050   1.627   0.453   6.235
   27SBC   C06219051   1.717   0.367   5.957
   27SBC   C05Y19052   1.915   0.707   5.941
   27SBC   C06119053   1.742   0.389   5.815
   27SBC   C05H19054   2.043   0.540   5.671
   27SBC   C06V19055   1.805   0.284   5.737
   27SBC   C06Y19056   1.944   0.114   5.565
   27SBC   C05C19057   2.151   0.411   5.463
   27SBC   C06Z19058   2.082   0.059   5.382
   27SBC   C07019059   2.271   0.129   5.187
   27SBC   C05B19060   2.249   0.446   5.369
   27SBC   C05719061   2.430   0.512   5.158
   27SBC   C05919062   2.409   0.287   5.074
   28SBC   C05819063  10.380   4.291   5.613
   28SBC   C05A19064  10.512   4.343   5.623
   28SBC   C06Q19065  10.534   4.477   5.647
   28SBC   C06R19066  10.664   4.525   5.651
   28SBC   C06S19067  10.777   4.443   5.635
   28SBC   C06T19068  10.908   4.509   5.625
   28SBC   C06U19069  11.035   4.451   5.580
   28SBC   C06X19070  11.086   4.322   5.571
   28SBC   C06019071  11.206   4.312   5.495
   28SBC   C05Z19072  11.322   4.227   5.522
   28SBC   C06819073  11.439   4.321   5.520
   28SBC   C06719074  11.586   4.296   5.513
   28SBC   C06919075  11.632   4.163   5.513
   28SBC   C06A19076  11.766   4.122   5.484
   28SBC   C07319077  11.873   4.171   5.404
   28SBC   C07P19078  11.929   4.089   5.303
   28SBC   C07O19079  11.879   3.966   5.245
   28SBC   H00D19080  11.779   3.937   5.274
   28SBC   C07N19081  11.949   3.887   5.155
   28SBC   H00E19082  11.905   3.809   5.095
   28SBC   C07M19083  12.075   3.935   5.117
   28SBC   H00F19084  12.128   3.873   5.046
   28SBC   C07L19085  12.128   4.055   5.158
   28SBC   C07Q19086  12.254   4.107   5.106
   28SBC   H00G19087  12.316   4.048   5.040
   28SBC   O00F19088  12.298   4.232   5.136
   28SBC   C07J19089  12.230   4.303   5.229
   28SBC   C07I19090  12.109   4.252   5.292
   28SBC   N00419091  12.040   4.337   5.381
   28SBC   C07R19092  12.095   4.464   5.419
   28SBC   C07T19093  12.211   4.512   5.351
   28SBC   C0FX19094  12.265   4.635   5.369
   28SBC   C0FW19095  12.368   4.691   5.309
   28SBC   C0G019096  12.416   4.617   5.201
   28SBC   C0G219097  12.520   4.667   5.121
   28SBC   H01E19098  12.557   4.608   5.038
   28SBC   C0G319099  12.565   4.794   5.148
   28SBC   H01C19100  12.642   4.835   5.084
   28SBC   C0G419101  12.509   4.867   5.255
   28SBC   H01D19102  12.552   4.966   5.256
   28SBC   O00E19103  12.378   4.492   5.175
   28SBC   C0FV19104  12.407   4.822   5.335
   28SBC   C0FU19105  12.344   4.898   5.438
   28SBC   H01B19106  12.376   4.998   5.463
   28SBC   C0FT19107  12.244   4.836   5.516
   28SBC   C0FS19108  12.159   4.880   5.624
   28SBC   C0BI19109  12.082   4.757   5.665
   28SBC   C0BH19110  11.943   4.800   5.681
   28SBC   C07F19111  11.829   4.725   5.632
   28SBC   C07E19112  11.812   4.594   5.599
   28SBC   C07G19113  11.901   4.513   5.547
   28SBC   C07419114  11.839   4.397   5.503
   28SBC   C06519115  11.690   4.536   5.562
   28SBC   C06419116  11.583   4.627   5.556
   28SBC   C06319117  11.448   4.599   5.528
   28SBC   C07519118  11.388   4.735   5.512
   28SBC   C0AM19119  11.480   4.844   5.539
   28SBC   C0AN19120  11.466   4.988   5.536
   28SBC   C0AO19121  11.342   5.068   5.556
   28SBC   C0B119122  11.348   5.213   5.561
   28SBC   C0B019123  11.462   5.280   5.531
   28SBC   C0AZ19124  11.482   5.416   5.538
   28SBC   C0AY19125  11.610   5.474   5.508
   28SBC   N00719126  11.633   5.610   5.521
   28SBC   C0E219127  11.761   5.659   5.483
   28SBC   C0E119128  11.775   5.798   5.489
   28SBC   C0E419129  11.901   5.858   5.460
   28SBC   C0FF19130  11.925   5.998   5.470
   28SBC   C0FJ19131  12.036   6.087   5.434
   28SBC   C0FK19132  12.124   6.071   5.324
   28SBC   H01619133  12.149   5.980   5.270
   28SBC   C0FL19134  12.175   6.207   5.296
   28SBC   H01719135  12.250   6.239   5.226
   28SBC   C0FM19136  12.099   6.298   5.370
   28SBC   C0FH19137  12.052   6.434   5.390
   28SBC   C0FI19138  11.952   6.405   5.491
   28SBC   C0F319139  11.839   6.487   5.501
   28SBC   C0F219140  11.729   6.424   5.556
   28SBC   C0DW19141  11.711   6.288   5.562
   28SBC   C0FE19142  11.816   6.207   5.535
   28SBC   C0DV19143  11.585   6.233   5.574
   28SBC   C0DX19144  11.567   6.092   5.562
   28SBC   C0DK19145  11.441   6.036   5.569
   28SBC   C0DJ19146  11.328   6.121   5.571
   28SBC   C0DI19147  11.202   6.069   5.585
   28SBC   C0DH19148  11.191   5.930   5.604
   28SBC   C0DG19149  11.303   5.851   5.602
   28SBC   C0BV19150  11.289   5.711   5.608
   28SBC   C0BC19151  11.399   5.630   5.583
   28SBC   C0BA19152  11.162   5.661   5.629
   28SBC   C0B419153  11.145   5.523   5.619
   28SBC   C0B319154  11.255   5.439   5.603
   28SBC   C0B519155  11.018   5.472   5.645
   28SBC   C0BU19156  10.908   5.556   5.671
   28SBC   C0BT19157  10.922   5.693   5.667
   28SBC   C0BS19158  10.808   5.775   5.687
   28SBC   C0CC19159  10.821   5.910   5.657
   28SBC   C0CB19160  10.711   5.997   5.659
   28SBC   C0CH19161  10.728   6.121   5.590
   28SBC   C0DO19162  10.853   6.179   5.569
   28SBC   C0DP19163  10.871   6.311   5.535
   28SBC   C0EA19164  10.757   6.392   5.509
   28SBC   H01219165  10.659   6.348   5.506
   28SBC   O00919166  10.764   6.522   5.479
   28SBC   C0EH19167  10.895   6.576   5.472
   28SBC   C0EG19168  10.904   6.712   5.448
   28SBC   C0EJ19169  10.802   6.814   5.430
   28SBC   H01019170  10.696   6.797   5.439
   28SBC   C0EK19171  10.869   6.942   5.412
   28SBC   H00Z19172  10.823   7.038   5.395
   28SBC   C0EL19173  11.008   6.912   5.414
   28SBC   C0EM19174  11.124   6.989   5.392
   28SBC   C0EW19175  11.131   7.124   5.363
   28SBC   H01319176  11.044   7.186   5.352
   28SBC   C0EX19177  11.265   7.187   5.344
   28SBC   H01419178  11.263   7.295   5.334
   28SBC   C0F119179  11.387   7.106   5.342
   28SBC   C0EU19180  11.369   6.972   5.378
   28SBC   C0ET19181  11.472   6.876   5.390
   28SBC   C0ES19182  11.400   6.758   5.416
   28SBC   C0EE19183  11.263   6.780   5.426
   28SBC   C0ED19184  11.141   6.707   5.448
   28SBC   C0EC19185  11.138   6.568   5.488
   28SBC   C0EB19186  11.248   6.484   5.516
   28SBC   C0EN19187  11.384   6.534   5.528
   28SBC   C0ER19188  11.483   6.447   5.574
   28SBC   C0DS19189  11.233   6.344   5.540
   28SBC   C0DR19190  11.105   6.285   5.542
   28SBC   C0EY19191  11.463   6.652   5.485
   28SBC   C0EZ19192  11.607   6.633   5.494
   28SBC   C0F519193  11.726   6.692   5.435
   28SBC   C0F619194  11.724   6.819   5.373
   28SBC   N00819195  11.849   6.870   5.324
   28SBC   C0F719196  11.962   6.779   5.299
   28SBC   C0FQ19197  12.076   6.840   5.242
   28SBC   H01819198  12.163   6.779   5.222
   28SBC   C0FP19199  12.087   6.969   5.208
   28SBC   H01919200  12.180   7.003   5.165
   28SBC   C0FO19201  11.981   7.053   5.234
   28SBC   H01A19202  11.989   7.159   5.216
   28SBC   C0F819203  11.950   6.649   5.354
   28SBC   C0F919204  11.862   7.006   5.282
   28SBC   C0FA19205  11.753   7.095   5.287
   28SBC   H01519206  11.761   7.196   5.249
   28SBC   C0FB19207  11.629   7.047   5.329
   28SBC   C0FD19208  11.614   6.916   5.372
   28SBC   C0FC19209  11.520   7.146   5.321
   28SBC   O00A19210  11.542   7.265   5.300
   28SBC   C0EV19211  11.246   6.919   5.401
   28SBC   C0EF19212  11.021   6.774   5.447
   28SBC   C0EI19213  11.017   6.504   5.496
   28SBC   C0DQ19214  10.998   6.366   5.522
   28SBC   C0CE19215  10.968   6.099   5.591
   28SBC   H00U19216  10.632   6.167   5.574
   28SBC   C0CA19217  10.603   5.958   5.744
   28SBC   C0C919218  10.578   5.819   5.765
   28SBC   C0C819219  10.453   5.779   5.829
   28SBC   C0C719220  10.367   5.655   5.814
   28SBC   C0C619221  10.240   5.653   5.874
   28SBC   C0C519222  10.109   5.588   5.848
   28SBC   C0CQ19223   9.997   5.667   5.874
   28SBC   C0D119224  10.013   5.805   5.877
   28SBC   C0D819225   9.920   5.872   5.797
   28SBC   C0D719226   9.814   5.777   5.778
   28SBC   C0D619227   9.687   5.795   5.706
   28SBC   C0D519228   9.598   5.690   5.667
   28SBC   C0D419229   9.602   5.549   5.691
   28SBC   C0D319230   9.534   5.491   5.576
   28SBC   C0CX19231   9.574   5.351   5.563
   28SBC   C0CW19232   9.701   5.344   5.640
   28SBC   C0CV19233   9.802   5.240   5.672
   28SBC   C0D219234   9.773   5.100   5.660
   28SBC   C09D19235   9.648   5.038   5.644
   28SBC   C09C19236   9.631   4.898   5.655
   28SBC   C09B19237   9.518   4.826   5.628
   28SBC   C09A19238   9.403   4.904   5.600
   28SBC   C09919239   9.403   5.039   5.615
   28SBC   C09819240   9.290   5.094   5.541
   28SBC   C08Y19241   9.216   4.980   5.484
   28SBC   C08X19242   9.104   4.980   5.388
   28SBC   C08W19243   9.065   5.100   5.324
   28SBC   C08U19244   9.125   5.233   5.342
   28SBC   C08V19245   9.251   5.280   5.391
   28SBC   C0DC19246   9.236   5.419   5.386
   28SBC   H00W19247   9.303   5.483   5.441
   28SBC   C0DB19248   9.126   5.463   5.322
   28SBC   H00X19249   9.095   5.566   5.317
   28SBC   C08T19250   9.060   5.345   5.283
   28SBC   C08S19251   8.942   5.335   5.209
   28SBC   H00N19252   8.897   5.424   5.166
   28SBC   C08R19253   8.895   5.206   5.174
   28SBC   C08Q19254   8.778   5.191   5.088
   28SBC   H00O19255   8.752   5.284   5.038
   28SBC   C08P19256   8.726   5.070   5.044
   28SBC   C08O19257   8.618   5.055   4.955
   28SBC   H00P19258   8.559   5.136   4.914
   28SBC   C08N19259   8.586   4.927   4.910
   28SBC   C08M19260   8.470   4.914   4.829
   28SBC   O00819261   8.399   5.015   4.794
   28SBC   O00719262   8.434   4.787   4.784
   28SBC   C08H19263   8.505   4.679   4.824
   28SBC   C08G19264   8.478   4.546   4.771
   28SBC   C03V19265   8.384   4.505   4.675
   28SBC   H00919266   8.303   4.572   4.648
   28SBC   C03U19267   8.385   4.379   4.612
   28SBC   C03W19268   8.287   4.338   4.516
   28SBC   H00A19269   8.203   4.399   4.488
   28SBC   C03X19270   8.294   4.215   4.466
   28SBC   H00B19271   8.214   4.186   4.400
   28SBC   O00519272   8.384   4.119   4.504
   28SBC   C03O19273   8.486   4.160   4.589
   28SBC   C03N19274   8.596   4.077   4.610
   28SBC   O00019275   8.606   3.971   4.531
   28SBC   C01919276   8.711   3.888   4.544
   28SBC   C01819277   8.800   3.901   4.651
   28SBC   C01719278   8.787   4.015   4.733
   28SBC   C01619279   8.876   4.035   4.843
   28SBC   C01519280   8.967   3.930   4.860
   28SBC   C01419281   9.060   3.942   4.963
   28SBC   C01319282   9.061   4.056   5.044
   28SBC   C01219283   9.177   4.028   5.128
   28SBC   C01119284   9.210   3.899   5.099
   28SBC   C01019285   9.309   3.840   5.164
   28SBC   C00Z19286   9.370   3.719   5.137
   28SBC   C00Y19287   9.487   3.724   5.220
   28SBC   C01O19288   9.502   3.841   5.288
   28SBC   C01P19289   9.617   3.888   5.332
   28SBC   C02L19290   9.616   4.015   5.373
   28SBC   C02K19291   9.494   4.087   5.348
   28SBC   C01M19292   9.376   4.044   5.274
   28SBC   C02J19293   9.501   4.217   5.405
   28SBC   C02I19294   9.398   4.307   5.413
   28SBC   C02H19295   9.272   4.313   5.352
   28SBC   C01Q19296   9.206   4.222   5.267
   28SBC   C02G19297   9.088   4.281   5.225
   28SBC   C08919298   9.067   4.401   5.305
   28SBC   C08819299   8.983   4.490   5.248
   28SBC   C08719300   8.928   4.410   5.131
   28SBC   C08619301   8.826   4.451   5.045
   28SBC   C03S19302   8.759   4.377   4.944
   28SBC   N00619303   8.658   4.464   4.904
   28SBC   C08F19304   8.663   4.587   4.960
   28SBC   C01J19305   8.769   4.247   4.887
   28SBC   C03R19306   8.677   4.221   4.786
   28SBC   C03Q19307   8.580   4.318   4.741
   28SBC   C08E19308   8.773   4.588   5.043
   28SBC   C08D19309   8.810   4.711   5.104
   28SBC   C08K19310   8.747   4.824   5.055
   28SBC   C08C19311   8.899   4.731   5.212
   28SBC   C09119312   8.945   4.857   5.246
   28SBC   C09219313   8.892   4.976   5.185
   28SBC   C08B19314   8.974   4.634   5.285
   28SBC   C09019315   9.059   4.712   5.380
   28SBC   C09419316   9.177   4.664   5.446
   28SBC   C09519317   9.274   4.740   5.514
   28SBC   C09R19318   9.381   4.654   5.550
   28SBC   C09719319   9.354   4.526   5.503
   28SBC   C09619320   9.229   4.535   5.439
   28SBC   C01I19321   8.988   4.278   5.114
   28SBC   C08A19322   9.190   4.426   5.370
   28SBC   C09L19323   9.442   4.415   5.492
   28SBC   C09K19324   9.573   4.383   5.540
   28SBC   C09J19325   9.658   4.480   5.587
   28SBC   C09I19326   9.792   4.467   5.603
   28SBC   C09O19327   9.899   4.369   5.582
   28SBC   C09N19328   9.874   4.238   5.537
   28SBC   C09M19329   9.748   4.192   5.485
   28SBC   C06O19330   9.989   4.150   5.532
   28SBC   C05M19331  10.117   4.198   5.568
   28SBC   C06P19332  10.142   4.329   5.595
   28SBC   C04219333  10.226   4.109   5.563
   28SBC   C04119334  10.209   3.977   5.520
   28SBC   C04019335  10.320   3.888   5.517
   28SBC   C03Z19336  10.309   3.763   5.453
   28SBC   C03Y19337  10.182   3.719   5.409
   28SBC   C02719338  10.171   3.597   5.340
   28SBC   C02619339  10.053   3.559   5.286
   28SBC   C02819340  10.038   3.435   5.226
   28SBC   C02919341  10.147   3.357   5.212
   28SBC   C02B19342  10.137   3.247   5.127
   28SBC   C02C19343  10.251   3.171   5.098
   28SBC   C02X19344  10.241   3.072   5.010
   28SBC   C03E19345  10.357   3.004   4.974
   28SBC   C03G19346  10.482   3.034   5.019
   28SBC   C04Q19347  10.492   3.134   5.114
   28SBC   C04R19348  10.614   3.178   5.162
   28SBC   C04S19349  10.627   3.290   5.239
   28SBC   C04L19350  10.518   3.363   5.266
   28SBC   C04M19351  10.390   3.319   5.226
   28SBC   C04K19352  10.522   3.487   5.334
   28SBC   C04F19353  10.650   3.528   5.380
   28SBC   C04E19354  10.763   3.457   5.348
   28SBC   C04D19355  10.888   3.507   5.387
   28SBC   C05019356  11.002   3.439   5.346
   28SBC   C05119357  11.128   3.491   5.373
   28SBC   C05Q19358  11.241   3.420   5.343
   28SBC   C05V19359  11.362   3.466   5.379
   28SBC   N00519360  11.479   3.387   5.357
   28SBC   C07V19361  11.464   3.265   5.291
   28SBC   C08219362  11.579   3.195   5.254
   28SBC   C08119363  11.702   3.230   5.296
   28SBC   C07C19364  11.719   3.346   5.370
   28SBC   C07B19365  11.846   3.392   5.410
   28SBC   C08019366  11.958   3.306   5.389
   28SBC   C07Z19367  12.083   3.352   5.438
   28SBC   H00L19368  12.164   3.288   5.407
   28SBC   C07919369  12.101   3.477   5.506
   28SBC   C07819370  11.987   3.556   5.518
   28SBC   C07719371  12.001   3.685   5.563
   28SBC   C07X19372  12.132   3.733   5.598
   28SBC   H00I19373  12.153   3.834   5.631
   28SBC   C07Y19374  12.239   3.648   5.598
   28SBC   H00H19375  12.336   3.685   5.629
   28SBC   C07619376  11.892   3.771   5.561
   28SBC   C06C19377  11.908   3.917   5.560
   28SBC   H00C19378  12.007   3.958   5.546
   28SBC   C06F19379  11.761   3.724   5.534
   28SBC   C06E19380  11.648   3.811   5.535
   28SBC   C06G19381  11.520   3.773   5.508
   28SBC   C06H19382  11.504   3.637   5.468
   28SBC   C06I19383  11.617   3.553   5.454
   28SBC   C06L19384  11.407   3.859   5.518
   28SBC   C06M19385  11.423   4.001   5.543
   28SBC   C06K19386  11.280   3.800   5.503
   28SBC   C05S19387  11.269   3.670   5.455
   28SBC   C05U19388  11.168   3.877   5.535
   28SBC   C05X19389  11.177   4.017   5.563
   28SBC   C05G19390  11.054   4.076   5.607
   28SBC   C05F19391  10.936   4.000   5.612
   28SBC   C05E19392  10.825   4.082   5.631
   28SBC   C04819393  10.695   4.029   5.620
   28SBC   C05619394  10.591   4.119   5.620
   28SBC   C04519395  10.462   4.071   5.588
   28SBC   C04719396  10.681   3.896   5.576
   28SBC   C04919397  10.793   3.826   5.545
   28SBC   C04B19398  10.785   3.700   5.485
   28SBC   C04619399  10.558   3.848   5.536
   28SBC   C04H19400  10.547   3.721   5.476
   28SBC   C05D19401  10.862   4.216   5.647
   28SBC   C04A19402  10.922   3.869   5.560
   28SBC   C05T19403  11.044   3.808   5.522
   28SBC   C05519404  11.030   3.685   5.470
   28SBC   C06D19405  11.665   3.948   5.561
   28SBC   C07W19406  11.747   3.599   5.489
   28SBC   C08519407  12.224   3.516   5.556
   28SBC   H00M19408  12.311   3.452   5.551
   28SBC   C08419409  11.945   3.189   5.314
   28SBC   H00J19410  12.030   3.125   5.295
   28SBC   C07A19411  11.860   3.517   5.474
   28SBC   C08319412  11.816   3.162   5.262
   28SBC   H00K19413  11.806   3.073   5.201
   28SBC   O00K19414  11.571   3.083   5.183
   28SBC   C0GO19415  11.450   3.037   5.138
   28SBC   C0GN19416  11.442   2.919   5.068
   28SBC   H01L19417  11.532   2.867   5.042
   28SBC   C0GM19418  11.316   2.862   5.031
   28SBC   C0GL19419  11.314   2.740   4.970
   28SBC   H01M19420  11.403   2.680   4.959
   28SBC   O00J19421  11.190   2.684   4.951
   28SBC   C0GK19422  11.078   2.756   4.986
   28SBC   H01N19423  10.981   2.708   4.988
   28SBC   C05K19424  11.084   2.883   5.031
   28SBC   C05J19425  10.966   2.964   5.037
   28SBC   C04Y19426  10.833   2.942   4.979
   28SBC   C04X19427  10.716   3.004   5.021
   28SBC   O00619428  10.828   2.852   4.880
   28SBC   C05319429  10.706   2.827   4.817
   28SBC   C04O19430  10.589   2.882   4.862
   28SBC   C03C19431  10.453   2.862   4.809
   28SBC   C03B19432  10.396   2.798   4.695
   28SBC   C05419433  10.476   2.745   4.592
   28SBC   C0GR19434  10.421   2.690   4.472
   28SBC   C03M19435  10.286   2.682   4.411
   28SBC   C03I19436  10.166   2.745   4.465
   28SBC   C03J19437  10.048   2.745   4.382
   28SBC   N00219438   9.928   2.799   4.426
   28SBC   C02U19439   9.813   2.807   4.339
   28SBC   C02T19440   9.699   2.873   4.370
   28SBC   C02Z19441   9.601   2.887   4.274
   28SBC   N00119442   9.485   2.968   4.301
   28SBC   C02R19443   9.390   2.989   4.202
   28SBC   C03219444   9.399   2.921   4.080
   28SBC   C03119445   9.511   2.844   4.057
   28SBC   H00719446   9.503   2.786   3.966
   28SBC   C03319447   9.294   2.949   3.982
   28SBC   H00319448   9.310   2.915   3.880
   28SBC   O00419449   9.189   3.037   4.010
   28SBC   C03419450   9.179   3.088   4.137
   28SBC   C03519451   9.061   3.159   4.168
   28SBC   C03619452   9.033   3.206   4.297
   28SBC   H00519453   8.944   3.261   4.321
   28SBC   C03719454   9.135   3.177   4.390
   28SBC   H00619455   9.120   3.213   4.490
   28SBC   C00D19456   9.262   3.120   4.357
   28SBC   C00C19457   9.360   3.114   4.456
   28SBC   C00B19458   9.358   3.181   4.588
   28SBC   C00A19459   9.280   3.291   4.661
   28SBC   C00919460   9.354   3.302   4.785
   28SBC   C00819461   9.358   3.413   4.873
   28SBC   C00719462   9.266   3.511   4.848
   28SBC   C00619463   9.260   3.614   4.939
   28SBC   C00519464   9.164   3.716   4.916
   28SBC   C00419465   9.080   3.713   4.805
   28SBC   C00319466   9.091   3.611   4.714
   28SBC   C00219467   9.015   3.612   4.595
   28SBC   C01C19468   8.915   3.703   4.579
   28SBC   C01B19469   8.820   3.681   4.473
   28SBC   H00019470   8.825   3.594   4.410
   28SBC   C00119471   9.053   3.530   4.487
   28SBC   C00019472   9.159   3.441   4.507
   28SBC   C01U19473   9.230   3.451   4.387
   28SBC   H00219474   9.321   3.399   4.363
   28SBC   C01T19475   9.138   3.517   4.287
   28SBC   O00219476   9.141   3.517   4.165
   28SBC   O00119477   9.039   3.574   4.355
   28SBC   C01S19478   9.187   3.512   4.734
   28SBC   C00N19479   9.459   3.418   4.960
   28SBC   C00M19480   9.564   3.329   4.959
   28SBC   C00J19481   9.566   3.219   4.875
   28SBC   C00I19482   9.672   3.137   4.852
   28SBC   C00H19483   9.672   3.048   4.743
   28SBC   C00G19484   9.567   3.050   4.656
   28SBC   C00F19485   9.571   3.000   4.526
   28SBC   C01X19486   9.785   2.977   4.713
   28SBC   C01W19487   9.891   2.986   4.796
   28SBC   C01V19488   9.891   3.074   4.902
   28SBC   C02019489  10.008   3.106   4.974
   28SBC   C01Z19490  10.007   2.918   4.763
   28SBC   C02Y19491  10.116   2.955   4.838
   28SBC   C03919492  10.230   2.887   4.806
   28SBC   C02W19493  10.025   2.850   4.638
   28SBC   C01Y19494   9.793   2.913   4.590
   28SBC   C00U19495   9.782   3.151   4.929
   28SBC   C00S19496   9.791   3.257   5.019
   28SBC   C00T19497   9.905   3.287   5.089
   28SBC   C00R19498   9.682   3.339   5.037
   28SBC   C00Q19499   9.692   3.447   5.124
   28SBC   C00V19500   9.811   3.479   5.192
   28SBC   C02419501   9.822   3.597   5.259
   28SBC   C00X19502   9.715   3.678   5.275
   28SBC   C00P19503   9.584   3.536   5.128
   28SBC   C00O19504   9.471   3.526   5.044
   28SBC   C00K19505   9.450   3.202   4.799
   28SBC   N00019506   9.217   3.418   4.631
   28SBC   C00L19507   9.454   3.130   4.680
   28SBC   H00419508   8.981   3.181   4.098
   28SBC   C02Q19509   9.278   3.065   4.235
   28SBC   C00E19510   9.471   3.034   4.428
   28SBC   C03019511   9.613   2.829   4.146
   28SBC   O00319512   9.725   2.758   4.118
   28SBC   C02S19513   9.683   2.925   4.500
   28SBC   C03819514   9.823   2.756   4.206
   28SBC   C03L19515   9.942   2.694   4.175
   28SBC   H00819516   9.953   2.646   4.079
   28SBC   C02V19517   9.914   2.849   4.555
   28SBC   C03K19518  10.054   2.690   4.259
   28SBC   C0BK19519  10.171   2.625   4.219
   28SBC   H00T19520  10.152   2.577   4.124
   28SBC   C03H19521  10.150   2.805   4.594
   28SBC   C0BL19522  10.293   2.627   4.282
   28SBC   C0GU19523  10.405   2.569   4.223
   28SBC   H01O19524  10.396   2.531   4.122
   28SBC   C0GT19525  10.525   2.545   4.297
   28SBC   H01P19526  10.608   2.494   4.250
   28SBC   C0GS19527  10.529   2.617   4.418
   28SBC   C0GV19528  10.646   2.635   4.500
   28SBC   C0GW19529  10.777   2.590   4.470
   28SBC   H01Q19530  10.790   2.535   4.378
   28SBC   C0GX19531  10.866   2.613   4.570
   28SBC   H01R19532  10.964   2.568   4.564
   28SBC   O00L19533  10.840   2.687   4.687
   28SBC   C0GQ19534  10.612   2.713   4.612
   28SBC   C03A19535  10.257   2.820   4.687
   28SBC   C05L19536  10.713   2.738   4.708
   28SBC   C04W19537  10.974   3.083   5.111
   28SBC   C05I19538  11.096   3.128   5.160
   28SBC   C05O19539  11.213   3.054   5.140
   28SBC   C05219540  11.104   3.253   5.233
   28SBC   C04V19541  10.856   3.157   5.151
   28SBC   C04U19542  10.866   3.277   5.228
   28SBC   N00919543  11.207   2.932   5.067
   28SBC   C0GP19544  11.334   3.109   5.174
   28SBC   C05W19545  11.343   3.224   5.250
   28SBC   C07D19546  11.607   3.429   5.404
   28SBC   C06J19547  11.383   3.590   5.430
   28SBC   C05P19548  11.231   3.301   5.279
   28SBC   C05R19549  11.145   3.618   5.428
   28SBC   C04Z19550  10.988   3.322   5.270
   28SBC   C04C19551  10.901   3.632   5.451
   28SBC   C04G19552  10.660   3.650   5.449
   28SBC   C04J19553  10.410   3.563   5.361
   28SBC   C04T19554  10.753   3.336   5.272
   28SBC   N00319555  10.727   3.108   5.113
   28SBC   C04P19556  10.595   2.964   4.974
   28SBC   C03D19557  10.346   2.905   4.881
   28SBC   C02119558  10.119   3.038   4.947
   28SBC   C03F19559  10.376   3.207   5.146
   28SBC   C02219560  10.016   3.211   5.065
   28SBC   C02A19561  10.276   3.391   5.255
   28SBC   C02319562   9.918   3.396   5.173
   28SBC   C02519563   9.942   3.641   5.304
   28SBC   C02D19564   9.954   3.766   5.368
   28SBC   C02E19565   9.843   3.852   5.384
   28SBC   C02N19566   9.847   3.976   5.444
   28SBC   C04N19567  10.285   3.513   5.325
   28SBC   C02P19568  10.074   3.808   5.419
   28SBC   C04I19569  10.419   3.680   5.432
   28SBC   C04419570  10.445   3.936   5.547
   28SBC   C04319571  10.084   3.936   5.481
   28SBC   C05N19572   9.974   4.022   5.485
   28SBC   C09U19573  10.032   4.415   5.606
   28SBC   C09V19574  10.059   4.552   5.627
   28SBC   C09X19575   9.961   4.649   5.644
   28SBC   C09Y19576   9.976   4.785   5.664
   28SBC   C0A119577  10.103   4.831   5.674
   28SBC   C0A219578  10.210   4.739   5.654
   28SBC   C0A419579  10.338   4.789   5.654
   28SBC   C07119580  10.445   4.700   5.657
   28SBC   C0A519581  10.569   4.752   5.658
   28SBC   C0A919582  10.588   4.888   5.658
   28SBC   C0A819583  10.480   4.972   5.667
   28SBC   C0AP19584  10.504   5.109   5.679
   28SBC   C0BY19585  10.396   5.188   5.697
   28SBC   C0BX19586  10.268   5.150   5.704
   28SBC   C0C219587  10.164   5.242   5.726
   28SBC   C0C319588  10.035   5.196   5.711
   28SBC   C0CT19589  10.015   5.059   5.697
   28SBC   C0C119590  10.190   5.376   5.753
   28SBC   C0C019591  10.325   5.420   5.722
   28SBC   C0A719592  10.248   5.014   5.685
   28SBC   C0BZ19593  10.419   5.323   5.703
   28SBC   C0BO19594  10.543   5.381   5.696
   28SBC   C0BN19595  10.652   5.299   5.685
   28SBC   C0BM19596  10.777   5.361   5.684
   28SBC   C0B919597  10.886   5.278   5.659
   28SBC   C0B819598  10.867   5.139   5.655
   28SBC   C0AD19599  10.738   5.081   5.660
   28SBC   C0AF19600  10.975   5.057   5.639
   28SBC   C0AG19601  11.105   5.105   5.616
   28SBC   C0B719602  11.115   5.248   5.617
   28SBC   C0AE19603  10.948   4.924   5.636
   28SBC   C0AB19604  10.825   4.861   5.649
   28SBC   C0AA19605  10.804   4.725   5.643
   28SBC   C0AJ19606  11.056   4.840   5.607
   28SBC   C0AK19607  11.036   4.708   5.596
   28SBC   C06W19608  11.154   4.659   5.557
   28SBC   C0AI19609  11.181   4.879   5.571
   28SBC   C0BP19610  10.538   5.520   5.717
   28SBC   C0BQ19611  10.675   5.588   5.713
   28SBC   C0BW19612  10.632   5.163   5.678
   28SBC   C0AC19613  10.716   4.943   5.657
   28SBC   C0A619614  10.353   4.922   5.670
   28SBC   C0A319615  10.124   4.966   5.691
   28SBC   C09Z19616   9.871   4.874   5.672
   28SBC   C09W19617  10.187   4.600   5.628
   28SBC   C07219618  10.298   4.514   5.625
   28SBC   C09H19619   9.831   4.595   5.652
   28SBC   C09G19620   9.731   4.684   5.664
   28SBC   C09P19621   9.623   4.609   5.626
   28SBC   C02O19622   9.620   4.264   5.478
   28SBC   C02M19623   9.736   4.060   5.437
   28SBC   C02F19624   9.724   3.803   5.335
   28SBC   C00W19625   9.599   3.640   5.211
   28SBC   C01R19626   9.365   3.621   5.035
   28SBC   C01N19627   9.393   3.915   5.242
   28SBC   C01L19628   9.254   4.107   5.226
   28SBC   C01H19629   8.968   4.167   5.030
   28SBC   C01K19630   9.152   3.838   4.996
   28SBC   C01E19631   8.985   3.817   4.779
   28SBC   C01G19632   8.866   4.149   4.921
   28SBC   C01D19633   8.899   3.807   4.669
   28SBC   C01A19634   8.723   3.774   4.460
   28SBC   H00119635   8.658   3.774   4.373
   28SBC   C01F19636   8.685   4.103   4.713
   28SBC   C03P19637   8.488   4.288   4.645
   28SBC   C03T19638   8.572   4.441   4.803
   28SBC   C08I19639   8.601   4.694   4.917
   28SBC   C08J19640   8.644   4.815   4.964
   28SBC   C08L19641   8.790   4.959   5.090
   28SBC   C09319642   8.952   5.092   5.232
   28SBC   C08Z19643   9.037   4.857   5.351
   28SBC   C09T19644   9.337   5.212   5.491
   28SBC   C09S19645   9.282   4.870   5.539
   28SBC   C09Q19646   9.504   4.687   5.612
   28SBC   C09F19647   9.743   4.826   5.669
   28SBC   C09E19648   9.526   5.109   5.606
   28SBC   C0A019649   9.885   5.013   5.674
   28SBC   C0CU19650   9.928   5.288   5.708
   28SBC   C0CR19651   9.952   5.423   5.742
   28SBC   C0CZ19652   9.848   5.514   5.753
   28SBC   C0DA19653   9.479   5.235   5.548
   28SBC   C0D919654   9.519   5.592   5.471
   28SBC   H00V19655   9.501   5.579   5.366
   28SBC   C0CY19656   9.723   5.468   5.707
   28SBC   C0DF19657   9.555   5.721   5.531
   28SBC   C0DE19658   9.587   5.854   5.500
   28SBC   C0GI19659   9.560   5.934   5.389
   28SBC   H01K19660   9.496   5.898   5.309
   28SBC   C0GJ19661   9.603   6.068   5.390
   28SBC   H01J19662   9.576   6.133   5.308
   28SBC   O00I19663   9.683   6.116   5.496
   28SBC   C0GH19664   9.740   6.034   5.595
   28SBC   C0GG19665   9.848   6.083   5.670
   28SBC   O00G19666   9.868   6.218   5.658
   28SBC   C0G819667   9.981   6.273   5.706
   28SBC   C0G919668   9.983   6.415   5.713
   28SBC   H01G19669   9.901   6.474   5.675
   28SBC   C0GA19670  10.086   6.479   5.781
   28SBC   H01H19671  10.067   6.583   5.806
   28SBC   C0GB19672  10.207   6.417   5.815
   28SBC   C0EP19673  10.209   6.274   5.788
   28SBC   C0E819674  10.338   6.209   5.789
   28SBC   C0CK19675  10.381   6.075   5.771
   28SBC   C0CL19676  10.311   5.986   5.851
   28SBC   C0E919677  10.163   5.978   5.842
   28SBC   C0GE19678  10.068   6.062   5.776
   28SBC   C0E719679  10.452   6.279   5.830
   28SBC   C0CJ19680  10.566   6.194   5.828
   28SBC   C0E619681  10.691   6.255   5.865
   28SBC   H00Y19682  10.782   6.196   5.868
   28SBC   C0EO19683  10.681   6.384   5.921
   28SBC   H01119684  10.767   6.431   5.966
   28SBC   C0G619685  10.567   6.469   5.910
   28SBC   C0G519686  10.555   6.606   5.949
   28SBC   H01F19687  10.640   6.658   5.990
   28SBC   C0GD19688  10.437   6.665   5.950
   28SBC   H01I19689  10.429   6.768   5.982
   28SBC   O00H19690  10.317   6.612   5.910
   28SBC   C0EQ19691  10.446   6.413   5.875
   28SBC   C0GC19692  10.324   6.482   5.867
   28SBC   C0G719693  10.094   6.200   5.751
   28SBC   C0DD19694   9.674   5.904   5.605
   28SBC   C0GF19695   9.938   6.008   5.750
   28SBC   C0CO19696  10.133   5.857   5.896
   28SBC   C0D019697   9.881   5.648   5.797
   28SBC   C0C419698  10.084   5.468   5.775
   28SBC   C0CN19699  10.247   5.784   5.940
   28SBC   C0CP19700  10.402   5.549   5.731
   28SBC   C0CM19701  10.364   5.862   5.907
   28SBC   C0CI19702  10.519   6.068   5.775
   28SBC   C0CD19703  10.948   5.961   5.625
   28SBC   C0BR19704  10.681   5.725   5.724
   28SBC   C0CS19705  10.783   5.503   5.690
   28SBC   C0B619706  11.007   5.334   5.642
   28SBC   C0CG19707  11.051   5.746   5.644
   28SBC   C0CF19708  11.066   5.880   5.627
   28SBC   C0E519709  11.092   6.152   5.578
   28SBC   C0DT19710  11.341   6.257   5.562
   28SBC   C0DL19711  11.426   5.904   5.571
   28SBC   C0DM19712  11.539   5.825   5.544
   28SBC   C0DY19713  11.682   6.015   5.531
   28SBC   C0DU19714  11.466   6.308   5.573
   28SBC   C0F019715  11.611   6.500   5.544
   28SBC   C0F419716  11.838   6.610   5.435
   28SBC   C0FG19717  11.940   6.273   5.519
   28SBC   O00B19718  12.051   6.557   5.326
   28SBC   C0FN19719  12.044   6.214   5.472
   28SBC   C0DZ19720  11.808   6.074   5.514
   28SBC   O00C19721  11.996   5.770   5.411
   28SBC   C0FR19722  11.993   5.637   5.417
   28SBC   O00D19723  12.102   5.580   5.389
   28SBC   C0E019724  11.666   5.878   5.521
   28SBC   C0E319725  11.866   5.574   5.447
   28SBC   C0AW19726  11.844   5.436   5.443
   28SBC   C0AV19727  11.948   5.344   5.405
   28SBC   H00Q19728  12.049   5.364   5.374
   28SBC   C0AU19729  11.920   5.205   5.404
   28SBC   H00R19730  11.988   5.128   5.373
   28SBC   C0AT19731  11.790   5.161   5.444
   28SBC   C0AS19732  11.726   5.043   5.489
   28SBC   C0AR19733  11.794   4.949   5.583
   28SBC   C0BE19734  11.694   5.259   5.467
   28SBC   C0DN19735  11.522   5.690   5.551
   28SBC   C0AX19736  11.719   5.397   5.472
   28SBC   C0BB19737  11.376   5.496   5.568
   28SBC   C0BD19738  11.569   5.203   5.496
   28SBC   C0B219739  11.239   5.301   5.598
   28SBC   C0AH19740  11.213   5.017   5.588
   28SBC   C0BF19741  11.583   5.062   5.503
   28SBC   C0AL19742  11.252   4.757   5.530
   28SBC   C07U19743  11.602   4.773   5.555
   28SBC   C0AQ19744  11.731   4.820   5.588
   28SBC   C0BG19745  11.929   4.933   5.642
   28SBC   C0FY19746  12.110   4.655   5.565
   28SBC   C0BJ19747  12.065   4.986   5.605
   28SBC   H00S19748  12.072   5.081   5.556
   28SBC   C0FZ19749  12.207   4.710   5.481
   28SBC   C07S19750  12.040   4.539   5.520
   28SBC   C0G119751  12.279   4.437   5.250
   28SBC   C07K19752  12.051   4.127   5.252
   28SBC   C07H19753  11.917   4.298   5.436
   28SBC   C06B19754  11.793   3.998   5.549
   28SBC   C06N19755  11.561   4.037   5.538
   28SBC   C06619756  11.694   4.401   5.516
   28SBC   C06219757  11.387   4.460   5.510
   28SBC   C05Y19758  11.306   4.082   5.543
   28SBC   C06119759  11.249   4.446   5.480
   28SBC   C05H19760  11.011   4.217   5.633
   28SBC   C06V19761  11.145   4.525   5.541
   28SBC   C06Y19762  10.913   4.643   5.625
   28SBC   C05C19763  10.750   4.309   5.640
   28SBC   C06Z19764  10.681   4.668   5.652
   28SBC   C07019765  10.424   4.564   5.644
   28SBC   C05B19766  10.623   4.258   5.627
   28SBC   C05719767  10.355   4.158   5.589
   28SBC   C05919768  10.275   4.375   5.612
   29SBC   C05819769  11.045   5.647  12.729
   29SBC   C05A19770  10.922   5.588  12.688
   29SBC   C06Q19771  10.859   5.499  12.771
   29SBC   C06R19772  10.732   5.444  12.735
   29SBC   C06S19773  10.664   5.482  12.618
   29SBC   C06T19774  10.534   5.427  12.588
   29SBC   C06U19775  10.449   5.435  12.467
   29SBC   C06X19776  10.461   5.504  12.345
   29SBC   C06019777  10.353   5.473  12.250
   29SBC   C05Z19778  10.269   5.559  12.168
   29SBC   C06819779  10.138   5.483  12.173
   29SBC   C06719780  10.031   5.481  12.079
   29SBC   C06919781  10.041   5.560  11.959
   29SBC   C06A19782   9.967   5.539  11.828
   29SBC   C07319783   9.921   5.418  11.774
   29SBC   C07P19784   9.965   5.384  11.644
   29SBC   C07O19785  10.065   5.450  11.566
   29SBC   H00D19786  10.129   5.529  11.602
   29SBC   C07N19787  10.091   5.418  11.435
   29SBC   H00E19788  10.156   5.467  11.365
   29SBC   C07M19789  10.024   5.306  11.387
   29SBC   H00F19790  10.052   5.268  11.290
   29SBC   C07L19791   9.937   5.225  11.459
   29SBC   C07Q19792   9.880   5.098  11.424
   29SBC   H00G19793   9.915   5.057  11.330
   29SBC   O00F19794   9.782   5.027  11.494
   29SBC   C07J19795   9.747   5.077  11.615
   29SBC   C07I19796   9.805   5.201  11.665
   29SBC   N00419797   9.764   5.242  11.794
   29SBC   C07R19798   9.653   5.182  11.860
   29SBC   C07T19799   9.608   5.059  11.807
   29SBC   C0FX19800   9.523   4.984  11.884
   29SBC   C0FW19801   9.490   4.850  11.857
   29SBC   C0G019802   9.553   4.791  11.739
   29SBC   C0G219803   9.527   4.656  11.710
   29SBC   H01E19804   9.583   4.618  11.626
   29SBC   C0G319805   9.454   4.572  11.795
   29SBC   H01C19806   9.455   4.465  11.778
   29SBC   C0G419807   9.405   4.628  11.916
   29SBC   H01D19808   9.357   4.555  11.980
   29SBC   O00E19809   9.640   4.860  11.657
   29SBC   C0FV19810   9.413   4.772  11.946
   29SBC   C0FU19811   9.364   4.837  12.062
   29SBC   H01B19812   9.315   4.788  12.145
   29SBC   C0FT19813   9.382   4.977  12.081
   29SBC   C0FS19814   9.373   5.065  12.194
   29SBC   C0BI19815   9.420   5.195  12.156
   29SBC   C0BH19816   9.487   5.250  12.274
   29SBC   C07F19817   9.625   5.287  12.286
   29SBC   C07E19818   9.713   5.338  12.188
   29SBC   C07G19819   9.694   5.324  12.051
   29SBC   C07419820   9.813   5.366  11.994
   29SBC   C06519821   9.847   5.365  12.212
   29SBC   C06419822   9.891   5.330  12.343
   29SBC   C06319823  10.023   5.343  12.381
   29SBC   C07519824  10.019   5.280  12.515
   29SBC   C0AM19825   9.888   5.245  12.560
   29SBC   C0AN19826   9.843   5.188  12.690
   29SBC   C0AO19827   9.915   5.144  12.811
   29SBC   C0B119828   9.847   5.090  12.926
   29SBC   C0B019829   9.715   5.071  12.929
   29SBC   C0AZ19830   9.643   5.006  13.027
   29SBC   C0AY19831   9.504   4.991  13.012
   29SBC   N00719832   9.433   4.928  13.111
   29SBC   C0E219833   9.293   4.896  13.090
   29SBC   C0E119834   9.235   4.812  13.179
   29SBC   C0E419835   9.107   4.769  13.144
   29SBC   C0FF19836   9.030   4.683  13.229
   29SBC   C0FJ19837   8.918   4.600  13.200
   29SBC   C0FK19838   8.912   4.535  13.073
   29SBC   H01619839   8.947   4.577  12.981
   29SBC   C0FL19840   8.855   4.399  13.102
   29SBC   H01719841   8.844   4.311  13.040
   29SBC   C0FM19842   8.826   4.390  13.241
   29SBC   C0FH19843   8.819   4.300  13.354
   29SBC   C0FI19844   8.880   4.382  13.456
   29SBC   C0F319845   8.962   4.323  13.559
   29SBC   C0F219846   9.046   4.409  13.618
   29SBC   C0DW19847   9.089   4.522  13.562
   29SBC   C0FE19848   9.024   4.572  13.451
   29SBC   C0DV19849   9.222   4.569  13.593
   29SBC   C0DX19850   9.282   4.662  13.512
   29SBC   C0DK19851   9.420   4.687  13.528
   29SBC   C0DJ19852   9.498   4.630  13.638
   29SBC   C0DI19853   9.630   4.650  13.652
   29SBC   C0DH19854   9.697   4.737  13.563
   29SBC   C0DG19855   9.628   4.788  13.454
   29SBC   C0BV19856   9.702   4.853  13.353
   29SBC   C0BC19857   9.635   4.903  13.242
   29SBC   C0BA19858   9.837   4.879  13.369
   29SBC   C0B419859   9.910   4.938  13.264
   29SBC   C0B319860   9.842   4.987  13.148
   29SBC   C0B519861  10.047   4.949  13.277
   29SBC   C0BU19862  10.108   4.919  13.393
   29SBC   C0BT19863  10.041   4.856  13.495
   29SBC   C0BS19864  10.100   4.832  13.625
   29SBC   C0CC19865  10.031   4.758  13.715
   29SBC   C0CB19866  10.091   4.716  13.833
   29SBC   C0CH19867  10.030   4.604  13.903
   29SBC   C0DO19868   9.900   4.563  13.873
   29SBC   C0DP19869   9.837   4.470  13.959
   29SBC   C0EA19870   9.907   4.405  14.066
   29SBC   H01219871  10.013   4.406  14.084
   29SBC   O00919872   9.842   4.329  14.156
   29SBC   C0EH19873   9.731   4.271  14.113
   29SBC   C0EG19874   9.693   4.150  14.169
   29SBC   C0EJ19875   9.757   4.050  14.251
   29SBC   H01019876   9.852   4.063  14.301
   29SBC   C0EK19877   9.682   3.919  14.242
   29SBC   H00Z19878   9.711   3.836  14.305
   29SBC   C0EL19879   9.579   3.946  14.155
   29SBC   C0EM19880   9.474   3.870  14.103
   29SBC   C0EW19881   9.448   3.735  14.123
   29SBC   H01319882   9.507   3.680  14.195
   29SBC   C0EX19883   9.346   3.661  14.056
   29SBC   H01419884   9.328   3.556  14.076
   29SBC   C0F119885   9.253   3.734  13.970
   29SBC   C0EU19886   9.269   3.869  13.953
   29SBC   C0ET19887   9.204   3.956  13.862
   29SBC   C0ES19888   9.281   4.078  13.869
   29SBC   C0EE19889   9.385   4.063  13.964
   29SBC   C0ED19890   9.492   4.139  14.015
   29SBC   C0EC19891   9.529   4.267  13.966
   29SBC   C0EB19892   9.455   4.354  13.880
   29SBC   C0EN19893   9.316   4.320  13.844
   29SBC   C0ER19894   9.246   4.413  13.767
   29SBC   C0DS19895   9.508   4.467  13.816
   29SBC   C0DR19896   9.641   4.489  13.825
   29SBC   C0EY19897   9.233   4.205  13.840
   29SBC   C0EZ19898   9.122   4.212  13.749
   29SBC   C0F519899   9.029   4.125  13.672
   29SBC   C0F619900   9.019   3.980  13.692
   29SBC   N00819901   8.946   3.903  13.593
   29SBC   C0F719902   8.884   3.967  13.479
   29SBC   C0FQ19903   8.832   3.883  13.383
   29SBC   H01819904   8.794   3.933  13.294
   29SBC   C0FP19905   8.818   3.745  13.395
   29SBC   H01919906   8.764   3.691  13.318
   29SBC   C0FO19907   8.852   3.692  13.518
   29SBC   H01A19908   8.833   3.587  13.531
   29SBC   C0F819909   8.886   4.109  13.475
   29SBC   C0F919910   8.920   3.766  13.614
   29SBC   C0FA19911   8.975   3.692  13.724
   29SBC   H01519912   8.944   3.592  13.753
   29SBC   C0FB19913   9.073   3.756  13.806
   29SBC   C0FD19914   9.089   3.901  13.790
   29SBC   C0FC19915   9.145   3.675  13.897
   29SBC   O00A19916   9.122   3.555  13.908
   29SBC   C0EV19917   9.383   3.932  14.010
   29SBC   C0EF19918   9.585   4.085  14.112
   29SBC   C0EI19919   9.652   4.322  14.005
   29SBC   C0DQ19920   9.708   4.429  13.929
   29SBC   C0CE19921   9.831   4.629  13.769
   29SBC   H00U19922  10.095   4.551  13.971
   29SBC   C0CA19923  10.198   4.794  13.888
   29SBC   C0C919924  10.283   4.867  13.790
   29SBC   C0C819925  10.397   4.937  13.833
   29SBC   C0C719926  10.525   4.966  13.766
   29SBC   C0C619927  10.618   5.030  13.850
   29SBC   C0C519928  10.761   5.041  13.857
   29SBC   C0CQ19929  10.823   5.042  13.983
   29SBC   C0D119930  10.747   5.011  14.094
   29SBC   C0D819931  10.819   4.941  14.184
   29SBC   C0D719932  10.947   4.936  14.132
   29SBC   C0D619933  11.061   4.918  14.215
   29SBC   C0D519934  11.191   4.972  14.169
   29SBC   C0D419935  11.251   5.003  14.046
   29SBC   C0D319936  11.334   5.119  14.072
   29SBC   C0CX19937  11.349   5.191  13.945
   29SBC   C0CW19938  11.253   5.142  13.849
   29SBC   C0CV19939  11.210   5.170  13.710
   29SBC   C0D219940  11.280   5.249  13.618
   29SBC   C09D19941  11.411   5.295  13.640
   29SBC   C09C19942  11.483   5.361  13.537
   29SBC   C09B19943  11.605   5.426  13.548
   29SBC   C09A19944  11.671   5.409  13.673
   29SBC   C09919945  11.619   5.327  13.766
   29SBC   C09819946  11.679   5.365  13.893
   29SBC   C08Y19947  11.755   5.488  13.872
   29SBC   C08X19948  11.815   5.585  13.963
   29SBC   C08W19949  11.787   5.571  14.102
   29SBC   C08U19950  11.704   5.471  14.167
   29SBC   C08V19951  11.604   5.373  14.126
   29SBC   C0DC19952  11.593   5.282  14.238
   29SBC   H00W19953  11.560   5.182  14.214
   29SBC   C0DB19954  11.647   5.335  14.360
   29SBC   H00X19955  11.642   5.289  14.457
   29SBC   C08T19956  11.713   5.451  14.313
   29SBC   C08S19957  11.786   5.536  14.387
   29SBC   H00N19958  11.795   5.510  14.492
   29SBC   C08R19959  11.853   5.644  14.340
   29SBC   C08Q19960  11.919   5.739  14.418
   29SBC   H00O19961  11.923   5.724  14.525
   29SBC   C08P19962  11.985   5.852  14.369
   29SBC   C08O19963  12.050   5.952  14.451
   29SBC   H00P19964  12.056   5.936  14.557
   29SBC   C08N19965  12.100   6.071  14.389
   29SBC   C08M19966  12.156   6.179  14.473
   29SBC   O00819967  12.188   6.166  14.594
   29SBC   O00719968  12.185   6.300  14.415
   29SBC   C08H19969  12.190   6.310  14.277
   29SBC   C08G19970  12.236   6.433  14.219
   29SBC   C03V19971  12.289   6.542  14.284
   29SBC   H00919972  12.301   6.535  14.391
   29SBC   C03U19973  12.333   6.662  14.215
   29SBC   C03W19974  12.390   6.778  14.273
   29SBC   H00A19975  12.382   6.792  14.380
   29SBC   C03X19976  12.440   6.879  14.197
   29SBC   H00B19977  12.477   6.966  14.250
   29SBC   O00519978  12.429   6.885  14.060
   29SBC   C03O19979  12.359   6.776  14.004
   29SBC   C03N19980  12.339   6.779  13.864
   29SBC   O00019981  12.378   6.890  13.803
   29SBC   C01919982  12.345   6.903  13.675
   29SBC   C01819983  12.295   6.799  13.597
   29SBC   C01719984  12.266   6.678  13.661
   29SBC   C01619985  12.211   6.572  13.587
   29SBC   C01519986  12.193   6.598  13.451
   29SBC   C01419987  12.148   6.490  13.375
   29SBC   C01319988  12.116   6.366  13.427
   29SBC   C01219989  12.047   6.298  13.316
   29SBC   C01119990  12.052   6.394  13.210
   29SBC   C01019991  11.985   6.373  13.094
   29SBC   C00Z19992  11.962   6.456  12.988
   29SBC   C00Y19993  11.892   6.377  12.901
   29SBC   C01O19994  11.865   6.256  12.950
   29SBC   C01P19995  11.762   6.179  12.907
   29SBC   C02L19996  11.734   6.073  12.987
   29SBC   C02K19997  11.814   6.059  13.108
   29SBC   C01M19998  11.906   6.154  13.166
   29SBC   C02J19999  11.776   5.945  13.188
   29SBC   C02I20000  11.837   5.899  13.302
   29SBC   C02H20001  11.934   5.947  13.387
   29SBC   C01Q20002  11.991   6.078  13.390
   29SBC   C02G20003  12.059   6.093  13.513
   29SBC   C08920004  12.052   5.967  13.577
   29SBC   C08820005  12.053   5.982  13.714
   29SBC   C08720006  12.096   6.121  13.726
   29SBC   C08620007  12.112   6.191  13.850
   29SBC   C03S20008  12.164   6.323  13.869
   29SBC   N00620009  12.173   6.338  14.005
   29SBC   C08F20010  12.135   6.228  14.073
   29SBC   C01J20011  12.203   6.440  13.792
   29SBC   C03R20012  12.241   6.554  13.865
   29SBC   C03Q20013  12.269   6.554  14.005
   29SBC   C08E20014  12.095   6.134  13.983
   29SBC   C08D20015  12.043   6.012  14.030
   29SBC   C08K20016  12.040   5.987  14.172
   29SBC   C08C20017  12.003   5.900  13.956
   29SBC   C09120018  11.944   5.787  14.016
   29SBC   C09220019  11.916   5.778  14.152
   29SBC   C08B20020  12.007   5.883  13.818
   29SBC   C09020021  11.948   5.748  13.797
   29SBC   C09420022  11.906   5.700  13.665
   29SBC   C09520023  11.819   5.592  13.642
   29SBC   C09R20024  11.764   5.603  13.518
   29SBC   C09720025  11.814   5.710  13.451
   29SBC   C09620026  11.909   5.765  13.540
   29SBC   C01I20027  12.101   6.199  13.602
   29SBC   C08A20028  11.965   5.884  13.506
   29SBC   C09L20029  11.780   5.773  13.330
   29SBC   C09K20030  11.677   5.745  13.238
   29SBC   C09J20031  11.586   5.642  13.241
   29SBC   C09I20032  11.480   5.621  13.157
   29SBC   C09O20033  11.417   5.683  13.038
   29SBC   C09N20034  11.476   5.800  12.974
   29SBC   C09M20035  11.590   5.879  13.022
   29SBC   C06O20036  11.406   5.841  12.857
   29SBC   C05M20037  11.289   5.773  12.810
   29SBC   C06P20038  11.237   5.661  12.878
   29SBC   C04220039  11.211   5.826  12.706
   29SBC   C04120040  11.249   5.942  12.640
   29SBC   C04020041  11.167   6.000  12.540
   29SBC   C03Z20042  11.199   6.119  12.478
   29SBC   C03Y20043  11.315   6.183  12.518
   29SBC   C02720044  11.342   6.306  12.463
   29SBC   C02620045  11.459   6.375  12.501
   29SBC   C02820046  11.484   6.502  12.453
   29SBC   C02920047  11.401   6.557  12.355
   29SBC   C02B20048  11.431   6.685  12.309
   29SBC   C02C20049  11.342   6.746  12.225
   29SBC   C02X20050  11.365   6.873  12.189
   29SBC   C03E20051  11.280   6.923  12.099
   29SBC   C03G20052  11.172   6.865  12.036
   29SBC   C04Q20053  11.149   6.731  12.078
   29SBC   C04R20054  11.040   6.658  12.031
   29SBC   C04S20055  11.017   6.528  12.078
   29SBC   C04L20056  11.099   6.474  12.172
   29SBC   C04M20057  11.206   6.546  12.223
   29SBC   C04K20058  11.069   6.353  12.228
   29SBC   C04F20059  10.955   6.284  12.184
   29SBC   C04E20060  10.868   6.339  12.089
   29SBC   C04D20061  10.757   6.270  12.049
   29SBC   C05020062  10.678   6.335  11.957
   29SBC   C05120063  10.555   6.269  11.922
   29SBC   C05Q20064  10.471   6.329  11.832
   29SBC   C05V20065  10.357   6.260  11.793
   29SBC   N00520066  10.273   6.321  11.693
   29SBC   C07V20067  10.305   6.447  11.649
   29SBC   C08220068  10.227   6.503  11.543
   29SBC   C08120069  10.128   6.428  11.482
   29SBC   C07C20070  10.106   6.298  11.525
   29SBC   C07B20071  10.028   6.209  11.450
   29SBC   C08020072   9.958   6.258  11.337
   29SBC   C07Z20073   9.889   6.166  11.265
   29SBC   H00L20074   9.839   6.202  11.176
   29SBC   C07920075   9.887   6.024  11.288
   29SBC   C07820076   9.930   5.988  11.412
   29SBC   C07720077   9.910   5.857  11.463
   29SBC   C07X20078   9.866   5.760  11.372
   29SBC   H00I20079   9.851   5.656  11.396
   29SBC   C07Y20080   9.822   5.794  11.242
   29SBC   H00H20081   9.787   5.722  11.170
   29SBC   C07620082   9.942   5.820  11.592
   29SBC   C06C20083   9.901   5.694  11.642
   29SBC   H00C20084   9.829   5.628  11.597
   29SBC   C06F20085  10.019   5.911  11.663
   29SBC   C06E20086  10.079   5.874  11.783
   29SBC   C06G20087  10.178   5.939  11.852
   29SBC   C06H20088  10.211   6.066  11.798
   29SBC   C06I20089  10.140   6.117  11.689
   29SBC   C06L20090  10.258   5.874  11.949
   29SBC   C06M20091  10.224   5.745  12.005
   29SBC   C06K20092  10.373   5.939  11.991
   29SBC   C05S20093  10.407   6.072  11.938
   29SBC   C05U20094  10.467   5.876  12.070
   29SBC   C05X20095  10.437   5.746  12.130
   29SBC   C05G20096  10.536   5.706  12.231
   29SBC   C05F20097  10.641   5.791  12.264
   29SBC   C05E20098  10.724   5.733  12.362
   29SBC   C04820099  10.837   5.801  12.404
   29SBC   C05620100  10.906   5.748  12.509
   29SBC   C04520101  11.018   5.818  12.563
   29SBC   C04720102  10.867   5.919  12.348
   29SBC   C04920103  10.788   5.973  12.240
   29SBC   C04B20104  10.816   6.094  12.187
   29SBC   C04620105  10.975   5.989  12.398
   29SBC   C04H20106  11.007   6.109  12.337
   29SBC   C05D20107  10.664   5.627  12.422
   29SBC   C04A20108  10.675   5.904  12.198
   29SBC   C05T20109  10.584   5.948  12.103
   29SBC   C05520110  10.613   6.076  12.057
   29SBC   C06D20111  10.056   5.741  11.827
   29SBC   C07W20112  10.053   6.039  11.618
   29SBC   C08520113   9.829   5.927  11.206
   29SBC   H00M20114   9.776   5.958  11.117
   29SBC   C08420115   9.967   6.390  11.302
   29SBC   H00J20116   9.913   6.424  11.214
   29SBC   C07A20117  10.001   6.077  11.494
   29SBC   C08320118  10.050   6.472  11.374
   29SBC   H00K20119  10.063   6.574  11.340
   29SBC   O00K20120  10.245   6.632  11.506
   29SBC   C0GO20121  10.361   6.694  11.536
   29SBC   C0GN20122  10.376   6.829  11.495
   29SBC   H01L20123  10.299   6.885  11.444
   29SBC   C0GM20124  10.498   6.892  11.523
   29SBC   C0GL20125  10.509   7.017  11.472
   29SBC   H01M20126  10.441   7.056  11.397
   29SBC   O00J20127  10.625   7.085  11.499
   29SBC   C0GK20128  10.716   7.026  11.586
   29SBC   H01N20129  10.802   7.090  11.604
   29SBC   C05K20130  10.706   6.901  11.636
   29SBC   C05J20131  10.799   6.844  11.727
   29SBC   C04Y20132  10.921   6.902  11.774
   29SBC   C04X20133  11.002   6.844  11.875
   29SBC   O00620134  10.957   7.029  11.730
   29SBC   C05320135  11.051   7.116  11.791
   29SBC   C04O20136  11.129   7.062  11.895
   29SBC   C03C20137  11.227   7.128  11.976
   29SBC   C03B20138  11.279   7.264  11.982
   29SBC   C05420139  11.241   7.372  11.903
   29SBC   C0GR20140  11.282   7.507  11.932
   29SBC   C03M20141  11.384   7.575  12.027
   29SBC   C03I20142  11.466   7.506  12.128
   29SBC   C03J20143  11.544   7.589  12.218
   29SBC   N00220144  11.625   7.527  12.321
   29SBC   C02U20145  11.696   7.608  12.416
   29SBC   C02T20146  11.781   7.551  12.519
   29SBC   C02Z20147  11.858   7.625  12.606
   29SBC   N00120148  11.932   7.565  12.716
   29SBC   C02R20149  11.991   7.649  12.811
   29SBC   C03220150  11.987   7.792  12.798
   29SBC   C03120151  11.913   7.849  12.690
   29SBC   H00720152  11.907   7.957  12.682
   29SBC   C03320153  12.060   7.864  12.895
   29SBC   H00320154  12.053   7.971  12.886
   29SBC   O00420155  12.136   7.812  13.002
   29SBC   C03420156  12.134   7.674  13.009
   29SBC   C03520157  12.188   7.620  13.128
   29SBC   C03620158  12.172   7.484  13.158
   29SBC   H00520159  12.202   7.448  13.255
   29SBC   C03720160  12.108   7.397  13.063
   29SBC   H00620161  12.088   7.294  13.088
   29SBC   C00D20162  12.074   7.451  12.934
   29SBC   C00C20163  12.017   7.370  12.836
   29SBC   C00B20164  12.023   7.215  12.841
   29SBC   C00A20165  12.053   7.096  12.932
   29SBC   C00920166  12.002   6.988  12.863
   29SBC   C00820167  12.010   6.854  12.888
   29SBC   C00720168  12.073   6.811  12.996
   29SBC   C00620169  12.067   6.680  13.040
   29SBC   C00520170  12.126   6.646  13.167
   29SBC   C00420171  12.185   6.744  13.249
   29SBC   C00320172  12.199   6.870  13.199
   29SBC   C00220173  12.276   6.966  13.266
   29SBC   C01C20174  12.301   6.947  13.402
   29SBC   C01B20175  12.347   7.059  13.483
   29SBC   H00020176  12.361   7.155  13.437
   29SBC   C00120177  12.314   7.081  13.200
   29SBC   C00020178  12.254   7.113  13.076
   29SBC   C01U20179  12.331   7.218  13.015
   29SBC   H00220180  12.328   7.265  12.918
   29SBC   C01T20181  12.424   7.259  13.124
   29SBC   O00220182  12.490   7.361  13.136
   29SBC   O00120183  12.417   7.165  13.224
   29SBC   C01S20184  12.142   6.906  13.073
   29SBC   C00N20185  11.939   6.764  12.805
   29SBC   C00M20186  11.868   6.811  12.694
   29SBC   C00J20187  11.877   6.943  12.659
   29SBC   C00I20188  11.796   7.002  12.565
   29SBC   C00H20189  11.793   7.138  12.550
   29SBC   C00G20190  11.873   7.215  12.632
   29SBC   C00F20191  11.865   7.353  12.633
   29SBC   C01X20192  11.713   7.200  12.461
   29SBC   C01W20193  11.640   7.122  12.380
   29SBC   C01V20194  11.626   6.985  12.409
   29SBC   C02020195  11.546   6.898  12.335
   29SBC   C01Z20196  11.553   7.175  12.282
   29SBC   C02Y20197  11.465   7.090  12.219
   29SBC   C03920198  11.383   7.139  12.126
   29SBC   C02W20199  11.550   7.309  12.256
   29SBC   C01Y20200  11.712   7.335  12.441
   29SBC   C00U20201  11.703   6.925  12.499
   29SBC   C00S20202  11.695   6.793  12.531
   29SBC   C00T20203  11.605   6.711  12.470
   29SBC   C00R20204  11.776   6.737  12.624
   29SBC   C00Q20205  11.770   6.602  12.654
   29SBC   C00V20206  11.671   6.521  12.594
   29SBC   C02420207  11.640   6.394  12.649
   29SBC   C00X20208  11.719   6.347  12.746
   29SBC   C00P20209  11.849   6.553  12.759
   29SBC   C00O20210  11.928   6.635  12.841
   29SBC   C00K20211  11.945   7.023  12.744
   29SBC   N00020212  12.151   7.046  13.023
   29SBC   C00L20213  11.953   7.157  12.735
   29SBC   H00420214  12.230   7.688  13.200
   29SBC   C02Q20215  12.065   7.586  12.917
   29SBC   C00E20216  11.939   7.427  12.725
   29SBC   C03020217  11.851   7.766  12.595
   29SBC   O00320218  11.773   7.824  12.492
   29SBC   C02S20219  11.790   7.413  12.527
   29SBC   C03820220  11.697   7.746  12.400
   29SBC   C03L20221  11.618   7.806  12.296
   29SBC   H00820222  11.615   7.913  12.289
   29SBC   C02V20223  11.632   7.387  12.337
   29SBC   C03K20224  11.545   7.728  12.208
   29SBC   C0BK20225  11.467   7.783  12.105
   29SBC   H00T20226  11.458   7.891  12.099
   29SBC   C03H20227  11.473   7.365  12.151
   29SBC   C0BL20228  11.382   7.713  12.016
   29SBC   C0GU20229  11.301   7.781  11.920
   29SBC   H01O20230  11.310   7.888  11.910
   29SBC   C0GT20231  11.218   7.716  11.827
   29SBC   H01P20232  11.168   7.776  11.752
   29SBC   C0GS20233  11.199   7.583  11.843
   29SBC   C0GV20234  11.109   7.494  11.774
   29SBC   C0GW20235  11.005   7.529  11.682
   29SBC   H01Q20236  10.984   7.634  11.669
   29SBC   C0GX20237  10.926   7.424  11.635
   29SBC   H01R20238  10.845   7.452  11.568
   29SBC   O00L20239  10.961   7.291  11.657
   29SBC   C0GQ20240  11.134   7.361  11.804
   29SBC   C03A20241  11.380   7.268  12.081
   29SBC   C05L20242  11.057   7.254  11.753
   29SBC   C04W20243  10.767   6.718  11.784
   29SBC   C05I20244  10.650   6.649  11.750
   29SBC   C05O20245  10.559   6.703  11.665
   29SBC   C05220246  10.617   6.527  11.809
   29SBC   C04V20247  10.853   6.649  11.877
   29SBC   C04U20248  10.819   6.527  11.940
   29SBC   N00920249  10.588   6.831  11.607
   29SBC   C0GP20250  10.440   6.639  11.633
   29SBC   C05W20251  10.412   6.517  11.693
   29SBC   C07D20252  10.167   6.245  11.635
   29SBC   C06J20253  10.325   6.135  11.845
   29SBC   C05P20254  10.498   6.456  11.783
   29SBC   C05R20255  10.523   6.141  11.974
   29SBC   C04Z20256  10.706   6.465  11.902
   29SBC   C04C20257  10.730   6.143  12.096
   29SBC   C04G20258  10.926   6.161  12.236
   29SBC   C04J20259  11.146   6.295  12.327
   29SBC   C04T20260  10.902   6.464  12.036
   29SBC   N00320261  10.969   6.715  11.924
   29SBC   C04P20262  11.102   6.926  11.935
   29SBC   C03D20263  11.298   7.051  12.060
   29SBC   C02120264  11.459   6.953  12.243
   29SBC   C03F20265  11.234   6.673  12.171
   29SBC   C02220266  11.531   6.765  12.367
   29SBC   C02A20267  11.288   6.491  12.316
   29SBC   C02320268  11.594   6.577  12.498
   29SBC   C02520269  11.534   6.322  12.603
   29SBC   C02D20270  11.504   6.198  12.661
   29SBC   C02E20271  11.586   6.148  12.763
   29SBC   C02N20272  11.552   6.034  12.835
   29SBC   C04N20273  11.262   6.364  12.368
   29SBC   C02P20274  11.394   6.126  12.618
   29SBC   C04I20275  11.115   6.173  12.381
   29SBC   C04420276  11.054   5.934  12.499
   29SBC   C04320277  11.360   6.013  12.683
   29SBC   C05N20278  11.436   5.964  12.790
   29SBC   C09U20279  11.305   5.613  12.991
   29SBC   C09V20280  11.238   5.514  13.066
   29SBC   C09X20281  11.287   5.465  13.183
   29SBC   C09Y20282  11.226   5.377  13.272
   29SBC   C0A120283  11.107   5.330  13.238
   29SBC   C0A220284  11.055   5.364  13.115
   29SBC   C0A420285  10.925   5.321  13.084
   29SBC   C07120286  10.862   5.359  12.966
   29SBC   C0A520287  10.731   5.316  12.941
   29SBC   C0A920288  10.664   5.232  13.026
   29SBC   C0A820289  10.732   5.188  13.139
   29SBC   C0AP20290  10.662   5.111  13.236
   29SBC   C0BY20291  10.726   5.078  13.354
   29SBC   C0BX20292  10.848   5.127  13.395
   29SBC   C0C220293  10.892   5.112  13.524
   29SBC   C0C320294  11.021   5.155  13.558
   29SBC   C0CT20295  11.097   5.226  13.458
   29SBC   C0C120296  10.811   5.044  13.618
   29SBC   C0C020297  10.684   4.987  13.578
   29SBC   C0A720298  10.912   5.203  13.298
   29SBC   C0BZ20299  10.651   4.999  13.444
   29SBC   C0BO20300  10.517   4.968  13.419
   29SBC   C0BN20301  10.450   5.011  13.303
   29SBC   C0BM20302  10.314   4.990  13.297
   29SBC   C0B920303  10.252   5.024  13.182
   29SBC   C0B820304  10.326   5.091  13.082
   29SBC   C0AD20305  10.464   5.119  13.098
   29SBC   C0AF20306  10.259   5.131  12.964
   29SBC   C0AG20307  10.122   5.113  12.943
   29SBC   C0B720308  10.052   5.049  13.048
   29SBC   C0AE20309  10.339   5.199  12.879
   29SBC   C0AB20310  10.470   5.234  12.891
   29SBC   C0AA20311  10.541   5.307  12.798
   29SBC   C0AJ20312  10.277   5.229  12.762
   29SBC   C0AK20313  10.349   5.293  12.667
   29SBC   C06W20314  10.264   5.303  12.556
   29SBC   C0AI20315  10.145   5.210  12.725
   29SBC   C0BP20316  10.452   4.936  13.538
   29SBC   C0BQ20317  10.308   4.915  13.535
   29SBC   C0BW20318  10.526   5.081  13.215
   29SBC   C0AC20319  10.534   5.193  13.002
   29SBC   C0A620320  10.855   5.236  13.173
   29SBC   C0A320321  11.037   5.251  13.331
   29SBC   C09Z20322  11.285   5.344  13.392
   29SBC   C09W20323  11.122   5.454  13.028
   29SBC   C07220324  11.057   5.497  12.914
   29SBC   C09H20325  11.417   5.509  13.212
   29SBC   C09G20326  11.479   5.456  13.323
   29SBC   C09P20327  11.581   5.544  13.347
   29SBC   C02O20328  11.671   5.856  13.145
   29SBC   C02M20329  11.631   5.991  12.947
   29SBC   C02F20330  11.695   6.222  12.798
   29SBC   C00W20331  11.822   6.426  12.793
   29SBC   C01R20332  11.991   6.594  12.959
   29SBC   C01N20333  11.915   6.257  13.074
   29SBC   C01L20334  11.977   6.175  13.293
   29SBC   C01H20335  12.137   6.334  13.566
   29SBC   C01K20336  12.110   6.513  13.241
   29SBC   C01E20337  12.222   6.718  13.386
   29SBC   C01G20338  12.185   6.445  13.652
   29SBC   C01D20339  12.271   6.822  13.461
   29SBC   C01A20340  12.363   7.035  13.620
   29SBC   H00120341  12.404   7.120  13.672
   29SBC   C01F20342  12.278   6.668  13.791
   29SBC   C03P20343  12.318   6.666  14.076
   29SBC   C03T20344  12.231   6.443  14.081
   29SBC   C08I20345  12.139   6.208  14.203
   29SBC   C08J20346  12.096   6.087  14.254
   29SBC   C08L20347  11.984   5.871  14.231
   29SBC   C09320348  11.847   5.662  14.203
   29SBC   C08Z20349  11.894   5.692  13.920
   29SBC   C09T20350  11.570   5.343  13.988
   29SBC   C09S20351  11.760   5.498  13.729
   29SBC   C09Q20352  11.654   5.530  13.467
   29SBC   C09F20353  11.412   5.389  13.421
   29SBC   C09E20354  11.483   5.299  13.769
   29SBC   C0A020355  11.224   5.271  13.488
   29SBC   C0CU20356  11.075   5.126  13.680
   29SBC   C0CR20357  10.992   5.071  13.775
   29SBC   C0CZ20358  11.046   5.036  13.899
   29SBC   C0DA20359  11.454   5.281  13.909
   29SBC   C0D920360  11.317   5.167  14.210
   29SBC   H00V20361  11.351   5.250  14.269
   29SBC   C0CY20362  11.182   5.043  13.923
   29SBC   C0DF20363  11.227   5.072  14.265
   29SBC   C0DE20364  11.149   5.045  14.385
   29SBC   C0GI20365  11.157   5.090  14.522
   29SBC   H01K20366  11.233   5.161  14.549
   29SBC   C0GJ20367  11.064   5.038  14.611
   29SBC   H01J20368  11.072   5.069  14.714
   29SBC   O00I20369  10.963   4.947  14.576
   29SBC   C0GH20370  10.941   4.920  14.444
   29SBC   C0GG20371  10.817   4.860  14.418
   29SBC   O00G20372  10.745   4.816  14.524
   29SBC   C0G820373  10.618   4.761  14.497
   29SBC   C0G920374  10.561   4.699  14.604
   29SBC   H01G20375  10.625   4.686  14.689
   29SBC   C0GA20376  10.430   4.656  14.597
   29SBC   H01H20377  10.394   4.602  14.683
   29SBC   C0GB20378  10.343   4.677  14.480
   29SBC   C0EP20379  10.407   4.743  14.368
   29SBC   C0E820380  10.325   4.760  14.246
   29SBC   C0CK20381  10.336   4.804  14.110
   29SBC   C0CL20382  10.438   4.891  14.074
   29SBC   C0E920383  10.554   4.909  14.160
   29SBC   C0GE20384  10.616   4.860  14.280
   29SBC   C0E720385  10.188   4.728  14.250
   29SBC   C0CJ20386  10.116   4.757  14.135
   29SBC   C0E620387   9.980   4.747  14.134
   29SBC   H00Y20388   9.920   4.791  14.055
   29SBC   C0EO20389   9.923   4.672  14.239
   29SBC   H01120390   9.818   4.644  14.232
   29SBC   C0G620391  10.001   4.613  14.343
   29SBC   C0G520392   9.956   4.522  14.443
   29SBC   H01F20393   9.853   4.488  14.439
   29SBC   C0GD20394  10.041   4.487  14.541
   29SBC   H01I20395  10.001   4.430  14.623
   29SBC   O00H20396  10.166   4.544  14.566
   29SBC   C0EQ20397  10.136   4.660  14.362
   29SBC   C0GC20398  10.215   4.624  14.469
   29SBC   C0G720399  10.544   4.787  14.375
   29SBC   C0DD20400  11.048   4.952  14.354
   29SBC   C0GF20401  10.759   4.882  14.297
   29SBC   C0CO20402  10.614   5.006  14.084
   29SBC   C0D020403  10.951   4.998  14.003
   29SBC   C0C420404  10.852   5.049  13.750
   29SBC   C0CN20405  10.546   5.054  13.968
   29SBC   C0CP20406  10.560   4.933  13.636
   29SBC   C0CM20407  10.423   4.985  13.966
   29SBC   C0CI20408  10.216   4.785  14.032
   29SBC   C0CD20409   9.903   4.713  13.682
   29SBC   C0BR20410  10.237   4.865  13.648
   29SBC   C0CS20411  10.245   4.938  13.410
   29SBC   C0B620412  10.116   5.010  13.168
   29SBC   C0CG20413   9.904   4.829  13.478
   29SBC   C0CF20414   9.837   4.762  13.571
   29SBC   C0E520415   9.702   4.585  13.744
   29SBC   C0DT20416   9.434   4.546  13.726
   29SBC   C0DL20417   9.488   4.759  13.436
   29SBC   C0DM20418   9.420   4.804  13.323
   29SBC   C0DY20419   9.220   4.697  13.390
   29SBC   C0DU20420   9.300   4.522  13.701
   29SBC   C0F020421   9.129   4.352  13.715
   29SBC   C0F420422   8.956   4.188  13.573
   29SBC   C0FG20423   8.902   4.513  13.415
   29SBC   O00B20424   8.831   4.167  13.360
   29SBC   C0FN20425   8.853   4.516  13.288
   29SBC   C0DZ20426   9.089   4.652  13.357
   29SBC   O00C20427   9.047   4.812  13.030
   29SBC   C0FR20428   9.089   4.910  12.956
   29SBC   O00D20429   9.012   4.946  12.868
   29SBC   C0E020430   9.290   4.776  13.298
   29SBC   C0E320431   9.232   4.945  12.974
   29SBC   C0AW20432   9.298   5.035  12.889
   29SBC   C0AV20433   9.242   5.104  12.779
   29SBC   H00Q20434   9.136   5.093  12.763
   29SBC   C0AU20435   9.323   5.169  12.682
   29SBC   H00R20436   9.283   5.194  12.585
   29SBC   C0AT20437   9.461   5.169  12.699
   29SBC   C0AS20438   9.581   5.187  12.619
   29SBC   C0AR20439   9.571   5.177  12.477
   29SBC   C0BE20440   9.505   5.125  12.821
   29SBC   C0DN20441   9.499   4.879  13.227
   29SBC   C0AX20442   9.430   5.051  12.914
   29SBC   C0BB20443   9.706   4.962  13.142
   29SBC   C0BD20444   9.643   5.127  12.819
   29SBC   C0B220445   9.914   5.038  13.040
   29SBC   C0AH20446  10.057   5.156  12.827
   29SBC   C0BF20447   9.704   5.172  12.704
   29SBC   C0AL20448  10.136   5.245  12.591
   29SBC   C07U20449   9.806   5.271  12.444
   29SBC   C0AQ20450   9.669   5.250  12.410
   29SBC   C0BG20451   9.454   5.170  12.388
   29SBC   C0FY20452   9.483   5.184  12.031
   29SBC   C0BJ20453   9.403   5.045  12.332
   29SBC   H00S20454   9.403   4.950  12.383
   29SBC   C0FZ20455   9.468   5.049  11.997
   29SBC   C07S20456   9.602   5.241  11.979
   29SBC   C0G120457   9.665   4.996  11.694
   29SBC   C07K20458   9.905   5.270  11.593
   29SBC   C07H20459   9.838   5.349  11.854
   29SBC   C06B20460   9.971   5.659  11.756
   29SBC   C06N20461  10.112   5.684  11.939
   29SBC   C06620462   9.907   5.410  12.092
   29SBC   C06220463  10.137   5.396  12.290
   29SBC   C05Y20464  10.306   5.682  12.101
   29SBC   C06120465  10.276   5.376  12.315
   29SBC   C05H20466  10.550   5.601  12.332
   29SBC   C06V20467  10.325   5.367  12.450
   29SBC   C06Y20468  10.476   5.350  12.688
   29SBC   C05C20469  10.729   5.576  12.539
   29SBC   C06Z20470  10.672   5.357  12.824
   29SBC   C07020471  10.927   5.450  12.884
   29SBC   C05B20472  10.854   5.636  12.577
   29SBC   C05720473  11.097   5.760  12.662
   29SBC   C05920474  11.113   5.600  12.838
   30SBC   C05820475  11.418   1.311   5.939
   30SBC   C05A20476  11.289   1.265   5.900
   30SBC   C06Q20477  11.178   1.324   5.961
   30SBC   C06R20478  11.047   1.290   5.916
   30SBC   C06S20479  11.029   1.194   5.807
   30SBC   C06T20480  10.896   1.171   5.760
   30SBC   C06U20481  10.843   1.081   5.650
   30SBC   C06X20482  10.904   0.984   5.560
   30SBC   C06020483  10.809   0.929   5.471
   30SBC   C05Z20484  10.808   0.897   5.332
   30SBC   C06820485  10.662   0.911   5.294
   30SBC   C06720486  10.589   0.839   5.198
   30SBC   C06920487  10.651   0.736   5.122
   30SBC   C06A20488  10.590   0.616   5.061
   30SBC   C07320489  10.473   0.542   5.098
   30SBC   C07P20490  10.473   0.401   5.090
   30SBC   C07O20491  10.594   0.315   5.076
   30SBC   H00D20492  10.685   0.374   5.080
   30SBC   C07N20493  10.580   0.174   5.063
   30SBC   H00E20494  10.665   0.107   5.051
   30SBC   C07M20495  10.454   0.118   5.074
   30SBC   H00F20496  10.447   0.011   5.088
   30SBC   C07L20497  10.335   0.198   5.098
   30SBC   C07Q20498  10.205   0.144   5.113
   30SBC   H00G20499  10.189   0.042   5.083
   30SBC   O00F20500  10.094   0.209   5.153
   30SBC   C07J20501  10.106   0.342   5.145
   30SBC   C07I20502  10.232   0.408   5.124
   30SBC   N00420503  10.233   0.552   5.115
   30SBC   C07R20504  10.102   0.618   5.105
   30SBC   C07T20505   9.991   0.552   5.139
   30SBC   C0FX20506   9.872   0.614   5.159
   30SBC   C0FW20507   9.763   0.567   5.229
   30SBC   C0G020508   9.779   0.433   5.270
   30SBC   C0G220509   9.684   0.377   5.358
   30SBC   H01E20510   9.704   0.281   5.404
   30SBC   C0G320511   9.563   0.441   5.386
   30SBC   H01C20512   9.490   0.389   5.445
   30SBC   C0G420513   9.555   0.571   5.333
   30SBC   H01D20514   9.456   0.615   5.339
   30SBC   O00E20515   9.886   0.355   5.233
   30SBC   C0FV20516   9.650   0.645   5.261
   30SBC   C0FU20517   9.651   0.783   5.216
   30SBC   H01B20518   9.561   0.835   5.245
   30SBC   C0FT20519   9.760   0.839   5.149
   30SBC   C0FS20520   9.810   0.966   5.105
   30SBC   C0BI20521   9.936   0.949   5.036
   30SBC   C0BH20522  10.019   1.067   5.070
   30SBC   C07F20523  10.139   1.050   5.145
   30SBC   C07E20524  10.238   0.953   5.136
   30SBC   C07G20525  10.220   0.822   5.101
   30SBC   C07420526  10.344   0.759   5.126
   30SBC   C06520527  10.358   0.963   5.202
   30SBC   C06420528  10.374   1.070   5.297
   30SBC   C06320529  10.479   1.083   5.385
   30SBC   C07520530  10.430   1.194   5.478
   30SBC   C0AM20531  10.299   1.245   5.441
   30SBC   C0AN20532  10.221   1.357   5.496
   30SBC   C0AO20533  10.243   1.445   5.617
   30SBC   C0B120534  10.156   1.551   5.645
   30SBC   C0B020535  10.042   1.575   5.569
   30SBC   C0AZ20536   9.943   1.670   5.594
   30SBC   C0AY20537   9.830   1.680   5.514
   30SBC   N00720538   9.720   1.754   5.558
   30SBC   C0E220539   9.597   1.758   5.479
   30SBC   C0E120540   9.488   1.819   5.540
   30SBC   C0E420541   9.363   1.823   5.473
   30SBC   C0FF20542   9.242   1.855   5.541
   30SBC   C0FJ20543   9.107   1.877   5.498
   30SBC   C0FK20544   9.079   1.951   5.383
   30SBC   H01620545   9.155   1.977   5.311
   30SBC   C0FL20546   8.945   2.007   5.401
   30SBC   H01720547   8.894   2.085   5.347
   30SBC   C0FM20548   8.899   1.975   5.532
   30SBC   C0FH20549   8.840   2.047   5.640
   30SBC   C0FI20550   8.917   2.002   5.748
   30SBC   C0F320551   8.926   2.076   5.866
   30SBC   C0F220552   9.037   2.047   5.937
   30SBC   C0DW20553   9.155   1.978   5.888
   30SBC   C0FE20554   9.142   1.908   5.773
   30SBC   C0DV20555   9.280   1.996   5.937
   30SBC   C0DX20556   9.393   1.962   5.866
   30SBC   C0DK20557   9.520   1.995   5.913
   30SBC   C0DJ20558   9.532   2.075   6.024
   30SBC   C0DI20559   9.659   2.116   6.071
   30SBC   C0DH20560   9.770   2.064   6.006
   30SBC   C0DG20561   9.755   1.975   5.901
   30SBC   C0BV20562   9.862   1.904   5.855
   30SBC   C0BC20563   9.847   1.820   5.748
   30SBC   C0BA20564   9.986   1.913   5.919
   30SBC   C0B420565  10.085   1.823   5.888
   30SBC   C0B320566  10.071   1.734   5.784
   30SBC   C0B520567  10.204   1.826   5.959
   30SBC   C0BU20568  10.226   1.928   6.052
   30SBC   C0BT20569  10.125   2.021   6.084
   30SBC   C0BS20570  10.147   2.122   6.176
   30SBC   C0CC20571  10.042   2.202   6.211
   30SBC   C0CB20572  10.062   2.306   6.301
   30SBC   C0CH20573   9.947   2.344   6.367
   30SBC   C0DO20574   9.813   2.305   6.334
   30SBC   C0DP20575   9.702   2.352   6.403
   30SBC   C0EA20576   9.721   2.432   6.523
   30SBC   H01220577   9.813   2.444   6.578
   30SBC   O00920578   9.608   2.494   6.577
   30SBC   C0EH20579   9.485   2.473   6.522
   30SBC   C0EG20580   9.378   2.549   6.574
   30SBC   C0EJ20581   9.361   2.646   6.680
   30SBC   H01020582   9.437   2.670   6.754
   30SBC   C0EK20583   9.227   2.703   6.675
   30SBC   H00Z20584   9.186   2.787   6.729
   30SBC   C0EL20585   9.165   2.631   6.575
   30SBC   C0EM20586   9.035   2.646   6.522
   30SBC   C0EW20587   8.932   2.739   6.561
   30SBC   H01320588   8.945   2.808   6.643
   30SBC   C0EX20589   8.805   2.740   6.482
   30SBC   H01420590   8.727   2.814   6.496
   30SBC   C0F120591   8.788   2.651   6.369
   30SBC   C0EU20592   8.888   2.560   6.342
   30SBC   C0ET20593   8.900   2.480   6.230
   30SBC   C0ES20594   9.029   2.427   6.234
   30SBC   C0EE20595   9.099   2.476   6.345
   30SBC   C0ED20596   9.226   2.462   6.405
   30SBC   C0EC20597   9.329   2.379   6.351
   30SBC   C0EB20598   9.315   2.281   6.251
   30SBC   C0EN20599   9.189   2.248   6.194
   30SBC   C0ER20600   9.187   2.140   6.109
   30SBC   C0DS20601   9.430   2.212   6.198
   30SBC   C0DR20602   9.557   2.249   6.244
   30SBC   C0EY20603   9.056   2.303   6.181
   30SBC   C0EZ20604   8.982   2.238   6.077
   30SBC   C0F520605   8.865   2.276   5.994
   30SBC   C0F620606   8.788   2.383   6.021
   30SBC   N00820607   8.691   2.414   5.916
   30SBC   C0F720608   8.677   2.342   5.787
   30SBC   C0FQ20609   8.587   2.378   5.689
   30SBC   H01820610   8.585   2.327   5.594
   30SBC   C0FP20611   8.502   2.492   5.712
   30SBC   H01920612   8.431   2.519   5.635
   30SBC   C0FO20613   8.515   2.560   5.832
   30SBC   H01A20614   8.458   2.650   5.851
   30SBC   C0F820615   8.767   2.233   5.771
   30SBC   C0F920616   8.598   2.522   5.938
   30SBC   C0FA20617   8.592   2.595   6.059
   30SBC   H01520618   8.513   2.666   6.075
   30SBC   C0FB20619   8.693   2.574   6.155
   30SBC   C0FD20620   8.786   2.465   6.137
   30SBC   C0FC20621   8.688   2.662   6.267
   30SBC   O00A20622   8.592   2.744   6.282
   30SBC   C0EV20623   9.010   2.567   6.410
   30SBC   C0EF20624   9.256   2.539   6.521
   30SBC   C0EI20625   9.461   2.387   6.409
   30SBC   C0DQ20626   9.570   2.328   6.351
   30SBC   C0CE20627   9.801   2.228   6.221
   30SBC   H00U20628   9.965   2.417   6.444
   30SBC   C0CA20629  10.194   2.363   6.311
   30SBC   C0C920630  10.306   2.279   6.279
   30SBC   C0C820631  10.437   2.329   6.273
   30SBC   C0C720632  10.560   2.264   6.310
   30SBC   C0C620633  10.669   2.351   6.307
   30SBC   C0C520634  10.800   2.350   6.376
   30SBC   C0CQ20635  10.848   2.480   6.406
   30SBC   C0D120636  10.764   2.588   6.400
   30SBC   C0D820637  10.787   2.672   6.502
   30SBC   C0D720638  10.921   2.638   6.545
   30SBC   C0D620639  10.980   2.685   6.664
   30SBC   C0D520640  11.107   2.638   6.713
   30SBC   C0D420641  11.190   2.539   6.673
   30SBC   C0D320642  11.269   2.499   6.789
   30SBC   C0CX20643  11.314   2.360   6.766
   30SBC   C0CW20644  11.232   2.310   6.656
   30SBC   C0CV20645  11.215   2.180   6.585
   30SBC   C0D220646  11.307   2.072   6.598
   30SBC   C09D20647  11.438   2.079   6.657
   30SBC   C09C20648  11.539   1.984   6.630
   30SBC   C09B20649  11.671   1.990   6.664
   30SBC   C09A20650  11.710   2.097   6.747
   30SBC   C09920651  11.619   2.177   6.806
   30SBC   C09820652  11.677   2.290   6.852
   30SBC   C08Y20653  11.821   2.281   6.823
   30SBC   C08X20654  11.926   2.381   6.818
   30SBC   C08W20655  11.895   2.519   6.860
   30SBC   C08U20656  11.760   2.574   6.895
   30SBC   C08V20657  11.620   2.530   6.884
   30SBC   C0DC20658  11.536   2.619   6.952
   30SBC   H00W20659  11.434   2.586   6.966
   30SBC   C0DB20660  11.620   2.727   6.999
   30SBC   H00X20661  11.586   2.800   7.071
   30SBC   C08T20662  11.753   2.707   6.951
   30SBC   C08S20663  11.863   2.790   6.967
   30SBC   H00N20664  11.845   2.881   7.022
   30SBC   C08R20665  11.987   2.751   6.915
   30SBC   C08Q20666  12.101   2.839   6.909
   30SBC   H00O20667  12.099   2.937   6.953
   30SBC   C08P20668  12.230   2.807   6.861
   30SBC   C08O20669  12.342   2.897   6.871
   30SBC   H00P20670  12.338   2.999   6.907
   30SBC   C08N20671  12.470   2.855   6.819
   30SBC   C08M20672  12.586   2.945   6.820
   30SBC   O00820673  12.598   3.047   6.894
   30SBC   O00720674  12.696   2.901   6.751
   30SBC   C08H20675  12.706   2.780   6.689
   30SBC   C08G20676  12.818   2.742   6.609
   30SBC   C03V20677  12.940   2.811   6.592
   30SBC   H00920678  12.951   2.910   6.633
   30SBC   C03U20679  13.048   2.773   6.508
   30SBC   C03W20680  13.170   2.841   6.482
   30SBC   H00A20681  13.199   2.934   6.529
   30SBC   C03X20682  13.250   2.797   6.383
   30SBC   H00B20683  13.338   2.855   6.361
   30SBC   O00520684  13.229   2.687   6.303
   30SBC   C03O20685  13.120   2.614   6.341
   30SBC   C03N20686  13.097   2.500   6.266
   30SBC   O00020687  13.187   2.479   6.166
   30SBC   C01920688  13.173   2.369   6.087
   30SBC   C01820689  13.063   2.278   6.102
   30SBC   C01720690  12.972   2.303   6.203
   30SBC   C01620691  12.862   2.222   6.225
   30SBC   C01520692  12.861   2.109   6.147
   30SBC   C01420693  12.759   2.017   6.155
   30SBC   C01320694  12.645   2.039   6.242
   30SBC   C01220695  12.556   1.923   6.213
   30SBC   C01120696  12.634   1.843   6.129
   30SBC   C01020697  12.593   1.719   6.101
   30SBC   C00Z20698  12.642   1.627   6.007
   30SBC   C00Y20699  12.531   1.543   5.992
   30SBC   C01O20700  12.434   1.563   6.081
   30SBC   C01P20701  12.300   1.531   6.051
   30SBC   C02L20702  12.202   1.594   6.118
   30SBC   C02K20703  12.242   1.700   6.199
   30SBC   C01M20704  12.372   1.760   6.205
   30SBC   C02J20705  12.138   1.745   6.284
   30SBC   C02I20706  12.142   1.844   6.386
   30SBC   C02H20707  12.245   1.934   6.415
   30SBC   C01Q20708  12.370   1.960   6.357
   30SBC   C02G20709  12.425   2.074   6.415
   30SBC   C08920710  12.339   2.100   6.518
   30SBC   C08820711  12.352   2.227   6.575
   30SBC   C08720712  12.481   2.272   6.508
   30SBC   C08620713  12.554   2.389   6.537
   30SBC   C03S20714  12.681   2.429   6.488
   30SBC   N00620715  12.710   2.541   6.556
   30SBC   C08F20716  12.604   2.583   6.634
   30SBC   C01J20717  12.777   2.366   6.401
   30SBC   C03R20718  12.892   2.447   6.387
   30SBC   C03Q20719  12.912   2.572   6.458
   30SBC   C08E20720  12.506   2.492   6.620
   30SBC   C08D20721  12.385   2.514   6.698
   30SBC   C08K20722  12.368   2.640   6.760
   30SBC   C08C20723  12.278   2.420   6.712
   30SBC   C09120724  12.153   2.461   6.768
   30SBC   C09220725  12.130   2.592   6.816
   30SBC   C08B20726  12.261   2.290   6.666
   30SBC   C09020727  12.126   2.249   6.707
   30SBC   C09420728  12.065   2.124   6.680
   30SBC   C09520729  11.938   2.081   6.717
   30SBC   C09R20730  11.907   1.963   6.638
   30SBC   C09720731  12.015   1.931   6.562
   30SBC   C09620732  12.106   2.031   6.583
   30SBC   C01I20733  12.528   2.176   6.407
   30SBC   C08A20734  12.218   2.034   6.505
   30SBC   C09L20735  12.028   1.837   6.457
   30SBC   C09K20736  11.943   1.739   6.392
   30SBC   C09J20737  11.812   1.715   6.435
   30SBC   C09I20738  11.719   1.641   6.359
   30SBC   C09O20739  11.718   1.566   6.235
   30SBC   C09N20740  11.837   1.536   6.156
   30SBC   C09M20741  11.968   1.582   6.178
   30SBC   C06O20742  11.815   1.442   6.053
   30SBC   C05M20743  11.684   1.395   6.015
   30SBC   C06P20744  11.571   1.433   6.086
   30SBC   C04220745  11.666   1.308   5.907
   30SBC   C04120746  11.775   1.266   5.831
   30SBC   C04020747  11.761   1.190   5.720
   30SBC   C03Z20748  11.864   1.165   5.636
   30SBC   C03Y20749  11.989   1.211   5.666
   30SBC   C02720750  12.092   1.188   5.579
   30SBC   C02620751  12.219   1.226   5.610
   30SBC   C02820752  12.325   1.199   5.526
   30SBC   C02920753  12.305   1.134   5.405
   30SBC   C02B20754  12.408   1.115   5.320
   30SBC   C02C20755  12.391   1.050   5.198
   30SBC   C02X20756  12.499   1.025   5.120
   30SBC   C03E20757  12.472   0.956   5.005
   30SBC   C03G20758  12.350   0.908   4.960
   30SBC   C04Q20759  12.240   0.935   5.045
   30SBC   C04R20760  12.116   0.899   5.011
   30SBC   C04S20761  12.014   0.919   5.094
   30SBC   C04L20762  12.034   0.983   5.217
   30SBC   C04M20763  12.158   1.035   5.249
   30SBC   C04K20764  11.925   1.012   5.305
   30SBC   C04F20765  11.799   0.964   5.273
   30SBC   C04E20766  11.773   0.920   5.140
   30SBC   C04D20767  11.642   0.901   5.100
   30SBC   C05020768  11.623   0.846   4.973
   30SBC   C05120769  11.491   0.824   4.931
   30SBC   C05Q20770  11.471   0.774   4.807
   30SBC   C05V20771  11.335   0.736   4.772
   30SBC   N00520772  11.325   0.664   4.655
   30SBC   C07V20773  11.432   0.655   4.570
   30SBC   C08220774  11.412   0.579   4.451
   30SBC   C08120775  11.291   0.530   4.403
   30SBC   C07C20776  11.184   0.541   4.491
   30SBC   C07B20777  11.058   0.474   4.460
   30SBC   C08020778  11.044   0.406   4.341
   30SBC   C07Z20779  10.924   0.341   4.322
   30SBC   H00L20780  10.914   0.288   4.228
   30SBC   C07920781  10.816   0.336   4.414
   30SBC   C07820782  10.838   0.406   4.531
   30SBC   C07720783  10.741   0.398   4.636
   30SBC   C07X20784  10.626   0.311   4.620
   30SBC   H00I20785  10.549   0.302   4.695
   30SBC   C07Y20786  10.599   0.254   4.496
   30SBC   H00H20787  10.505   0.206   4.474
   30SBC   C07620788  10.753   0.481   4.744
   30SBC   C06C20789  10.646   0.499   4.836
   30SBC   H00C20790  10.551   0.448   4.830
   30SBC   C06F20791  10.873   0.558   4.763
   30SBC   C06E20792  10.895   0.630   4.878
   30SBC   C06G20793  11.004   0.702   4.915
   30SBC   C06H20794  11.113   0.687   4.831
   30SBC   C06I20795  11.096   0.614   4.708
   30SBC   C06L20796  11.015   0.770   5.041
   30SBC   C06M20797  10.905   0.793   5.124
   30SBC   C06K20798  11.145   0.815   5.077
   30SBC   C05S20799  11.249   0.812   4.979
   30SBC   C05U20800  11.169   0.859   5.213
   30SBC   C05X20801  11.057   0.883   5.299
   30SBC   C05G20802  11.105   0.936   5.434
   30SBC   C05F20803  11.237   0.952   5.458
   30SBC   C05E20804  11.263   1.019   5.581
   30SBC   C04820805  11.391   1.061   5.617
   30SBC   C05620806  11.399   1.136   5.730
   30SBC   C04520807  11.522   1.186   5.766
   30SBC   C04720808  11.489   1.043   5.529
   30SBC   C04920809  11.464   0.985   5.403
   30SBC   C04B20810  11.568   0.970   5.313
   30SBC   C04620811  11.612   1.085   5.565
   30SBC   C04H20812  11.715   1.062   5.477
   30SBC   C05D20813  11.141   1.046   5.642
   30SBC   C04A20814  11.339   0.936   5.366
   30SBC   C05T20815  11.305   0.893   5.240
   30SBC   C05520816  11.410   0.886   5.149
   30SBC   C06D20817  10.789   0.636   4.973
   30SBC   C07W20818  10.973   0.551   4.673
   30SBC   C08520819  10.692   0.268   4.396
   30SBC   H00M20820  10.685   0.211   4.304
   30SBC   C08420821  11.150   0.406   4.250
   30SBC   H00J20822  11.128   0.355   4.157
   30SBC   C07A20823  10.959   0.476   4.554
   30SBC   C08320824  11.272   0.459   4.282
   30SBC   H00K20825  11.354   0.451   4.212
   30SBC   O00K20826  11.509   0.545   4.368
   30SBC   C0GO20827  11.634   0.564   4.407
   30SBC   C0GN20828  11.739   0.513   4.328
   30SBC   H01L20829  11.717   0.465   4.234
   30SBC   C0GM20830  11.872   0.511   4.381
   30SBC   C0GL20831  11.967   0.450   4.312
   30SBC   H01M20832  11.939   0.417   4.213
   30SBC   O00J20833  12.097   0.441   4.354
   30SBC   C0GK20834  12.125   0.519   4.469
   30SBC   H01N20835  12.231   0.527   4.490
   30SBC   C05K20836  12.030   0.589   4.539
   30SBC   C05J20837  12.061   0.678   4.649
   30SBC   C04Y20838  12.189   0.729   4.684
   30SBC   C04X20839  12.209   0.800   4.805
   30SBC   O00620840  12.301   0.702   4.609
   30SBC   C05320841  12.432   0.751   4.634
   30SBC   C04O20842  12.454   0.820   4.751
   30SBC   C03C20843  12.579   0.877   4.803
   30SBC   C03B20844  12.719   0.889   4.762
   30SBC   C05420845  12.760   0.853   4.633
   30SBC   C0GR20846  12.896   0.867   4.592
   30SBC   C03M20847  13.016   0.947   4.633
   30SBC   C03I20848  13.028   1.024   4.756
   30SBC   C03J20849  13.146   1.101   4.777
   30SBC   N00220850  13.165   1.181   4.901
   30SBC   C02U20851  13.288   1.251   4.932
   30SBC   C02T20852  13.297   1.334   5.048
   30SBC   C02Z20853  13.409   1.411   5.070
   30SBC   N00120854  13.422   1.498   5.182
   30SBC   C02R20855  13.543   1.573   5.207
   30SBC   C03220856  13.644   1.556   5.113
   30SBC   C03120857  13.635   1.458   5.010
   30SBC   H00720858  13.710   1.447   4.934
   30SBC   C03320859  13.754   1.644   5.141
   30SBC   H00320860  13.839   1.643   5.074
   30SBC   O00420861  13.760   1.731   5.247
   30SBC   C03420862  13.663   1.722   5.341
   30SBC   C03520863  13.681   1.793   5.461
   30SBC   C03620864  13.581   1.799   5.556
   30SBC   H00520865  13.596   1.851   5.650
   30SBC   C03720866  13.463   1.722   5.529
   30SBC   H00620867  13.398   1.724   5.615
   30SBC   C00D20868  13.442   1.656   5.409
   30SBC   C00C20869  13.324   1.593   5.388
   30SBC   C00B20870  13.210   1.596   5.482
   30SBC   C00A20871  13.156   1.661   5.613
   30SBC   C00920872  13.049   1.574   5.646
   30SBC   C00820873  12.943   1.599   5.739
   30SBC   C00720874  12.947   1.713   5.813
   30SBC   C00620875  12.846   1.737   5.908
   30SBC   C00520876  12.846   1.861   5.978
   30SBC   C00420877  12.946   1.954   5.957
   30SBC   C00320878  13.044   1.929   5.861
   30SBC   C00220879  13.142   2.025   5.838
   30SBC   C01C20880  13.157   2.135   5.927
   30SBC   C01B20881  13.268   2.225   5.919
   30SBC   H00020882  13.358   2.206   5.862
   30SBC   C00120883  13.225   2.011   5.726
   30SBC   C00020884  13.203   1.900   5.636
   30SBC   C01U20885  13.273   1.930   5.520
   30SBC   H00220886  13.288   1.877   5.427
   30SBC   C01T20887  13.345   2.056   5.548
   30SBC   O00220888  13.427   2.112   5.473
   30SBC   O00120889  13.303   2.104   5.670
   30SBC   C01S20890  13.040   1.810   5.784
   30SBC   C00N20891  12.834   1.515   5.729
   30SBC   C00M20892  12.821   1.421   5.627
   30SBC   C00J20893  12.917   1.407   5.531
   30SBC   C00I20894  12.904   1.337   5.414
   30SBC   C00H20895  13.002   1.334   5.320
   30SBC   C00G20896  13.114   1.413   5.336
   30SBC   C00F20897  13.211   1.420   5.246
   30SBC   C01X20898  12.984   1.264   5.204
   30SBC   C01W20899  12.868   1.192   5.188
   30SBC   C01V20900  12.764   1.205   5.282
   30SBC   C02020901  12.637   1.148   5.261
   30SBC   C01Z20902  12.850   1.125   5.069
   30SBC   C02Y20903  12.729   1.071   5.058
   30SBC   C03920904  12.706   0.993   4.947
   30SBC   C02W20905  12.951   1.115   4.972
   30SBC   C01Y20906  13.080   1.271   5.104
   30SBC   C00U20907  12.782   1.278   5.395
   30SBC   C00S20908  12.685   1.284   5.493
   30SBC   C00T20909  12.559   1.223   5.470
   30SBC   C00R20910  12.707   1.352   5.611
   30SBC   C00Q20911  12.603   1.367   5.696
   30SBC   C00V20912  12.478   1.311   5.671
   30SBC   C02420913  12.369   1.333   5.758
   30SBC   C00X20914  12.388   1.402   5.869
   30SBC   C00P20915  12.618   1.450   5.803
   30SBC   C00O20916  12.734   1.527   5.819
   30SBC   C00K20917  13.033   1.481   5.546
   30SBC   N00020918  13.138   1.786   5.677
   30SBC   C00L20919  13.122   1.494   5.448
   30SBC   H00420920  13.774   1.843   5.483
   30SBC   C02Q20921  13.547   1.648   5.321
   30SBC   C00E20922  13.315   1.502   5.274
   30SBC   C03020923  13.521   1.385   4.988
   30SBC   O00320924  13.507   1.317   4.866
   30SBC   C02S20925  13.195   1.343   5.130
   30SBC   C03820926  13.389   1.249   4.839
   30SBC   C03L20927  13.371   1.178   4.721
   30SBC   H00820928  13.453   1.168   4.653
   30SBC   C02V20929  13.062   1.190   4.995
   30SBC   C03K20930  13.259   1.103   4.688
   30SBC   C0BK20931  13.242   1.019   4.573
   30SBC   H00T20932  13.327   1.007   4.508
   30SBC   C03H20933  12.931   1.034   4.859
   30SBC   C0BL20934  13.126   0.941   4.543
   30SBC   C0GU20935  13.126   0.853   4.433
   30SBC   H01O20936  13.218   0.855   4.377
   30SBC   C0GT20937  13.020   0.767   4.392
   30SBC   H01P20938  13.033   0.703   4.306
   30SBC   C0GS20939  12.901   0.792   4.466
   30SBC   C0GV20940  12.772   0.743   4.438
   30SBC   C0GW20941  12.734   0.656   4.335
   30SBC   H01Q20942  12.799   0.618   4.257
   30SBC   C0GX20943  12.605   0.612   4.335
   30SBC   H01R20944  12.582   0.534   4.263
   30SBC   O00L20945  12.510   0.633   4.436
   30SBC   C0GQ20946  12.678   0.776   4.541
   30SBC   C03A20947  12.801   0.969   4.846
   30SBC   C05L20948  12.538   0.727   4.536
   30SBC   C04W20949  11.952   0.720   4.732
   30SBC   C05I20950  11.821   0.695   4.697
   30SBC   C05O20951  11.794   0.639   4.572
   30SBC   C05220952  11.710   0.747   4.776
   30SBC   C04V20953  11.963   0.792   4.849
   30SBC   C04U20954  11.861   0.828   4.938
   30SBC   N00920955  11.898   0.585   4.499
   30SBC   C0GP20956  11.664   0.629   4.531
   30SBC   C05W20957  11.561   0.683   4.611
   30SBC   C07D20958  11.201   0.604   4.614
   30SBC   C06J20959  11.230   0.748   4.859
   30SBC   C05P20960  11.580   0.737   4.731
   30SBC   C05R20961  11.384   0.839   5.017
   30SBC   C04Z20962  11.732   0.808   4.899
   30SBC   C04C20963  11.540   0.919   5.187
   30SBC   C04G20964  11.694   1.000   5.357
   30SBC   C04J20965  11.949   1.075   5.424
   30SBC   C04T20966  11.882   0.887   5.061
   30SBC   N00320967  12.098   0.835   4.888
   30SBC   C04P20968  12.337   0.843   4.839
   30SBC   C03D20969  12.581   0.933   4.925
   30SBC   C02120970  12.623   1.077   5.144
   30SBC   C03F20971  12.262   1.002   5.163
   30SBC   C02220972  12.533   1.161   5.351
   30SBC   C02A20973  12.180   1.095   5.370
   30SBC   C02320974  12.453   1.243   5.556
   30SBC   C02520975  12.240   1.290   5.724
   30SBC   C02D20976  12.135   1.319   5.810
   30SBC   C02E20977  12.154   1.396   5.919
   30SBC   C02N20978  12.050   1.448   5.999
   30SBC   C04N20979  12.077   1.114   5.464
   30SBC   C02P20980  12.007   1.280   5.781
   30SBC   C04I20981  11.844   1.098   5.512
   30SBC   C04420982  11.632   1.153   5.683
   30SBC   C04320983  11.899   1.318   5.865
   30SBC   C05N20984  11.922   1.399   5.975
   30SBC   C09U20985  11.586   1.522   6.195
   30SBC   C09V20986  11.467   1.578   6.250
   30SBC   C09X20987  11.469   1.672   6.352
   30SBC   C09Y20988  11.366   1.752   6.390
   30SBC   C0A120989  11.247   1.740   6.332
   30SBC   C0A220990  11.234   1.636   6.238
   30SBC   C0A420991  11.109   1.609   6.187
   30SBC   C07120992  11.090   1.501   6.100
   30SBC   C0A520993  10.968   1.473   6.054
   30SBC   C0A920994  10.859   1.561   6.087
   30SBC   C0A820995  10.880   1.666   6.170
   30SBC   C0AP20996  10.776   1.751   6.203
   30SBC   C0BY20997  10.801   1.856   6.287
   30SBC   C0BX20998  10.922   1.891   6.334
   30SBC   C0C220999  10.944   2.014   6.396
   30SBC   C0C321000  11.066   2.041   6.452
   30SBC   C0CT21001  11.167   1.945   6.442
   30SBC   C0C121002  10.841   2.110   6.400
   30SBC   C0C021003  10.704   2.069   6.373
   30SBC   C0A721004  11.025   1.802   6.308
   30SBC   C0BZ21005  10.695   1.943   6.316
   30SBC   C0BO21006  10.572   1.920   6.270
   30SBC   C0BN21007  10.544   1.820   6.177
   30SBC   C0BM21008  10.425   1.822   6.114
   30SBC   C0B921009  10.410   1.727   6.013
   30SBC   C0B821010  10.507   1.629   5.990
   30SBC   C0AD21011  10.627   1.630   6.062
   30SBC   C0AF21012  10.483   1.529   5.896
   30SBC   C0AG21013  10.374   1.527   5.811
   30SBC   C0B721014  10.280   1.629   5.835
   30SBC   C0AE21015  10.584   1.433   5.884
   30SBC   C0AB21016  10.708   1.440   5.945
   30SBC   C0AA21017  10.813   1.358   5.910
   30SBC   C0AJ21018  10.567   1.342   5.777
   30SBC   C0AK21019  10.669   1.256   5.748
   30SBC   C06W21020  10.623   1.186   5.643
   30SBC   C0AI21021  10.458   1.337   5.690
   30SBC   C0BP21022  10.489   2.029   6.301
   30SBC   C0BQ21023  10.363   2.036   6.222
   30SBC   C0BW21024  10.648   1.736   6.147
   30SBC   C0AC21025  10.734   1.544   6.032
   30SBC   C0A621026  11.004   1.690   6.228
   30SBC   C0A321027  11.146   1.831   6.365
   30SBC   C09Z21028  11.380   1.855   6.491
   30SBC   C09W21029  11.342   1.557   6.195
   30SBC   C07221030  11.327   1.454   6.102
   30SBC   C09H21031  11.595   1.684   6.410
   30SBC   C09G21032  11.606   1.777   6.511
   30SBC   C09P21033  11.742   1.805   6.525
   30SBC   C02O21034  12.006   1.680   6.279
   30SBC   C02M21035  12.073   1.544   6.101
   30SBC   C02F21036  12.284   1.438   5.949
   30SBC   C00W21037  12.515   1.457   5.887
   30SBC   C01R21038  12.747   1.631   5.917
   30SBC   C01N21039  12.462   1.681   6.135
   30SBC   C01L21040  12.426   1.882   6.256
   30SBC   C01H21041  12.645   2.160   6.319
   30SBC   C01K21042  12.747   1.901   6.077
   30SBC   C01E21043  12.954   2.070   6.043
   30SBC   C01G21044  12.757   2.253   6.319
   30SBC   C01D21045  13.057   2.164   6.020
   30SBC   C01A21046  13.266   2.347   5.991
   30SBC   H00121047  13.344   2.420   5.976
   30SBC   C01F21048  12.989   2.412   6.288
   30SBC   C03P21049  13.022   2.654   6.433
   30SBC   C03T21050  12.818   2.619   6.543
   30SBC   C08I21051  12.597   2.695   6.705
   30SBC   C08J21052  12.476   2.728   6.766
   30SBC   C08L21053  12.242   2.679   6.811
   30SBC   C09321054  11.999   2.620   6.861
   30SBC   C08Z21055  12.056   2.357   6.770
   30SBC   C09T21056  11.576   2.393   6.839
   30SBC   C09S21057  11.838   2.149   6.773
   30SBC   C09Q21058  11.779   1.912   6.609
   30SBC   C09F21059  11.507   1.874   6.549
   30SBC   C09E21060  11.487   2.186   6.749
   30SBC   C0A021061  11.282   1.954   6.515
   30SBC   C0CU21062  11.098   2.167   6.510
   30SBC   C0CR21063  11.001   2.272   6.487
   30SBC   C0CZ21064  11.036   2.403   6.529
   30SBC   C0DA21065  11.448   2.315   6.789
   30SBC   C0D921066  11.203   2.559   6.903
   30SBC   H00V21067  11.217   2.522   7.003
   30SBC   C0CY21068  11.145   2.415   6.617
   30SBC   C0DF21069  11.109   2.650   6.851
   30SBC   C0DE21070  10.995   2.735   6.884
   30SBC   C0GI21071  10.960   2.811   7.006
   30SBC   H01K21072  11.022   2.805   7.095
   30SBC   C0GJ21073  10.866   2.904   6.990
   30SBC   H01J21074  10.857   2.966   7.078
   30SBC   O00I21075  10.788   2.922   6.877
   30SBC   C0GH21076  10.808   2.845   6.767
   30SBC   C0GG21077  10.704   2.848   6.669
   30SBC   O00G21078  10.600   2.932   6.693
   30SBC   C0G821079  10.492   2.937   6.611
   30SBC   C0G921080  10.421   3.053   6.605
   30SBC   H01G21081  10.456   3.131   6.672
   30SBC   C0GA21082  10.312   3.080   6.514
   30SBC   H01H21083  10.271   3.179   6.498
   30SBC   C0GB21084  10.254   2.970   6.448
   30SBC   C0EP21085  10.325   2.844   6.461
   30SBC   C0E821086  10.258   2.722   6.411
   30SBC   C0CK21087  10.298   2.588   6.389
   30SBC   C0CL21088  10.429   2.564   6.358
   30SBC   C0E921089  10.544   2.633   6.408
   30SBC   C0GE21090  10.558   2.742   6.505
   30SBC   C0E721091  10.131   2.728   6.358
   30SBC   C0CJ21092  10.083   2.604   6.308
   30SBC   C0E621093   9.966   2.605   6.235
   30SBC   H00Y21094   9.919   2.517   6.191
   30SBC   C0EO21095   9.915   2.727   6.203
   30SBC   H01121096   9.831   2.724   6.135
   30SBC   C0G621097   9.961   2.847   6.253
   30SBC   C0G521098   9.897   2.973   6.219
   30SBC   H01F21099   9.804   2.976   6.164
   30SBC   C0GD21100   9.963   3.085   6.262
   30SBC   H01I21101   9.915   3.179   6.240
   30SBC   O00H21102  10.077   3.090   6.338
   30SBC   C0EQ21103  10.073   2.853   6.329
   30SBC   C0GC21104  10.134   2.970   6.371
   30SBC   C0G721105  10.455   2.835   6.525
   30SBC   C0DD21106  10.924   2.765   6.764
   30SBC   C0GF21107  10.689   2.758   6.559
   30SBC   C0CO21108  10.649   2.574   6.342
   30SBC   C0D021109  10.948   2.505   6.493
   30SBC   C0C421110  10.873   2.245   6.424
   30SBC   C0CN21111  10.611   2.470   6.260
   30SBC   C0CP21112  10.573   2.129   6.356
   30SBC   C0CM21113  10.472   2.465   6.261
   30SBC   C0CI21114  10.188   2.507   6.339
   30SBC   C0CD21115   9.912   2.174   6.162
   30SBC   C0BR21116  10.271   2.142   6.234
   30SBC   C0CS21117  10.337   1.925   6.130
   30SBC   C0B621118  10.298   1.728   5.931
   30SBC   C0CG21119  10.004   2.011   6.020
   30SBC   C0CF21120   9.896   2.093   6.059
   30SBC   C0E521121   9.672   2.202   6.180
   30SBC   C0DT21122   9.422   2.124   6.090
   30SBC   C0DL21123   9.632   1.956   5.847
   30SBC   C0DM21124   9.618   1.885   5.730
   30SBC   C0DY21125   9.378   1.900   5.743
   30SBC   C0DU21126   9.301   2.077   6.047
   30SBC   C0F021127   9.063   2.129   6.050
   30SBC   C0F421128   8.851   2.195   5.883
   30SBC   C0FG21129   9.014   1.912   5.708
   30SBC   O00B21130   8.764   2.162   5.648
   30SBC   C0FN21131   8.996   1.886   5.578
   30SBC   C0DZ21132   9.254   1.886   5.682
   30SBC   O00C21133   9.365   1.783   5.344
   30SBC   C0FR21134   9.466   1.711   5.286
   30SBC   O00D21135   9.437   1.664   5.178
   30SBC   C0E021136   9.493   1.868   5.667
   30SBC   C0E321137   9.589   1.695   5.357
   30SBC   C0AW21138   9.692   1.608   5.325
   30SBC   C0AV21139   9.696   1.521   5.208
   30SBC   H00Q21140   9.618   1.534   5.135
   30SBC   C0AU21141   9.799   1.422   5.193
   30SBC   H00R21142   9.797   1.357   5.107
   30SBC   C0AT21143   9.901   1.415   5.286
   30SBC   C0AS21144  10.018   1.329   5.317
   30SBC   C0AR21145  10.027   1.199   5.265
   30SBC   C0BE21146   9.907   1.514   5.377
   30SBC   C0DN21147   9.730   1.827   5.675
   30SBC   C0AX21148   9.807   1.606   5.404
   30SBC   C0BB21149   9.952   1.741   5.709
   30SBC   C0BD21150  10.021   1.494   5.458
   30SBC   C0B221151  10.171   1.641   5.751
   30SBC   C0AH21152  10.357   1.432   5.702
   30SBC   C0BF21153  10.100   1.388   5.427
   30SBC   C0AL21154  10.492   1.228   5.600
   30SBC   C07U21155  10.269   1.160   5.326
   30SBC   C0AQ21156  10.152   1.142   5.247
   30SBC   C0BG21157   9.940   1.153   5.155
   30SBC   C0FY21158   9.973   0.812   5.047
   30SBC   C0BJ21159   9.824   1.085   5.188
   30SBC   H00S21160   9.758   1.110   5.269
   30SBC   C0FZ21161   9.867   0.751   5.116
   30SBC   C07S21162  10.098   0.755   5.070
   30SBC   C0G121163   9.993   0.416   5.169
   30SBC   C07K21164  10.347   0.334   5.099
   30SBC   C07H21165  10.359   0.621   5.110
   30SBC   C06B21166  10.668   0.580   4.951
   30SBC   C06N21167  10.787   0.731   5.077
   30SBC   C06621168  10.444   0.851   5.168
   30SBC   C06221169  10.601   1.003   5.392
   30SBC   C05Y21170  10.924   0.850   5.252
   30SBC   C06121171  10.693   1.002   5.501
   30SBC   C05H21172  11.045   0.978   5.553
   30SBC   C06V21173  10.709   1.088   5.599
   30SBC   C06Y21174  10.797   1.256   5.815
   30SBC   C05C21175  11.145   1.135   5.756
   30SBC   C06Z21176  10.941   1.368   5.965
   30SBC   C07021177  11.199   1.425   6.060
   30SBC   C05B21178  11.278   1.177   5.794
   30SBC   C05721179  11.536   1.268   5.875
   30SBC   C05921180  11.440   1.397   6.046
   31SBC   C05821181   3.431   0.868  13.719
   31SBC   C05A21182   3.339   0.877  13.820
   31SBC   C06Q21183   3.246   0.980  13.825
   31SBC   C06R21184   3.156   0.993  13.936
   31SBC   C06S21185   3.147   0.895  14.037
   31SBC   C06T21186   3.035   0.898  14.129
   31SBC   C06U21187   2.992   0.802  14.236
   31SBC   C06X21188   3.045   0.679  14.279
   31SBC   C06021189   2.945   0.612  14.372
   31SBC   C05Z21190   2.974   0.555  14.501
   31SBC   C06821191   2.868   0.611  14.598
   31SBC   C06721192   2.848   0.586  14.742
   31SBC   C06921193   2.922   0.481  14.810
   31SBC   C06A21194   2.933   0.453  14.952
   31SBC   C07321195   2.901   0.527  15.066
   31SBC   C07P21196   2.996   0.534  15.170
   31SBC   C07O21197   3.133   0.493  15.161
   31SBC   H00D21198   3.177   0.440  15.078
   31SBC   C07N21199   3.225   0.500  15.269
   31SBC   H00E21200   3.324   0.461  15.250
   31SBC   C07M21201   3.183   0.566  15.385
   31SBC   H00F21202   3.258   0.571  15.463
   31SBC   C07L21203   3.051   0.622  15.397
   31SBC   C07Q21204   2.998   0.695  15.505
   31SBC   H00G21205   3.055   0.698  15.597
   31SBC   O00F21206   2.883   0.760  15.515
   31SBC   C07J21207   2.793   0.731  15.415
   31SBC   C07I21208   2.827   0.656  15.300
   31SBC   N00421209   2.741   0.653  15.188
   31SBC   C07R21210   2.607   0.710  15.204
   31SBC   C07T21211   2.587   0.792  15.317
   31SBC   C0FX21212   2.467   0.868  15.332
   31SBC   C0FW21213   2.442   0.961  15.431
   31SBC   C0G021214   2.540   0.968  15.534
   31SBC   C0G221215   2.509   1.054  15.642
   31SBC   H01E21216   2.581   1.069  15.721
   31SBC   C0G321217   2.387   1.118  15.655
   31SBC   H01C21218   2.372   1.194  15.730
   31SBC   C0G421219   2.306   1.117  15.543
   31SBC   H01D21220   2.220   1.182  15.552
   31SBC   O00E21221   2.661   0.893  15.528
   31SBC   C0FV21222   2.321   1.034  15.432
   31SBC   C0FU21223   2.230   1.017  15.326
   31SBC   H01B21224   2.145   1.082  15.322
   31SBC   C0FT21225   2.249   0.914  15.234
   31SBC   C0FS21226   2.197   0.888  15.098
   31SBC   C0BI21227   2.265   0.766  15.054
   31SBC   C0BH21228   2.266   0.768  14.909
   31SBC   C07F21229   2.384   0.765  14.833
   31SBC   C07E21230   2.509   0.709  14.859
   31SBC   C07G21231   2.557   0.668  14.979
   31SBC   C07421232   2.689   0.622  14.958
   31SBC   C06521233   2.614   0.714  14.771
   31SBC   C06421234   2.590   0.792  14.660
   31SBC   C06321235   2.684   0.807  14.552
   31SBC   C07521236   2.625   0.919  14.476
   31SBC   C0AM21237   2.491   0.965  14.523
   31SBC   C0AN21238   2.400   1.070  14.473
   31SBC   C0AO21239   2.419   1.177  14.373
   31SBC   C0B121240   2.323   1.279  14.349
   31SBC   C0B021241   2.199   1.277  14.408
   31SBC   C0AZ21242   2.098   1.374  14.399
   31SBC   C0AY21243   1.980   1.365  14.469
   31SBC   N00721244   1.878   1.457  14.457
   31SBC   C0E221245   1.755   1.443  14.522
   31SBC   C0E121246   1.662   1.541  14.505
   31SBC   C0E421247   1.545   1.544  14.580
   31SBC   C0FF21248   1.436   1.633  14.553
   31SBC   C0FJ21249   1.316   1.651  14.627
   31SBC   C0FK21250   1.326   1.649  14.772
   31SBC   H01621251   1.410   1.609  14.826
   31SBC   C0FL21252   1.237   1.749  14.817
   31SBC   H01721253   1.233   1.794  14.915
   31SBC   C0FM21254   1.164   1.802  14.705
   31SBC   C0FH21255   1.132   1.938  14.662
   31SBC   C0FI21256   1.174   1.941  14.528
   31SBC   C0F321257   1.216   2.064  14.471
   31SBC   C0F221258   1.306   2.052  14.370
   31SBC   C0DW21259   1.382   1.939  14.347
   31SBC   C0FE21260   1.354   1.823  14.412
   31SBC   C0DV21261   1.511   1.952  14.293
   31SBC   C0DX21262   1.605   1.850  14.306
   31SBC   C0DK21263   1.731   1.870  14.260
   31SBC   C0DJ21264   1.768   1.994  14.205
   31SBC   C0DI21265   1.893   2.011  14.154
   31SBC   C0DH21266   1.980   1.905  14.148
   31SBC   C0DG21267   1.948   1.784  14.212
   31SBC   C0BV21268   2.048   1.685  14.224
   31SBC   C0BC21269   2.029   1.580  14.311
   31SBC   C0BA21270   2.164   1.695  14.149
   31SBC   C0B421271   2.256   1.593  14.152
   31SBC   C0B321272   2.237   1.484  14.238
   31SBC   C0B521273   2.372   1.604  14.078
   31SBC   C0BU21274   2.382   1.713  13.989
   31SBC   C0BT21275   2.288   1.815  13.980
   31SBC   C0BS21276   2.306   1.923  13.894
   31SBC   C0CC21277   2.224   2.037  13.904
   31SBC   C0CB21278   2.245   2.154  13.834
   31SBC   C0CH21279   2.193   2.270  13.895
   31SBC   C0DO21280   2.083   2.268  13.980
   31SBC   C0DP21281   2.004   2.383  13.994
   31SBC   C0EA21282   2.044   2.516  13.942
   31SBC   H01221283   2.146   2.538  13.916
   31SBC   O00921284   1.960   2.623  13.943
   31SBC   C0EH21285   1.836   2.605  13.996
   31SBC   C0EG21286   1.739   2.707  13.992
   31SBC   C0EJ21287   1.742   2.840  13.934
   31SBC   H01021288   1.823   2.877  13.874
   31SBC   C0EK21289   1.628   2.919  13.991
   31SBC   H00Z21290   1.621   3.026  13.985
   31SBC   C0EL21291   1.553   2.821  14.067
   31SBC   C0EM21292   1.454   2.838  14.169
   31SBC   C0EW21293   1.378   2.956  14.199
   31SBC   H01321294   1.397   3.046  14.143
   31SBC   C0EX21295   1.279   2.964  14.310
   31SBC   H01421296   1.228   3.054  14.340
   31SBC   C0F121297   1.261   2.839  14.390
   31SBC   C0EU21298   1.331   2.723  14.348
   31SBC   C0ET21299   1.321   2.594  14.397
   31SBC   C0ES21300   1.415   2.513  14.330
   31SBC   C0EE21301   1.482   2.596  14.233
   31SBC   C0ED21302   1.585   2.582  14.140
   31SBC   C0EC21303   1.661   2.466  14.120
   31SBC   C0EB21304   1.622   2.336  14.159
   31SBC   C0EN21305   1.497   2.311  14.231
   31SBC   C0ER21306   1.462   2.179  14.245
   31SBC   C0DS21307   1.706   2.224  14.141
   31SBC   C0DR21308   1.835   2.242  14.089
   31SBC   C0EY21309   1.397   2.383  14.297
   31SBC   C0EZ21310   1.311   2.297  14.365
   31SBC   C0F521311   1.233   2.304  14.490
   31SBC   C0F621312   1.207   2.431  14.552
   31SBC   N00821313   1.138   2.419  14.677
   31SBC   C0F721314   1.104   2.291  14.739
   31SBC   C0FQ21315   1.043   2.297  14.866
   31SBC   H01821316   1.018   2.205  14.917
   31SBC   C0FP21317   1.026   2.413  14.938
   31SBC   H01921318   0.987   2.412  15.038
   31SBC   C0FO21319   1.051   2.534  14.869
   31SBC   H01A21320   1.017   2.625  14.916
   31SBC   C0F821321   1.137   2.176  14.668
   31SBC   C0F921322   1.097   2.533  14.736
   31SBC   C0FA21323   1.100   2.660  14.677
   31SBC   H01521324   1.066   2.750  14.724
   31SBC   C0FB21325   1.165   2.681  14.556
   31SBC   C0FD21326   1.228   2.566  14.502
   31SBC   C0FC21327   1.175   2.815  14.497
   31SBC   O00A21328   1.122   2.915  14.549
   31SBC   C0EV21329   1.424   2.722  14.245
   31SBC   C0EF21330   1.622   2.696  14.062
   31SBC   C0EI21331   1.792   2.480  14.055
   31SBC   C0DQ21332   1.875   2.369  14.046
   31SBC   C0CE21333   2.040   2.143  14.027
   31SBC   H00U21334   2.235   2.361  13.854
   31SBC   C0CA21335   2.306   2.134  13.703
   31SBC   C0C921336   2.390   2.009  13.687
   31SBC   C0C821337   2.425   1.974  13.549
   31SBC   C0C721338   2.530   1.884  13.499
   31SBC   C0C621339   2.526   1.862  13.364
   31SBC   C0C521340   2.625   1.824  13.262
   31SBC   C0CQ21341   2.593   1.880  13.136
   31SBC   C0D121342   2.500   1.978  13.120
   31SBC   C0D821343   2.546   2.071  13.031
   31SBC   C0D721344   2.644   2.002  12.961
   31SBC   C0D621345   2.708   2.048  12.838
   31SBC   C0D521346   2.790   1.968  12.755
   31SBC   C0D421347   2.860   1.849  12.786
   31SBC   C0D321348   2.980   1.848  12.717
   31SBC   C0CX21349   3.077   1.771  12.789
   31SBC   C0CW21350   3.015   1.733  12.920
   31SBC   C0CV21351   3.043   1.659  13.046
   31SBC   C0D221352   3.153   1.569  13.049
   31SBC   C09D21353   3.248   1.540  12.949
   31SBC   C09C21354   3.371   1.466  12.973
   31SBC   C09B21355   3.479   1.443  12.887
   31SBC   C09A21356   3.466   1.504  12.765
   31SBC   C09921357   3.364   1.579  12.738
   31SBC   C09821358   3.367   1.622  12.608
   31SBC   C08Y21359   3.464   1.538  12.539
   31SBC   C08X21360   3.480   1.515  12.402
   31SBC   C08W21361   3.401   1.593  12.307
   31SBC   C08U21362   3.288   1.681  12.336
   31SBC   C08V21363   3.213   1.724  12.447
   31SBC   C0DC21364   3.095   1.794  12.401
   31SBC   H00W21365   3.012   1.826  12.462
   31SBC   C0DB21366   3.119   1.827  12.262
   31SBC   H00X21367   3.051   1.889  12.206
   31SBC   C08T21368   3.231   1.751  12.227
   31SBC   C08S21369   3.276   1.740  12.093
   31SBC   H00N21370   3.241   1.817  12.026
   31SBC   C08R21371   3.363   1.639  12.059
   31SBC   C08Q21372   3.397   1.604  11.927
   31SBC   H00O21373   3.368   1.675  11.851
   31SBC   C08P21374   3.453   1.476  11.892
   31SBC   C08O21375   3.458   1.413  11.761
   31SBC   H00P21376   3.416   1.469  11.679
   31SBC   C08N21377   3.501   1.282  11.735
   31SBC   C08M21378   3.496   1.232  11.599
   31SBC   O00821379   3.465   1.295  11.497
   31SBC   O00721380   3.527   1.106  11.588
   31SBC   C08H21381   3.578   1.028  11.689
   31SBC   C08G21382   3.602   0.886  11.672
   31SBC   C03V21383   3.580   0.805  11.558
   31SBC   H00921384   3.532   0.843  11.469
   31SBC   C03U21385   3.620   0.672  11.552
   31SBC   C03W21386   3.619   0.592  11.437
   31SBC   H00A21387   3.581   0.627  11.342
   31SBC   C03X21388   3.657   0.466  11.445
   31SBC   H00B21389   3.658   0.403  11.357
   31SBC   O00521390   3.713   0.405  11.554
   31SBC   C03O21391   3.716   0.481  11.665
   31SBC   C03N21392   3.766   0.423  11.782
   31SBC   O00021393   3.805   0.295  11.767
   31SBC   C01921394   3.861   0.232  11.874
   31SBC   C01821395   3.878   0.301  11.997
   31SBC   C01721396   3.847   0.436  12.008
   31SBC   C01621397   3.866   0.504  12.133
   31SBC   C01521398   3.920   0.429  12.237
   31SBC   C01421399   3.940   0.492  12.364
   31SBC   C01321400   3.905   0.629  12.387
   31SBC   C01221401   3.928   0.641  12.529
   31SBC   C01121402   3.985   0.521  12.570
   31SBC   C01021403   4.031   0.505  12.693
   31SBC   C00Z21404   4.074   0.390  12.751
   31SBC   C00Y21405   4.069   0.421  12.886
   31SBC   C01O21406   4.027   0.547  12.915
   31SBC   C01P21407   3.952   0.586  13.027
   31SBC   C02L21408   3.877   0.697  13.016
   31SBC   C02K21409   3.872   0.759  12.890
   31SBC   C01M21410   3.925   0.708  12.766
   31SBC   C02J21411   3.817   0.888  12.901
   31SBC   C02I21412   3.816   0.986  12.799
   31SBC   C02H21413   3.845   0.980  12.660
   31SBC   C01Q21414   3.872   0.872  12.581
   31SBC   C02G21415   3.860   0.915  12.444
   31SBC   C08921416   3.845   1.049  12.446
   31SBC   C08821417   3.772   1.088  12.327
   31SBC   C08721418   3.779   0.966  12.238
   31SBC   C08621419   3.731   0.952  12.103
   31SBC   C03S21420   3.728   0.838  12.019
   31SBC   N00621421   3.675   0.882  11.897
   31SBC   C08F21422   3.643   1.013  11.914
   31SBC   C01J21423   3.770   0.702  12.028
   31SBC   C03R21424   3.746   0.628  11.906
   31SBC   C03Q21425   3.695   0.686  11.789
   31SBC   C08E21426   3.668   1.060  12.038
   31SBC   C08D21427   3.624   1.198  12.076
   31SBC   C08K21428   3.556   1.269  11.970
   31SBC   C08C21429   3.631   1.265  12.203
   31SBC   C09121430   3.573   1.384  12.226
   31SBC   C09221431   3.508   1.453  12.124
   31SBC   C08B21432   3.700   1.219  12.319
   31SBC   C09021433   3.656   1.315  12.421
   31SBC   C09421434   3.700   1.314  12.562
   31SBC   C09521435   3.628   1.378  12.659
   31SBC   C09R21436   3.651   1.317  12.780
   31SBC   C09721437   3.732   1.208  12.764
   31SBC   C09621438   3.759   1.203  12.628
   31SBC   C01I21439   3.830   0.853  12.311
   31SBC   C08A21440   3.824   1.092  12.575
   31SBC   C09L21441   3.761   1.102  12.853
   31SBC   C09K21442   3.726   1.076  12.989
   31SBC   C09J21443   3.651   1.158  13.070
   31SBC   C09I21444   3.584   1.116  13.187
   31SBC   C09O21445   3.593   1.012  13.282
   31SBC   C09N21446   3.675   0.897  13.263
   31SBC   C09M21447   3.749   0.862  13.144
   31SBC   C06O21448   3.674   0.805  13.372
   31SBC   C05M21449   3.593   0.824  13.484
   31SBC   C06P21450   3.510   0.933  13.498
   31SBC   C04221451   3.589   0.734  13.595
   31SBC   C04121452   3.671   0.614  13.590
   31SBC   C04021453   3.658   0.517  13.687
   31SBC   C03Z21454   3.719   0.393  13.672
   31SBC   C03Y21455   3.793   0.367  13.555
   31SBC   C02721456   3.848   0.241  13.540
   31SBC   C02621457   3.907   0.209  13.419
   31SBC   C02821458   3.950   0.078  13.391
   31SBC   C02921459   3.930  -0.019  13.486
   31SBC   C02B21460   3.956  -0.151  13.452
   31SBC   C02C21461   3.927  -0.256  13.539
   31SBC   C02X21462   3.955  -0.384  13.505
   31SBC   C03E21463   3.915  -0.483  13.590
   31SBC   C03G21464   3.835  -0.466  13.700
   31SBC   C04Q21465   3.817  -0.332  13.742
   31SBC   C04R21466   3.745  -0.304  13.849
   31SBC   C04S21467   3.722  -0.174  13.887
   31SBC   C04L21468   3.767  -0.068  13.811
   31SBC   C04M21469   3.836  -0.098  13.691
   31SBC   C04K21470   3.739   0.062  13.843
   31SBC   C04F21471   3.663   0.091  13.955
   31SBC   C04E21472   3.620  -0.017  14.034
   31SBC   C04D21473   3.548   0.007  14.150
   31SBC   C05021474   3.507  -0.091  14.234
   31SBC   C05121475   3.431  -0.066  14.347
   31SBC   C05Q21476   3.393  -0.173  14.430
   31SBC   C05V21477   3.314  -0.146  14.540
   31SBC   N00521478   3.284  -0.248  14.631
   31SBC   C07V21479   3.316  -0.380  14.601
   31SBC   C08221480   3.280  -0.483  14.686
   31SBC   C08121481   3.224  -0.464  14.813
   31SBC   C07C21482   3.194  -0.330  14.846
   31SBC   C07B21483   3.133  -0.297  14.971
   31SBC   C08021484   3.112  -0.398  15.067
   31SBC   C07Z21485   3.049  -0.363  15.181
   31SBC   H00L21486   3.016  -0.441  15.247
   31SBC   C07921487   3.008  -0.232  15.214
   31SBC   C07821488   3.032  -0.131  15.120
   31SBC   C07721489   2.994  -0.005  15.146
   31SBC   C07X21490   2.923   0.028  15.263
   31SBC   H00I21491   2.884   0.125  15.290
   31SBC   C07Y21492   2.887  -0.070  15.358
   31SBC   H00H21493   2.825  -0.047  15.443
   31SBC   C07621494   3.011   0.091  15.046
   31SBC   C06C21495   2.977   0.226  15.070
   31SBC   H00C21496   2.945   0.268  15.164
   31SBC   C06F21497   3.061   0.054  14.919
   31SBC   C06E21498   3.068   0.148  14.816
   31SBC   C06G21499   3.124   0.129  14.693
   31SBC   C06H21500   3.186   0.008  14.682
   31SBC   C06I21501   3.165  -0.098  14.775
   31SBC   C06L21502   3.140   0.233  14.599
   31SBC   C06M21503   3.066   0.354  14.612
   31SBC   C06K21504   3.234   0.210  14.497
   31SBC   C05S21505   3.288   0.082  14.478
   31SBC   C05U21506   3.262   0.313  14.403
   31SBC   C05X21507   3.186   0.436  14.410
   31SBC   C05G21508   3.236   0.531  14.310
   31SBC   C05F21509   3.341   0.505  14.223
   31SBC   C05E21510   3.348   0.603  14.126
   31SBC   C04821511   3.431   0.583  14.015
   31SBC   C05621512   3.432   0.680  13.923
   31SBC   C04521513   3.511   0.659  13.810
   31SBC   C04721514   3.502   0.465  14.011
   31SBC   C04921515   3.482   0.367  14.105
   31SBC   C04B21516   3.534   0.241  14.085
   31SBC   C04621517   3.574   0.440  13.898
   31SBC   C04H21518   3.639   0.317  13.885
   31SBC   C05D21519   3.257   0.700  14.146
   31SBC   C04A21520   3.398   0.386  14.211
   31SBC   C05T21521   3.358   0.287  14.299
   31SBC   C05521522   3.410   0.162  14.281
   31SBC   C06D21523   3.020   0.272  14.836
   31SBC   C07W21524   3.107  -0.074  14.897
   31SBC   C08521525   2.938  -0.200  15.335
   31SBC   H00M21526   2.910  -0.278  15.405
   31SBC   C08421527   3.152  -0.529  15.034
   31SBC   H00J21528   3.134  -0.610  15.103
   31SBC   C07A21529   3.092  -0.168  14.996
   31SBC   C08321530   3.212  -0.565  14.912
   31SBC   H00K21531   3.246  -0.666  14.897
   31SBC   O00K21532   3.322  -0.608  14.661
   31SBC   C0GO21533   3.385  -0.635  14.543
   31SBC   C0GN21534   3.419  -0.764  14.516
   31SBC   H01L21535   3.394  -0.847  14.581
   31SBC   C0GM21536   3.497  -0.798  14.405
   31SBC   C0GL21537   3.553  -0.921  14.393
   31SBC   H01M21538   3.534  -0.993  14.471
   31SBC   O00J21539   3.628  -0.961  14.282
   31SBC   C0GK21540   3.649  -0.860  14.187
   31SBC   H01N21541   3.712  -0.893  14.105
   31SBC   C05K21542   3.596  -0.730  14.196
   31SBC   C05J21543   3.623  -0.633  14.092
   31SBC   C04Y21544   3.672  -0.657  13.961
   31SBC   C04X21545   3.711  -0.550  13.878
   31SBC   O00621546   3.683  -0.780  13.914
   31SBC   C05321547   3.717  -0.805  13.787
   31SBC   C04O21548   3.792  -0.706  13.716
   31SBC   C03C21549   3.864  -0.724  13.596
   31SBC   C03B21550   3.870  -0.829  13.495
   31SBC   C05421551   3.783  -0.939  13.494
   31SBC   C0GR21552   3.799  -1.045  13.401
   31SBC   C03M21553   3.868  -1.060  13.273
   31SBC   C03I21554   3.929  -0.951  13.197
   31SBC   C03J21555   3.964  -0.981  13.059
   31SBC   N00221556   4.006  -0.881  12.964
   31SBC   C02U21557   4.022  -0.899  12.827
   31SBC   C02T21558   4.056  -0.797  12.744
   31SBC   C02Z21559   4.047  -0.817  12.607
   31SBC   N00121560   4.086  -0.711  12.514
   31SBC   C02R21561   4.087  -0.740  12.370
   31SBC   C03221562   4.042  -0.866  12.323
   31SBC   C03121563   4.002  -0.961  12.417
   31SBC   H00721564   3.969  -1.059  12.387
   31SBC   C03321565   4.054  -0.882  12.176
   31SBC   H00321566   4.012  -0.969  12.128
   31SBC   O00421567   4.114  -0.784  12.097
   31SBC   C03421568   4.141  -0.661  12.149
   31SBC   C03521569   4.180  -0.563  12.055
   31SBC   C03621570   4.224  -0.434  12.104
   31SBC   H00521571   4.261  -0.363  12.031
   31SBC   C03721572   4.215  -0.404  12.241
   31SBC   H00621573   4.255  -0.308  12.273
   31SBC   C00D21574   4.164  -0.504  12.335
   31SBC   C00C21575   4.154  -0.476  12.475
   31SBC   C00B21576   4.170  -0.343  12.534
   31SBC   C00A21577   4.184  -0.204  12.495
   31SBC   C00921578   4.197  -0.137  12.621
   31SBC   C00821579   4.163  -0.003  12.650
   31SBC   C00721580   4.114   0.074  12.544
   31SBC   C00621581   4.078   0.208  12.571
   31SBC   C00521582   4.033   0.284  12.463
   31SBC   C00421583   4.013   0.225  12.335
   31SBC   C00321584   4.035   0.087  12.318
   31SBC   C00221585   3.999   0.018  12.203
   31SBC   C01C21586   3.960   0.099  12.094
   31SBC   C01B21587   3.946   0.029  11.974
   31SBC   H00021588   3.970  -0.075  11.955
   31SBC   C00121589   3.983  -0.116  12.207
   31SBC   C00021590   4.019  -0.183  12.320
   31SBC   C01U21591   3.931  -0.298  12.318
   31SBC   H00221592   3.905  -0.374  12.390
   31SBC   C01T21593   3.882  -0.313  12.180
   31SBC   O00221594   3.820  -0.409  12.130
   31SBC   O00121595   3.907  -0.193  12.123
   31SBC   C01S21596   4.087   0.014  12.426
   31SBC   C00N21597   4.151   0.034  12.783
   31SBC   C00M21598   4.142  -0.055  12.885
   31SBC   C00J21599   4.159  -0.184  12.856
   31SBC   C00I21600   4.124  -0.288  12.937
   31SBC   C00H21601   4.121  -0.417  12.891
   31SBC   C00G21602   4.142  -0.452  12.759
   31SBC   C00F21603   4.115  -0.571  12.706
   31SBC   C01X21604   4.086  -0.518  12.979
   31SBC   C01W21605   4.056  -0.483  13.109
   31SBC   C01V21606   4.059  -0.353  13.154
   31SBC   C02021607   4.024  -0.314  13.287
   31SBC   C01Z21608   4.031  -0.587  13.198
   31SBC   C02Y21609   4.008  -0.545  13.322
   31SBC   C03921610   3.977  -0.648  13.408
   31SBC   C02W21611   4.017  -0.722  13.155
   31SBC   C01Y21612   4.070  -0.648  12.930
   31SBC   C00U21613   4.087  -0.248  13.066
   31SBC   C00S21614   4.065  -0.117  13.104
   31SBC   C00T21615   4.023  -0.088  13.231
   31SBC   C00R21616   4.104  -0.019  13.014
   31SBC   C00Q21617   4.080   0.110  13.049
   31SBC   C00V21618   4.030   0.141  13.176
   31SBC   C02421619   3.992   0.272  13.202
   31SBC   C00X21620   3.998   0.366  13.107
   31SBC   C00P21621   4.089   0.203  12.944
   31SBC   C00O21622   4.115   0.163  12.812
   31SBC   C00K21623   4.193  -0.225  12.728
   31SBC   N00021624   4.094  -0.128  12.418
   31SBC   C00L21625   4.177  -0.349  12.674
   31SBC   H00421626   4.175  -0.587  11.950
   31SBC   C02Q21627   4.126  -0.632  12.284
   31SBC   C00E21628   4.123  -0.585  12.565
   31SBC   C03021629   4.005  -0.943  12.557
   31SBC   O00321630   4.004  -1.053  12.638
   31SBC   C02S21631   4.081  -0.672  12.793
   31SBC   C03821632   3.998  -1.029  12.777
   31SBC   C03L21633   3.955  -1.126  12.867
   31SBC   H00821634   3.932  -1.222  12.823
   31SBC   C02V21635   4.033  -0.750  13.017
   31SBC   C03K21636   3.937  -1.108  13.001
   31SBC   C0BK21637   3.895  -1.206  13.085
   31SBC   H00T21638   3.868  -1.302  13.043
   31SBC   C03H21639   3.959  -0.820  13.240
   31SBC   C0BL21640   3.862  -1.189  13.218
   31SBC   C0GU21641   3.800  -1.298  13.287
   31SBC   H01O21642   3.800  -1.393  13.236
   31SBC   C0GT21643   3.732  -1.282  13.406
   31SBC   H01P21644   3.674  -1.360  13.452
   31SBC   C0GS21645   3.735  -1.157  13.460
   31SBC   C0GV21646   3.674  -1.121  13.585
   31SBC   C0GW21647   3.610  -1.208  13.681
   31SBC   H01Q21648   3.587  -1.312  13.663
   31SBC   C0GX21649   3.582  -1.152  13.803
   31SBC   H01R21650   3.525  -1.201  13.880
   31SBC   O00L21651   3.626  -1.018  13.834
   31SBC   C0GQ21652   3.712  -0.991  13.611
   31SBC   C03A21653   3.935  -0.779  13.376
   31SBC   C05L21654   3.688  -0.938  13.742
   31SBC   C04W21655   3.598  -0.499  14.127
   31SBC   C05I21656   3.529  -0.462  14.247
   31SBC   C05O21657   3.497  -0.559  14.338
   31SBC   C05221658   3.499  -0.329  14.281
   31SBC   C04V21659   3.625  -0.389  14.044
   31SBC   C04U21660   3.612  -0.254  14.084
   31SBC   N00921661   3.531  -0.692  14.315
   31SBC   C0GP21662   3.424  -0.534  14.458
   31SBC   C05W21663   3.385  -0.405  14.485
   31SBC   C07D21664   3.217  -0.225  14.754
   31SBC   C06J21665   3.261  -0.021  14.567
   31SBC   C05P21666   3.429  -0.303  14.400
   31SBC   C05R21667   3.377   0.059  14.372
   31SBC   C04Z21668   3.539  -0.222  14.200
   31SBC   C04C21669   3.501   0.138  14.173
   31SBC   C04G21670   3.612   0.212  13.976
   31SBC   C04J21671   3.769   0.166  13.748
   31SBC   C04T21672   3.650  -0.146  14.002
   31SBC   N00321673   3.696  -0.413  13.923
   31SBC   C04P21674   3.786  -0.576  13.766
   31SBC   C03D21675   3.933  -0.617  13.537
   31SBC   C02121676   3.993  -0.412  13.376
   31SBC   C03F21677   3.865  -0.231  13.660
   31SBC   C02221678   4.003  -0.186  13.323
   31SBC   C02A21679   3.864   0.008  13.606
   31SBC   C02321680   4.000   0.041  13.268
   31SBC   C02521681   3.927   0.307  13.321
   31SBC   C02D21682   3.877   0.436  13.341
   31SBC   C02E21683   3.876   0.529  13.238
   31SBC   C02N21684   3.809   0.650  13.250
   31SBC   C04N21685   3.832   0.141  13.632
   31SBC   C02P21686   3.805   0.469  13.456
   31SBC   C04I21687   3.716   0.295  13.771
   31SBC   C04421688   3.582   0.539  13.799
   31SBC   C04321689   3.740   0.588  13.469
   31SBC   C05N21690   3.743   0.682  13.368
   31SBC   C09U21691   3.505   1.027  13.396
   31SBC   C09V21692   3.415   1.137  13.408
   31SBC   C09X21693   3.401   1.234  13.310
   31SBC   C09Y21694   3.301   1.333  13.301
   31SBC   C0A121695   3.215   1.346  13.405
   31SBC   C0A221696   3.232   1.256  13.512
   31SBC   C0A421697   3.143   1.267  13.617
   31SBC   C07121698   3.157   1.178  13.726
   31SBC   C0A521699   3.074   1.196  13.832
   31SBC   C0A921700   2.977   1.294  13.829
   31SBC   C0A821701   2.969   1.383  13.724
   31SBC   C0AP21702   2.884   1.497  13.736
   31SBC   C0BY21703   2.880   1.577  13.622
   31SBC   C0BX21704   2.945   1.560  13.506
   31SBC   C0C221705   2.913   1.631  13.392
   31SBC   C0C321706   2.989   1.604  13.278
   31SBC   C0CT21707   3.093   1.514  13.285
   31SBC   C0C121708   2.805   1.714  13.393
   31SBC   C0C021709   2.750   1.754  13.522
   31SBC   C0A721710   3.038   1.459  13.509
   31SBC   C0BZ21711   2.790   1.683  13.632
   31SBC   C0BO21712   2.710   1.705  13.745
   31SBC   C0BN21713   2.702   1.611  13.846
   31SBC   C0BM21714   2.593   1.616  13.925
   31SBC   C0B921715   2.575   1.509  14.014
   31SBC   C0B821716   2.676   1.411  14.018
   31SBC   C0AD21717   2.780   1.402  13.926
   31SBC   C0AF21718   2.662   1.308  14.112
   31SBC   C0AG21719   2.550   1.302  14.197
   31SBC   C0B721720   2.452   1.398  14.180
   31SBC   C0AE21721   2.760   1.214  14.108
   31SBC   C0AB21722   2.871   1.212  14.025
   31SBC   C0AA21723   2.967   1.107  14.028
   31SBC   C0AJ21724   2.748   1.119  14.206
   31SBC   C0AK21725   2.837   1.016  14.207
   31SBC   C06W21726   2.798   0.925  14.295
   31SBC   C0AI21727   2.644   1.094  14.294
   31SBC   C0BP21728   2.613   1.800  13.713
   31SBC   C0BQ21729   2.497   1.809  13.803
   31SBC   C0BW21730   2.790   1.504  13.838
   31SBC   C0AC21731   2.880   1.305  13.929
   31SBC   C0A621732   3.052   1.372  13.616
   31SBC   C0A321733   3.114   1.441  13.398
   31SBC   C09Z21734   3.284   1.411  13.186
   31SBC   C09W21735   3.325   1.149  13.513
   31SBC   C07221736   3.338   1.061  13.615
   31SBC   C09H21737   3.498   1.228  13.213
   31SBC   C09G21738   3.488   1.317  13.115
   31SBC   C09P21739   3.582   1.274  13.025
   31SBC   C02O21740   3.760   0.943  13.021
   31SBC   C02M21741   3.815   0.738  13.137
   31SBC   C02F21742   3.945   0.494  13.127
   31SBC   C00W21743   4.047   0.328  12.979
   31SBC   C01R21744   4.096   0.252  12.705
   31SBC   C01N21745   4.002   0.596  12.789
   31SBC   C01L21746   3.904   0.744  12.625
   31SBC   C01H21747   3.850   0.715  12.276
   31SBC   C01K21748   3.994   0.425  12.471
   31SBC   C01E21749   3.953   0.295  12.226
   31SBC   C01G21750   3.830   0.644  12.146
   31SBC   C01D21751   3.936   0.232  12.105
   31SBC   C01A21752   3.896   0.096  11.863
   31SBC   H00121753   3.888   0.034  11.775
   31SBC   C01F21754   3.783   0.497  11.900
   31SBC   C03P21755   3.677   0.615  11.669
   31SBC   C03T21756   3.662   0.815  11.780
   31SBC   C08I21757   3.595   1.087  11.815
   31SBC   C08J21758   3.548   1.216  11.844
   31SBC   C08L21759   3.506   1.398  11.995
   31SBC   C09321760   3.424   1.560  12.164
   31SBC   C08Z21761   3.567   1.413  12.358
   31SBC   C09T21762   3.238   1.676  12.580
   31SBC   C09S21763   3.536   1.475  12.647
   31SBC   C09Q21764   3.577   1.343  12.898
   31SBC   C09F21765   3.381   1.406  13.093
   31SBC   C09E21766   3.252   1.599  12.815
   31SBC   C0A021767   3.175   1.496  13.170
   31SBC   C0CU21768   2.956   1.671  13.158
   31SBC   C0CR21769   2.841   1.752  13.156
   31SBC   C0CZ21770   2.810   1.821  13.035
   31SBC   C0DA21771   3.178   1.690  12.725
   31SBC   C0D921772   2.998   1.979  12.651
   31SBC   H00V21773   3.090   2.021  12.613
   31SBC   C0CY21774   2.891   1.801  12.918
   31SBC   C0DF21775   2.873   2.050  12.677
   31SBC   C0DE21776   2.813   2.179  12.686
   31SBC   C0GI21777   2.817   2.294  12.599
   31SBC   H01K21778   2.877   2.303  12.510
   31SBC   C0GJ21779   2.739   2.395  12.637
   31SBC   H01J21780   2.746   2.473  12.563
   31SBC   O00I21781   2.671   2.408  12.758
   31SBC   C0GH21782   2.652   2.296  12.833
   31SBC   C0GG21783   2.563   2.312  12.946
   31SBC   O00G21784   2.514   2.440  12.964
   31SBC   C0G821785   2.432   2.481  13.067
   31SBC   C0G921786   2.375   2.606  13.051
   31SBC   H01G21787   2.409   2.662  12.965
   31SBC   C0GA21788   2.276   2.647  13.143
   31SBC   H01H21789   2.221   2.738  13.125
   31SBC   C0GB21790   2.251   2.571  13.263
   31SBC   C0EP21791   2.316   2.440  13.277
   31SBC   C0E821792   2.296   2.374  13.403
   31SBC   C0CK21793   2.340   2.255  13.470
   31SBC   C0CL21794   2.363   2.144  13.382
   31SBC   C0E921795   2.402   2.144  13.246
   31SBC   C0GE21796   2.431   2.250  13.147
   31SBC   C0E721797   2.195   2.420  13.488
   31SBC   C0CJ21798   2.165   2.333  13.593
   31SBC   C0E621799   2.049   2.355  13.661
   31SBC   H00Y21800   2.013   2.282  13.733
   31SBC   C0EO21801   1.983   2.479  13.648
   31SBC   H01121802   1.901   2.497  13.715
   31SBC   C0G621803   2.031   2.577  13.552
   31SBC   C0G521804   1.988   2.711  13.543
   31SBC   H01F21805   1.924   2.742  13.624
   31SBC   C0GD21806   2.020   2.793  13.443
   31SBC   H01I21807   1.981   2.894  13.437
   31SBC   O00H21808   2.110   2.750  13.345
   31SBC   C0EQ21809   2.133   2.542  13.465
   31SBC   C0GC21810   2.167   2.627  13.363
   31SBC   C0G721811   2.390   2.386  13.167
   31SBC   C0DD21812   2.714   2.181  12.795
   31SBC   C0GF21813   2.509   2.209  13.029
   31SBC   C0CO21814   2.415   2.013  13.218
   31SBC   C0D021815   2.688   1.896  13.038
   31SBC   C0C421816   2.758   1.770  13.274
   31SBC   C0CN21817   2.404   1.924  13.325
   31SBC   C0CP21818   2.640   1.836  13.577
   31SBC   C0CM21819   2.353   2.007  13.432
   31SBC   C0CI21820   2.275   2.237  13.601
   31SBC   C0CD21821   2.121   2.034  14.000
   31SBC   C0BR21822   2.404   1.916  13.794
   31SBC   C0CS21823   2.495   1.717  13.910
   31SBC   C0B621824   2.469   1.506  14.096
   31SBC   C0CG21825   2.187   1.810  14.071
   31SBC   C0CF21826   2.097   1.919  14.073
   31SBC   C0E521827   1.924   2.135  14.092
   31SBC   C0DT21828   1.678   2.096  14.190
   31SBC   C0DL21829   1.831   1.773  14.280
   31SBC   C0DM21830   1.803   1.661  14.356
   31SBC   C0DY21831   1.578   1.737  14.385
   31SBC   C0DU21832   1.550   2.071  14.236
   31SBC   C0F021833   1.350   2.171  14.314
   31SBC   C0F421834   1.198   2.183  14.543
   31SBC   C0FG21835   1.231   1.818  14.488
   31SBC   O00B21836   1.116   2.055  14.730
   31SBC   C0FN21837   1.211   1.733  14.595
   31SBC   C0DZ21838   1.451   1.724  14.446
   31SBC   O00C21839   1.527   1.440  14.666
   31SBC   C0FR21840   1.608   1.331  14.680
   31SBC   O00D21841   1.571   1.241  14.750
   31SBC   C0E021842   1.680   1.646  14.416
   31SBC   C0E321843   1.736   1.339  14.611
   31SBC   C0AW21844   1.843   1.248  14.634
   31SBC   C0AV21845   1.833   1.131  14.722
   31SBC   H00Q21846   1.754   1.110  14.793
   31SBC   C0AU21847   1.942   1.044  14.738
   31SBC   H00R21848   1.943   0.958  14.804
   31SBC   C0AT21849   2.065   1.067  14.662
   31SBC   C0AS21850   2.200   1.017  14.646
   31SBC   C0AR21851   2.249   0.928  14.747
   31SBC   C0BE21852   2.056   1.164  14.566
   31SBC   C0DN21853   1.906   1.571  14.378
   31SBC   C0AX21854   1.952   1.259  14.549
   31SBC   C0BB21855   2.125   1.481  14.322
   31SBC   C0BD21856   2.178   1.180  14.503
   31SBC   C0B221857   2.336   1.385  14.253
   31SBC   C0AH21858   2.534   1.194  14.291
   31SBC   C0BF21859   2.272   1.083  14.536
   31SBC   C0AL21860   2.683   0.973  14.360
   31SBC   C07U21861   2.477   0.875  14.640
   31SBC   C0AQ21862   2.376   0.859  14.727
   31SBC   C0BG21863   2.182   0.875  14.866
   31SBC   C0FY21864   2.378   0.743  15.140
   31SBC   C0BJ21865   2.141   0.958  14.983
   31SBC   H00S21866   2.094   1.056  14.985
   31SBC   C0FZ21867   2.365   0.839  15.241
   31SBC   C07S21868   2.509   0.695  15.109
   31SBC   C0G121869   2.680   0.807  15.421
   31SBC   C07K21870   2.960   0.604  15.288
   31SBC   C07H21871   2.778   0.591  15.063
   31SBC   C06B21872   2.981   0.316  14.963
   31SBC   C06N21873   3.001   0.372  14.742
   31SBC   C06621874   2.728   0.634  14.817
   31SBC   C06221875   2.798   0.715  14.520
   31SBC   C05Y21876   3.078   0.452  14.510
   31SBC   C06121877   2.845   0.705  14.388
   31SBC   C05H21878   3.182   0.659  14.262
   31SBC   C06V21879   2.871   0.814  14.308
   31SBC   C06Y21880   2.950   1.008  14.122
   31SBC   C05C21881   3.246   0.793  14.034
   31SBC   C06Z21882   3.069   1.101  13.934
   31SBC   C07021883   3.248   1.073  13.719
   31SBC   C05B21884   3.343   0.787  13.928
   31SBC   C05721885   3.515   0.757  13.709
   31SBC   C05921886   3.427   0.958  13.614
   32SBC   C05821887   2.367   4.103  12.722
   32SBC   C05A21888   2.385   3.985  12.794
   32SBC   C06Q21889   2.473   3.887  12.748
   32SBC   C06R21890   2.502   3.773  12.826
   32SBC   C06S21891   2.453   3.757  12.959
   32SBC   C06T21892   2.497   3.643  13.034
   32SBC   C06U21893   2.465   3.607  13.176
   32SBC   C06X21894   2.403   3.677  13.284
   32SBC   C06021895   2.389   3.589  13.399
   32SBC   C05Z21896   2.411   3.617  13.541
   32SBC   C06821897   2.470   3.487  13.593
   32SBC   C06721898   2.475   3.435  13.728
   32SBC   C06921899   2.410   3.508  13.840
   32SBC   C06A21900   2.354   3.446  13.963
   32SBC   C07321901   2.337   3.310  14.015
   32SBC   C07P21902   2.221   3.285  14.094
   32SBC   C07O21903   2.094   3.351  14.094
   32SBC   H00D21904   2.070   3.415  14.011
   32SBC   C07N21905   1.994   3.333  14.191
   32SBC   H00E21906   1.897   3.381  14.185
   32SBC   C07M21907   2.023   3.239  14.283
   32SBC   H00F21908   1.960   3.214  14.367
   32SBC   C07L21909   2.138   3.160  14.284
   32SBC   C07Q21910   2.161   3.064  14.386
   32SBC   H00G21911   2.089   3.058  14.467
   32SBC   O00F21912   2.270   2.980  14.386
   32SBC   C07J21913   2.364   2.999  14.286
   32SBC   C07I21914   2.351   3.105  14.189
   32SBC   N00421915   2.458   3.125  14.096
   32SBC   C07R21916   2.570   3.042  14.102
   32SBC   C07T21917   2.570   2.934  14.200
   32SBC   C0FX21918   2.670   2.838  14.202
   32SBC   C0FW21919   2.668   2.716  14.266
   32SBC   C0G021920   2.562   2.704  14.355
   32SBC   C0G221921   2.557   2.598  14.443
   32SBC   H01E21922   2.469   2.595  14.505
   32SBC   C0G321923   2.652   2.493  14.438
   32SBC   H01C21924   2.649   2.407  14.503
   32SBC   C0G421925   2.752   2.496  14.336
   32SBC   H01D21926   2.826   2.417  14.337
   32SBC   O00E21927   2.469   2.808  14.373
   32SBC   C0FV21928   2.763   2.608  14.247
   32SBC   C0FU21929   2.862   2.630  14.145
   32SBC   H01B21930   2.939   2.563  14.109
   32SBC   C0FT21931   2.863   2.753  14.077
   32SBC   C0FS21932   2.935   2.804  13.961
   32SBC   C0BI21933   2.907   2.951  13.955
   32SBC   C0BH21934   2.915   2.990  13.815
   32SBC   C07F21935   2.818   3.062  13.744
   32SBC   C07E21936   2.718   3.155  13.792
   32SBC   C07G21937   2.659   3.157  13.915
   32SBC   C07421938   2.549   3.239  13.899
   32SBC   C06521939   2.643   3.228  13.704
   32SBC   C06421940   2.674   3.218  13.567
   32SBC   C06321941   2.613   3.289  13.460
   32SBC   C07521942   2.689   3.233  13.337
   32SBC   C0AM21943   2.777   3.121  13.372
   32SBC   C0AN21944   2.861   3.040  13.288
   32SBC   C0AO21945   2.910   3.061  13.144
   32SBC   C0B121946   3.001   2.976  13.081
   32SBC   C0B021947   3.048   2.863  13.144
   32SBC   C0AZ21948   3.140   2.765  13.092
   32SBC   C0AY21949   3.179   2.658  13.170
   32SBC   N00721950   3.263   2.560  13.116
   32SBC   C0E221951   3.319   2.457  13.196
   32SBC   C0E121952   3.406   2.370  13.146
   32SBC   C0E421953   3.460   2.274  13.231
   32SBC   C0FF21954   3.562   2.184  13.189
   32SBC   C0FJ21955   3.654   2.093  13.253
   32SBC   C0FK21956   3.707   2.081  13.386
   32SBC   H01621957   3.661   2.138  13.465
   32SBC   C0FL21958   3.829   1.994  13.374
   32SBC   H01721959   3.903   1.974  13.450
   32SBC   C0FM21960   3.847   1.952  13.234
   32SBC   C0FH21961   3.928   1.900  13.122
   32SBC   C0FI21962   3.843   1.935  13.013
   32SBC   C0F321963   3.905   1.964  12.893
   32SBC   C0F221964   3.824   2.042  12.811
   32SBC   C0DW21965   3.712   2.109  12.856
   32SBC   C0FE21966   3.667   2.096  12.981
   32SBC   C0DV21967   3.666   2.213  12.782
   32SBC   C0DX21968   3.573   2.308  12.832
   32SBC   C0DK21969   3.539   2.419  12.755
   32SBC   C0DJ21970   3.589   2.435  12.628
   32SBC   C0DI21971   3.544   2.541  12.554
   32SBC   C0DH21972   3.451   2.629  12.605
   32SBC   C0DG21973   3.398   2.614  12.731
   32SBC   C0BV21974   3.307   2.704  12.780
   32SBC   C0BC21975   3.266   2.683  12.914
   32SBC   C0BA21976   3.280   2.817  12.710
   32SBC   C0B421977   3.190   2.911  12.764
   32SBC   C0B321978   3.133   2.890  12.890
   32SBC   C0B521979   3.164   3.021  12.691
   32SBC   C0BU21980   3.221   3.043  12.566
   32SBC   C0BT21981   3.304   2.953  12.510
   32SBC   C0BS21982   3.360   2.972  12.380
   32SBC   C0CC21983   3.435   2.870  12.323
   32SBC   C0CB21984   3.491   2.881  12.197
   32SBC   C0CH21985   3.541   2.765  12.136
   32SBC   C0DO21986   3.594   2.660  12.220
   32SBC   C0DP21987   3.697   2.575  12.173
   32SBC   C0EA21988   3.752   2.600  12.037
   32SBC   H01221989   3.719   2.669  11.961
   32SBC   O00921990   3.871   2.547  12.012
   32SBC   C0EH21991   3.939   2.471  12.100
   32SBC   C0EG21992   4.066   2.420  12.061
   32SBC   C0EJ21993   4.155   2.443  11.958
   32SBC   H01021994   4.135   2.515  11.880
   32SBC   C0EK21995   4.269   2.349  11.967
   32SBC   H00Z21996   4.356   2.337  11.903
   32SBC   C0EL21997   4.241   2.281  12.088
   32SBC   C0EM21998   4.307   2.169  12.147
   32SBC   C0EW21999   4.411   2.095  12.095
   32SBC   H01322000   4.447   2.119  11.996
   32SBC   C0EX22001   4.465   1.979  12.161
   32SBC   H01422002   4.541   1.915  12.120
   32SBC   C0F122003   4.408   1.945  12.297
   32SBC   C0EU22004   4.313   2.026  12.353
   32SBC   C0ET22005   4.239   2.008  12.471
   32SBC   C0ES22006   4.134   2.110  12.461
   32SBC   C0EE22007   4.151   2.185  12.346
   32SBC   C0ED22008   4.073   2.280  12.268
   32SBC   C0EC22009   3.948   2.338  12.308
   32SBC   C0EB22010   3.874   2.308  12.423
   32SBC   C0EN22011   3.901   2.191  12.509
   32SBC   C0ER22012   3.816   2.164  12.611
   32SBC   C0DS22013   3.762   2.379  12.465
   32SBC   C0DR22014   3.709   2.474  12.383
   32SBC   C0EY22015   4.005   2.087  12.515
   32SBC   C0EZ22016   3.993   2.014  12.637
   32SBC   C0F522017   4.080   1.926  12.722
   32SBC   C0F622018   4.199   1.871  12.672
   32SBC   N00822019   4.252   1.777  12.768
   32SBC   C0F722020   4.208   1.772  12.910
   32SBC   C0FQ22021   4.284   1.685  12.988
   32SBC   H01822022   4.280   1.703  13.094
   32SBC   C0FP22023   4.356   1.581  12.932
   32SBC   H01922024   4.409   1.509  12.992
   32SBC   C0FO22025   4.394   1.579  12.798
   32SBC   H01A22026   4.459   1.501  12.760
   32SBC   C0F822027   4.103   1.851  12.959
   32SBC   C0F922028   4.347   1.683  12.714
   32SBC   C0FA22029   4.403   1.699  12.585
   32SBC   H01522030   4.473   1.626  12.547
   32SBC   C0FB22031   4.368   1.808  12.502
   32SBC   C0FD22032   4.264   1.891  12.550
   32SBC   C0FC22033   4.439   1.825  12.373
   32SBC   O00A22034   4.515   1.736  12.329
   32SBC   C0EV22035   4.257   2.130  12.278
   32SBC   C0EF22036   4.120   2.324  12.143
   32SBC   C0EI22037   3.886   2.434  12.221
   32SBC   C0DQ22038   3.763   2.493  12.262
   32SBC   C0CE22039   3.552   2.656  12.348
   32SBC   H00U22040   3.559   2.773  12.030
   32SBC   C0CA22041   3.501   3.011  12.144
   32SBC   C0C922042   3.394   3.101  12.177
   32SBC   C0C822043   3.354   3.187  12.062
   32SBC   C0C722044   3.269   3.308  12.054
   32SBC   C0C622045   3.244   3.358  11.927
   32SBC   C0C522046   3.207   3.490  11.865
   32SBC   C0CQ22047   3.249   3.512  11.728
   32SBC   C0D122048   3.358   3.430  11.687
   32SBC   C0D822049   3.450   3.504  11.629
   32SBC   C0D722050   3.388   3.629  11.593
   32SBC   C0D622051   3.445   3.736  11.523
   32SBC   C0D522052   3.372   3.857  11.503
   32SBC   C0D422053   3.237   3.905  11.539
   32SBC   C0D322054   3.249   4.049  11.544
   32SBC   C0CX22055   3.155   4.095  11.649
   32SBC   C0CW22056   3.122   3.978  11.732
   32SBC   C0CV22057   3.036   3.947  11.847
   32SBC   C0D222058   2.936   4.039  11.895
   32SBC   C09D22059   2.882   4.148  11.821
   32SBC   C09C22060   2.767   4.221  11.860
   32SBC   C09B22061   2.707   4.329  11.789
   32SBC   C09A22062   2.760   4.356  11.663
   32SBC   C09922063   2.854   4.280  11.609
   32SBC   C09822064   2.925   4.357  11.511
   32SBC   C08Y22065   2.861   4.492  11.512
   32SBC   C08X22066   2.909   4.622  11.466
   32SBC   C08W22067   3.039   4.630  11.401
   32SBC   C08U22068   3.139   4.525  11.382
   32SBC   C08V22069   3.153   4.387  11.436
   32SBC   C0DC22070   3.264   4.332  11.365
   32SBC   H00W22071   3.294   4.228  11.366
   32SBC   C0DB22072   3.324   4.425  11.272
   32SBC   H00X22073   3.413   4.419  11.212
   32SBC   C08T22074   3.246   4.540  11.288
   32SBC   C08S22075   3.270   4.655  11.220
   32SBC   H00N22076   3.355   4.660  11.154
   32SBC   C08R22077   3.194   4.769  11.259
   32SBC   C08Q22078   3.224   4.903  11.213
   32SBC   H00O22079   3.303   4.916  11.141
   32SBC   C08P22080   3.157   5.016  11.249
   32SBC   C08O22081   3.193   5.142  11.201
   32SBC   H00P22082   3.277   5.155  11.135
   32SBC   C08N22083   3.119   5.261  11.246
   32SBC   C08M22084   3.159   5.387  11.195
   32SBC   O00822085   3.249   5.412  11.121
   32SBC   O00722086   3.093   5.498  11.246
   32SBC   C08H22087   2.989   5.490  11.331
   32SBC   C08G22088   2.920   5.604  11.385
   32SBC   C03V22089   2.954   5.741  11.366
   32SBC   H00922090   3.030   5.764  11.293
   32SBC   C03U22091   2.887   5.849  11.432
   32SBC   C03W22092   2.904   5.984  11.410
   32SBC   H00A22093   2.969   6.000  11.325
   32SBC   C03X22094   2.857   6.075  11.494
   32SBC   H00B22095   2.878   6.177  11.468
   32SBC   O00522096   2.775   6.044  11.600
   32SBC   C03O22097   2.730   5.914  11.608
   32SBC   C03N22098   2.635   5.878  11.701
   32SBC   O00022099   2.565   5.980  11.763
   32SBC   C01922100   2.478   5.954  11.861
   32SBC   C01822101   2.455   5.820  11.904
   32SBC   C01722102   2.497   5.713  11.823
   32SBC   C01622103   2.471   5.582  11.853
   32SBC   C01522104   2.392   5.570  11.969
   32SBC   C01422105   2.348   5.444  11.997
   32SBC   C01322106   2.393   5.325  11.926
   32SBC   C01222107   2.325   5.218  12.001
   32SBC   C01122108   2.236   5.280  12.089
   32SBC   C01022109   2.148   5.210  12.171
   32SBC   C00Z22110   2.087   5.249  12.284
   32SBC   C00Y22111   2.054   5.129  12.349
   32SBC   C01O22112   2.087   5.016  12.280
   32SBC   C01P22113   2.133   4.903  12.353
   32SBC   C02L22114   2.219   4.822  12.286
   32SBC   C02K22115   2.275   4.871  12.167
   32SBC   C01M22116   2.258   5.003  12.108
   32SBC   C02J22117   2.338   4.774  12.092
   32SBC   C02I22118   2.380   4.773  11.959
   32SBC   C02H22119   2.404   4.875  11.871
   32SBC   C01Q22120   2.386   5.011  11.892
   32SBC   C02G22121   2.460   5.076  11.785
   32SBC   C08922122   2.494   4.983  11.689
   32SBC   C08822123   2.609   5.028  11.622
   32SBC   C08722124   2.618   5.168  11.663
   32SBC   C08622125   2.702   5.264  11.599
   32SBC   C03S22126   2.691   5.408  11.602
   32SBC   N00622127   2.784   5.454  11.510
   32SBC   C08F22128   2.848   5.350  11.452
   32SBC   C01J22129   2.621   5.504  11.676
   32SBC   C03R22130   2.657   5.641  11.654
   32SBC   C03Q22131   2.752   5.678  11.558
   32SBC   C08E22132   2.806   5.230  11.508
   32SBC   C08D22133   2.865   5.107  11.467
   32SBC   C08K22134   2.973   5.120  11.376
   32SBC   C08C22135   2.825   4.972  11.497
   32SBC   C09122136   2.902   4.865  11.461
   32SBC   C09222137   3.017   4.875  11.378
   32SBC   C08B22138   2.704   4.930  11.559
   32SBC   C09022139   2.710   4.784  11.553
   32SBC   C09422140   2.611   4.694  11.617
   32SBC   C09522141   2.646   4.561  11.648
   32SBC   C09R22142   2.576   4.525  11.759
   32SBC   C09722143   2.501   4.630  11.812
   32SBC   C09622144   2.521   4.734  11.719
   32SBC   C01I22145   2.515   5.210  11.755
   32SBC   C08A22146   2.472   4.862  11.750
   32SBC   C09L22147   2.427   4.647  11.931
   32SBC   C09K22148   2.397   4.559  12.037
   32SBC   C09J22149   2.470   4.438  12.061
   32SBC   C09I22150   2.477   4.363  12.179
   32SBC   C09O22151   2.418   4.362  12.314
   32SBC   C09N22152   2.346   4.470  12.359
   32SBC   C09M22153   2.320   4.600  12.291
   32SBC   C06O22154   2.302   4.460  12.492
   32SBC   C05M22155   2.325   4.340  12.571
   32SBC   C06P22156   2.396   4.235  12.521
   32SBC   C04222157   2.283   4.332  12.703
   32SBC   C04122158   2.220   4.444  12.761
   32SBC   C04022159   2.182   4.434  12.897
   32SBC   C03Z22160   2.128   4.548  12.964
   32SBC   C03Y22161   2.104   4.660  12.892
   32SBC   C02722162   2.041   4.768  12.954
   32SBC   C02622163   1.997   4.880  12.881
   32SBC   C02822164   1.952   4.993  12.946
   32SBC   C02922165   1.939   4.991  13.083
   32SBC   C02B22166   1.911   5.113  13.150
   32SBC   C02C22167   1.914   5.120  13.285
   32SBC   C02X22168   1.893   5.242  13.351
   32SBC   C03E22169   1.905   5.242  13.489
   32SBC   C03G22170   1.933   5.138  13.570
   32SBC   C04Q22171   1.952   5.018  13.507
   32SBC   C04R22172   1.994   4.908  13.578
   32SBC   C04S22173   2.019   4.784  13.515
   32SBC   C04L22174   2.011   4.778  13.375
   32SBC   C04M22175   1.988   4.893  13.298
   32SBC   C04K22176   2.047   4.660  13.305
   32SBC   C04F22177   2.082   4.552  13.380
   32SBC   C04E22178   2.100   4.559  13.516
   32SBC   C04D22179   2.145   4.452  13.593
   32SBC   C05022180   2.162   4.470  13.731
   32SBC   C05122181   2.198   4.355  13.800
   32SBC   C05Q22182   2.218   4.366  13.937
   32SBC   C05V22183   2.250   4.251  14.011
   32SBC   N00522184   2.264   4.262  14.151
   32SBC   C07V22185   2.272   4.386  14.210
   32SBC   C08222186   2.287   4.399  14.349
   32SBC   C08122187   2.300   4.287  14.431
   32SBC   C07C22188   2.298   4.157  14.373
   32SBC   C07B22189   2.310   4.044  14.455
   32SBC   C08022190   2.315   4.056  14.592
   32SBC   C07Z22191   2.309   3.937  14.667
   32SBC   H00L22192   2.311   3.950  14.774
   32SBC   C07922193   2.306   3.810  14.611
   32SBC   C07822194   2.297   3.805  14.470
   32SBC   C07722195   2.298   3.677  14.406
   32SBC   C07X22196   2.308   3.559  14.479
   32SBC   H00I22197   2.306   3.462  14.432
   32SBC   C07Y22198   2.320   3.563  14.618
   32SBC   H00H22199   2.317   3.463  14.660
   32SBC   C07622200   2.299   3.674  14.262
   32SBC   C06C22201   2.316   3.554  14.195
   32SBC   H00C22202   2.325   3.456  14.239
   32SBC   C06F22203   2.303   3.789  14.187
   32SBC   C06E22204   2.300   3.789  14.046
   32SBC   C06G22205   2.302   3.894  13.965
   32SBC   C06H22206   2.281   4.012  14.025
   32SBC   C06I22207   2.285   4.023  14.167
   32SBC   C06L22208   2.309   3.878  13.824
   32SBC   C06M22209   2.348   3.753  13.755
   32SBC   C06K22210   2.277   3.992  13.747
   32SBC   C05S22211   2.258   4.116  13.809
   32SBC   C05U22212   2.285   3.983  13.608
   32SBC   C05X22213   2.332   3.863  13.533
   32SBC   C05G22214   2.321   3.884  13.388
   32SBC   C05F22215   2.263   3.994  13.329
   32SBC   C05E22216   2.275   3.988  13.190
   32SBC   C04822217   2.248   4.097  13.110
   32SBC   C05622218   2.290   4.095  12.981
   32SBC   C04522219   2.272   4.212  12.911
   32SBC   C04722220   2.201   4.208  13.181
   32SBC   C04922221   2.184   4.206  13.325
   32SBC   C04B22222   2.158   4.322  13.390
   32SBC   C04622223   2.172   4.318  13.111
   32SBC   C04H22224   2.125   4.426  13.179
   32SBC   C05D22225   2.336   3.874  13.149
   32SBC   C04A22226   2.229   4.105  13.400
   32SBC   C05T22227   2.245   4.101  13.538
   32SBC   C05522228   2.217   4.223  13.606
   32SBC   C06D22229   2.327   3.666  13.981
   32SBC   C07W22230   2.297   3.912  14.252
   32SBC   C08522231   2.319   3.688  14.682
   32SBC   H00M22232   2.332   3.684  14.789
   32SBC   C08422233   2.327   4.185  14.651
   32SBC   H00J22234   2.344   4.196  14.757
   32SBC   C07A22235   2.294   3.920  14.392
   32SBC   C08322236   2.310   4.294  14.571
   32SBC   H00K22237   2.306   4.397  14.606
   32SBC   O00K22238   2.286   4.521  14.411
   32SBC   C0GO22239   2.278   4.632  14.335
   32SBC   C0GN22240   2.293   4.758  14.388
   32SBC   H01L22241   2.308   4.779  14.492
   32SBC   C0GM22242   2.256   4.875  14.313
   32SBC   C0GL22243   2.284   4.997  14.363
   32SBC   H01M22244   2.334   5.007  14.458
   32SBC   O00J22245   2.253   5.113  14.294
   32SBC   C0GK22246   2.194   5.096  14.168
   32SBC   H01N22247   2.178   5.190  14.116
   32SBC   C05K22248   2.172   4.974  14.115
   32SBC   C05J22249   2.105   4.959  13.989
   32SBC   C04Y22250   2.028   5.054  13.919
   32SBC   C04X22251   1.999   5.042  13.782
   32SBC   O00622252   1.992   5.173  13.976
   32SBC   C05322253   1.994   5.288  13.907
   32SBC   C04O22254   1.964   5.284  13.768
   32SBC   C03C22255   1.929   5.394  13.680
   32SBC   C03B22256   1.937   5.535  13.693
   32SBC   C05422257   1.976   5.607  13.802
   32SBC   C0GR22258   1.972   5.750  13.808
   32SBC   C03M22259   1.949   5.863  13.714
   32SBC   C03I22260   1.925   5.847  13.573
   32SBC   C03J22261   1.914   5.966  13.494
   32SBC   N00222262   1.906   5.963  13.354
   32SBC   C02U22263   1.917   6.079  13.277
   32SBC   C02T22264   1.921   6.073  13.139
   32SBC   C02Z22265   1.931   6.186  13.057
   32SBC   N00122266   1.944   6.184  12.916
   32SBC   C02R22267   1.960   6.302  12.840
   32SBC   C03222268   1.963   6.422  12.906
   32SBC   C03122269   1.931   6.426  13.043
   32SBC   H00722270   1.916   6.521  13.091
   32SBC   C03322271   1.998   6.538  12.828
   32SBC   H00322272   2.012   6.634  12.875
   32SBC   O00422273   2.028   6.529  12.696
   32SBC   C03422274   2.013   6.405  12.632
   32SBC   C03522275   2.020   6.406  12.496
   32SBC   C03622276   1.990   6.287  12.420
   32SBC   H00522277   1.995   6.295  12.313
   32SBC   C03722278   1.955   6.173  12.495
   32SBC   H00622279   1.932   6.082  12.443
   32SBC   C00D22280   1.957   6.173  12.636
   32SBC   C00C22281   1.947   6.058  12.704
   32SBC   C00B22282   1.952   5.924  12.644
   32SBC   C00A22283   1.985   5.849  12.516
   32SBC   C00922284   1.945   5.715  12.543
   32SBC   C00822285   1.994   5.597  12.478
   32SBC   C00722286   2.076   5.612  12.372
   32SBC   C00622287   2.109   5.499  12.296
   32SBC   C00522288   2.198   5.521  12.186
   32SBC   C00422289   2.252   5.643  12.154
   32SBC   C00322290   2.218   5.752  12.240
   32SBC   C00222291   2.267   5.883  12.211
   32SBC   C01C22292   2.330   5.908  12.092
   32SBC   C01B22293   2.341   6.038  12.040
   32SBC   H00022294   2.293   6.128  12.076
   32SBC   C00122295   2.249   5.981  12.307
   32SBC   C00022296   2.180   5.963  12.420
   32SBC   C01U22297   2.215   6.064  12.513
   32SBC   H00222298   2.195   6.080  12.618
   32SBC   C01T22299   2.291   6.163  12.424
   32SBC   O00222300   2.320   6.281  12.453
   32SBC   O00122301   2.312   6.100  12.304
   32SBC   C01S22302   2.135   5.734  12.353
   32SBC   C00N22303   1.957   5.475  12.532
   32SBC   C00M22304   1.911   5.469  12.663
   32SBC   C00J22305   1.885   5.581  12.738
   32SBC   C00I22306   1.874   5.588  12.873
   32SBC   C00H22307   1.881   5.709  12.939
   32SBC   C00G22308   1.889   5.829  12.872
   32SBC   C00F22309   1.912   5.950  12.930
   32SBC   C01X22310   1.877   5.713  13.074
   32SBC   C01W22311   1.880   5.597  13.144
   32SBC   C01V22312   1.875   5.470  13.076
   32SBC   C02022313   1.886   5.351  13.145
   32SBC   C01Z22314   1.884   5.604  13.286
   32SBC   C02Y22315   1.890   5.483  13.346
   32SBC   C03922316   1.891   5.484  13.484
   32SBC   C02W22317   1.891   5.722  13.361
   32SBC   C01Y22318   1.891   5.837  13.145
   32SBC   C00U22319   1.873   5.467  12.941
   32SBC   C00S22320   1.878   5.350  12.873
   32SBC   C00T22321   1.891   5.227  12.943
   32SBC   C00R22322   1.906   5.352  12.735
   32SBC   C00Q22323   1.943   5.237  12.669
   32SBC   C00V22324   1.954   5.114  12.737
   32SBC   C02422325   2.005   5.000  12.677
   32SBC   C00X22326   2.037   5.006  12.548
   32SBC   C00P22327   1.986   5.242  12.535
   32SBC   C00O22328   1.999   5.362  12.468
   32SBC   C00K22329   1.899   5.704  12.673
   32SBC   N00022330   2.104   5.851  12.434
   32SBC   C00L22331   1.911   5.823  12.733
   32SBC   H00422332   2.063   6.494  12.451
   32SBC   C02Q22333   1.969   6.295  12.702
   32SBC   C00E22334   1.941   6.063  12.846
   32SBC   C03022335   1.926   6.312  13.121
   32SBC   O00322336   1.925   6.314  13.260
   32SBC   C02S22337   1.907   5.952  13.070
   32SBC   C03822338   1.918   6.202  13.338
   32SBC   C03L22339   1.913   6.204  13.476
   32SBC   H00822340   1.914   6.302  13.520
   32SBC   C02V22341   1.892   5.837  13.284
   32SBC   C03K22342   1.919   6.093  13.556
   32SBC   C0BK22343   1.932   6.104  13.695
   32SBC   H00T22344   1.948   6.201  13.738
   32SBC   C03H22345   1.907   5.724  13.503
   32SBC   C0BL22346   1.950   5.989  13.773
   32SBC   C0GU22347   1.976   6.000  13.907
   32SBC   H01O22348   1.972   6.093  13.963
   32SBC   C0GT22349   2.006   5.899  13.988
   32SBC   H01P22350   2.015   5.919  14.094
   32SBC   C0GS22351   2.006   5.770  13.940
   32SBC   C0GV22352   2.031   5.651  14.014
   32SBC   C0GW22353   2.066   5.640  14.152
   32SBC   H01Q22354   2.100   5.726  14.207
   32SBC   C0GX22355   2.083   5.509  14.189
   32SBC   H01R22356   2.137   5.490  14.281
   32SBC   O00L22357   2.039   5.397  14.119
   32SBC   C0GQ22358   2.002   5.547  13.931
   32SBC   C03A22359   1.909   5.592  13.567
   32SBC   C05L22360   2.010   5.411  13.980
   32SBC   C04W22361   2.119   4.839  13.921
   32SBC   C05I22362   2.171   4.729  13.986
   32SBC   C05O22363   2.206   4.734  14.119
   32SBC   C05222364   2.177   4.603  13.924
   32SBC   C04V22365   2.079   4.816  13.786
   32SBC   C04U22366   2.095   4.695  13.717
   32SBC   N00922367   2.212   4.858  14.182
   32SBC   C0GP22368   2.239   4.623  14.198
   32SBC   C05W22369   2.239   4.500  14.135
   32SBC   C07D22370   2.276   4.147  14.233
   32SBC   C06J22371   2.261   4.124  13.948
   32SBC   C05P22372   2.206   4.492  14.001
   32SBC   C05R22373   2.220   4.231  13.743
   32SBC   C04Z22374   2.149   4.591  13.789
   32SBC   C04C22375   2.173   4.328  13.526
   32SBC   C04G22376   2.114   4.432  13.315
   32SBC   C04J22377   2.057   4.659  13.168
   32SBC   C04T22378   2.076   4.677  13.579
   32SBC   N00322379   2.023   4.922  13.714
   32SBC   C04P22380   1.963   5.152  13.705
   32SBC   C03D22381   1.909   5.365  13.547
   32SBC   C02122382   1.893   5.359  13.282
   32SBC   C03F22383   1.951   5.013  13.361
   32SBC   C02222384   1.892   5.229  13.079
   32SBC   C02A22385   1.982   4.882  13.161
   32SBC   C02322386   1.927   5.110  12.875
   32SBC   C02522387   2.030   4.882  12.748
   32SBC   C02D22388   2.101   4.776  12.685
   32SBC   C02E22389   2.136   4.783  12.553
   32SBC   C02N22390   2.204   4.682  12.489
   32SBC   C04N22391   2.025   4.767  13.095
   32SBC   C02P22392   2.131   4.663  12.755
   32SBC   C04I22393   2.103   4.544  13.106
   32SBC   C04422394   2.206   4.324  12.973
   32SBC   C04322395   2.190   4.558  12.689
   32SBC   C05N22396   2.232   4.568  12.556
   32SBC   C09U22397   2.452   4.247  12.394
   32SBC   C09V22398   2.541   4.148  12.352
   32SBC   C09X22399   2.604   4.153  12.231
   32SBC   C09Y22400   2.703   4.069  12.181
   32SBC   C0A122401   2.731   3.960  12.253
   32SBC   C0A222402   2.658   3.935  12.373
   32SBC   C0A422403   2.677   3.819  12.446
   32SBC   C07122404   2.616   3.805  12.574
   32SBC   C0A522405   2.648   3.694  12.648
   32SBC   C0A922406   2.741   3.601  12.595
   32SBC   C0A822407   2.813   3.631  12.483
   32SBC   C0AP22408   2.917   3.548  12.446
   32SBC   C0BY22409   2.988   3.581  12.336
   32SBC   C0BX22410   2.959   3.683  12.243
   32SBC   C0C222411   3.030   3.705  12.126
   32SBC   C0C322412   3.010   3.815  12.050
   32SBC   C0CT22413   2.910   3.902  12.092
   32SBC   C0C122414   3.115   3.601  12.073
   32SBC   C0C022415   3.155   3.494  12.168
   32SBC   C0A722416   2.859   3.766  12.284
   32SBC   C0BZ22417   3.095   3.503  12.295
   32SBC   C0BO22418   3.137   3.405  12.378
   32SBC   C0BN22419   3.071   3.373  12.495
   32SBC   C0BM22420   3.097   3.247  12.547
   32SBC   C0B922421   3.029   3.218  12.665
   32SBC   C0B822422   2.926   3.302  12.711
   32SBC   C0AD22423   2.884   3.410  12.633
   32SBC   C0AF22424   2.869   3.281  12.834
   32SBC   C0AG22425   2.916   3.183  12.922
   32SBC   C0B722426   3.012   3.093  12.871
   32SBC   C0AE22427   2.767   3.365  12.868
   32SBC   C0AB22428   2.721   3.471  12.793
   32SBC   C0AA22429   2.632   3.569  12.847
   32SBC   C0AJ22430   2.719   3.351  12.997
   32SBC   C0AK22431   2.623   3.443  13.043
   32SBC   C06W22432   2.597   3.402  13.171
   32SBC   C0AI22433   2.759   3.259  13.093
   32SBC   C0BP22434   3.210   3.311  12.304
   32SBC   C0BQ22435   3.244   3.185  12.369
   32SBC   C0BW22436   2.958   3.448  12.527
   32SBC   C0AC22437   2.779   3.490  12.669
   32SBC   C0A622438   2.784   3.740  12.405
   32SBC   C0A322439   2.833   3.878  12.210
   32SBC   C09Z22440   2.767   4.092  12.060
   32SBC   C09W22441   2.569   4.030  12.424
   32SBC   C07222442   2.502   4.017  12.546
   32SBC   C09H22443   2.571   4.264  12.153
   32SBC   C09G22444   2.615   4.268  12.026
   32SBC   C09P22445   2.567   4.379  11.969
   32SBC   C02O22446   2.350   4.637  12.146
   32SBC   C02M22447   2.251   4.704  12.354
   32SBC   C02F22448   2.096   4.895  12.482
   32SBC   C00W22449   2.020   5.124  12.480
   32SBC   C01R22450   2.070   5.375  12.351
   32SBC   C01N22451   2.162   5.070  12.177
   32SBC   C01L22452   2.327   5.075  11.998
   32SBC   C01H22453   2.479   5.335  11.816
   32SBC   C01K22454   2.259   5.415  12.102
   32SBC   C01E22455   2.339   5.667  12.049
   32SBC   C01G22456   2.526   5.472  11.780
   32SBC   C01D22457   2.377   5.800  12.014
   32SBC   C01A22458   2.425   6.060  11.930
   32SBC   H00122459   2.418   6.159  11.887
   32SBC   C01F22460   2.596   5.742  11.731
   32SBC   C03P22461   2.794   5.812  11.534
   32SBC   C03T22462   2.817   5.581  11.479
   32SBC   C08I22463   2.954   5.361  11.371
   32SBC   C08J22464   3.018   5.246  11.334
   32SBC   C08L22465   3.046   5.004  11.334
   32SBC   C09322466   3.081   4.756  11.348
   32SBC   C08Z22467   2.840   4.743  11.491
   32SBC   C09T22468   3.059   4.311  11.508
   32SBC   C09S22469   2.750   4.477  11.595
   32SBC   C09Q22470   2.607   4.410  11.836
   32SBC   C09F22471   2.723   4.194  11.984
   32SBC   C09E22472   2.931   4.200  11.692
   32SBC   C0A022473   2.873   4.013  12.015
   32SBC   C0CU22474   3.062   3.831  11.921
   32SBC   C0CR22475   3.136   3.726  11.866
   32SBC   C0CZ22476   3.187   3.741  11.731
   32SBC   C0DA22477   3.064   4.208  11.626
   32SBC   C0D922478   3.393   4.081  11.537
   32SBC   H00V22479   3.444   4.174  11.557
   32SBC   C0CY22480   3.175   3.867  11.664
   32SBC   C0DF22481   3.463   3.966  11.503
   32SBC   C0DE22482   3.595   3.906  11.496
   32SBC   C0GI22483   3.730   3.961  11.483
   32SBC   H01K22484   3.756   4.065  11.473
   32SBC   C0GJ22485   3.831   3.869  11.498
   32SBC   H01J22486   3.933   3.904  11.493
   32SBC   O00I22487   3.821   3.735  11.533
   32SBC   C0GH22488   3.693   3.676  11.542
   32SBC   C0GG22489   3.701   3.538  11.569
   32SBC   O00G22490   3.818   3.473  11.555
   32SBC   C0G822491   3.850   3.359  11.621
   32SBC   C0G922492   3.976   3.318  11.598
   32SBC   H01G22493   4.046   3.383  11.548
   32SBC   C0GA22494   4.020   3.198  11.649
   32SBC   H01H22495   4.120   3.167  11.625
   32SBC   C0GB22496   3.945   3.120  11.729
   32SBC   C0EP22497   3.815   3.176  11.765
   32SBC   C0E822498   3.749   3.111  11.875
   32SBC   C0CK22499   3.628   3.132  11.945
   32SBC   C0CL22500   3.517   3.187  11.878
   32SBC   C0E922501   3.518   3.283  11.771
   32SBC   C0GE22502   3.626   3.337  11.691
   32SBC   C0E722503   3.808   3.001  11.942
   32SBC   C0CJ22504   3.738   2.962  12.055
   32SBC   C0E622505   3.805   2.879  12.148
   32SBC   H00Y22506   3.776   2.860  12.251
   32SBC   C0EO22507   3.926   2.819  12.106
   32SBC   H01122508   3.970   2.761  12.185
   32SBC   C0G622509   3.987   2.855  11.982
   32SBC   C0G522510   4.119   2.807  11.940
   32SBC   H01F22511   4.181   2.744  12.002
   32SBC   C0GD22512   4.171   2.851  11.823
   32SBC   H01I22513   4.267   2.814  11.791
   32SBC   O00H22514   4.114   2.948  11.745
   32SBC   C0EQ22515   3.928   2.952  11.899
   32SBC   C0GC22516   3.994   2.996  11.784
   32SBC   C0G722517   3.760   3.288  11.699
   32SBC   C0DD22518   3.583   3.763  11.521
   32SBC   C0GF22519   3.591   3.462  11.622
   32SBC   C0CO22520   3.388   3.317  11.751
   32SBC   C0D022521   3.276   3.637  11.682
   32SBC   C0C422522   3.154   3.598  11.935
   32SBC   C0CN22523   3.309   3.259  11.849
   32SBC   C0CP22524   3.235   3.376  12.174
   32SBC   C0CM22525   3.384   3.168  11.925
   32SBC   C0CI22526   3.612   3.027  12.051
   32SBC   C0CD22527   3.462   2.751  12.396
   32SBC   C0BR22528   3.330   3.091  12.307
   32SBC   C0CS22529   3.193   3.159  12.495
   32SBC   C0B622530   3.070   3.114  12.747
   32SBC   C0CG22531   3.332   2.834  12.579
   32SBC   C0CF22532   3.416   2.736  12.523
   32SBC   C0E522533   3.601   2.559  12.431
   32SBC   C0DT22534   3.691   2.356  12.582
   32SBC   C0DL22535   3.438   2.504  12.805
   32SBC   C0DM22536   3.391   2.480  12.936
   32SBC   C0DY22537   3.522   2.284  12.960
   32SBC   C0DU22538   3.724   2.248  12.658
   32SBC   C0F022539   3.872   2.066  12.690
   32SBC   C0F422540   4.033   1.915  12.855
   32SBC   C0FG22541   3.731   2.007  13.058
   32SBC   O00B22542   4.052   1.842  13.094
   32SBC   C0FN22543   3.730   2.006  13.185
   32SBC   C0DZ22544   3.579   2.183  13.044
   32SBC   O00C22545   3.415   2.256  13.358
   32SBC   C0FR22546   3.312   2.332  13.408
   32SBC   O00D22547   3.290   2.310  13.531
   32SBC   C0E022548   3.436   2.377  13.013
   32SBC   C0E322549   3.261   2.435  13.322
   32SBC   C0AW22550   3.165   2.523  13.371
   32SBC   C0AV22551   3.080   2.499  13.481
   32SBC   H00Q22552   3.073   2.404  13.531
   32SBC   C0AU22553   2.988   2.590  13.527
   32SBC   H00R22554   2.931   2.561  13.615
   32SBC   C0AT22555   2.978   2.716  13.457
   32SBC   C0AS22556   2.905   2.839  13.470
   32SBC   C0AR22557   2.880   2.900  13.603
   32SBC   C0BE22558   3.044   2.726  13.341
   32SBC   C0DN22559   3.302   2.574  12.985
   32SBC   C0AX22560   3.135   2.631  13.294
   32SBC   C0BB22561   3.184   2.784  12.967
   32SBC   C0BD22562   3.004   2.841  13.274
   32SBC   C0B222563   3.047   2.984  12.947
   32SBC   C0AH22564   2.864   3.167  13.056
   32SBC   C0BF22565   2.918   2.919  13.344
   32SBC   C0AL22566   2.682   3.289  13.208
   32SBC   C07U22567   2.754   3.111  13.512
   32SBC   C0AQ22568   2.811   3.028  13.610
   32SBC   C0BG22569   2.941   2.874  13.739
   32SBC   C0FY22570   2.788   2.969  14.033
   32SBC   C0BJ22571   2.928   2.761  13.826
   32SBC   H00S22572   2.908   2.660  13.791
   32SBC   C0FZ22573   2.777   2.857  14.115
   32SBC   C07S22574   2.680   3.061  14.018
   32SBC   C0G122575   2.468   2.912  14.286
   32SBC   C07K22576   2.239   3.187  14.189
   32SBC   C07H22577   2.447   3.230  13.998
   32SBC   C06B22578   2.322   3.549  14.057
   32SBC   C06N22579   2.364   3.647  13.847
   32SBC   C06622580   2.550   3.312  13.774
   32SBC   C06222581   2.522   3.406  13.472
   32SBC   C05Y22582   2.373   3.743  13.611
   32SBC   C06122583   2.456   3.470  13.363
   32SBC   C05H22584   2.350   3.801  13.274
   32SBC   C06V22585   2.514   3.490  13.235
   32SBC   C06Y22586   2.577   3.557  12.971
   32SBC   C05C22587   2.381   3.868  13.008
   32SBC   C06Z22588   2.589   3.675  12.772
   32SBC   C07022589   2.530   3.904  12.623
   32SBC   C05B22590   2.350   3.981  12.930
   32SBC   C05722591   2.305   4.216  12.778
   32SBC   C05922592   2.416   4.119  12.596
   33SBC   C05822593   9.810   9.550   5.914
   33SBC   C05A22594   9.741   9.466   6.006
   33SBC   C06Q22595   9.614   9.508   6.056
   33SBC   C06R22596   9.539   9.421   6.132
   33SBC   C06S22597   9.593   9.295   6.173
   33SBC   C06T22598   9.508   9.208   6.249
   33SBC   C06U22599   9.538   9.075   6.303
   33SBC   C06X22600   9.654   8.996   6.320
   33SBC   C06022601   9.630   8.882   6.410
   33SBC   C05Z22602   9.662   8.739   6.400
   33SBC   C06822603   9.548   8.667   6.455
   33SBC   C06722604   9.547   8.541   6.529
   33SBC   C06922605   9.667   8.461   6.543
   33SBC   C06A22606   9.704   8.353   6.637
   33SBC   C07322607   9.666   8.333   6.769
   33SBC   C07P22608   9.768   8.299   6.867
   33SBC   C07O22609   9.909   8.293   6.844
   33SBC   H00D22610   9.952   8.296   6.745
   33SBC   C07N22611  10.005   8.272   6.940
   33SBC   H00E22612  10.108   8.272   6.909
   33SBC   C07M22613   9.957   8.242   7.065
   33SBC   H00F22614  10.038   8.227   7.136
   33SBC   C07L22615   9.817   8.254   7.100
   33SBC   C07Q22616   9.763   8.257   7.233
   33SBC   H00G22617   9.834   8.263   7.315
   33SBC   O00F22618   9.627   8.263   7.266
   33SBC   C07J22619   9.547   8.272   7.160
   33SBC   C07I22620   9.592   8.286   7.030
   33SBC   N00422621   9.493   8.305   6.929
   33SBC   C07R22622   9.352   8.286   6.963
   33SBC   C07T22623   9.316   8.271   7.099
   33SBC   C0FX22624   9.188   8.280   7.134
   33SBC   C0FW22625   9.143   8.300   7.263
   33SBC   C0G022626   9.243   8.293   7.361
   33SBC   C0G222627   9.219   8.323   7.495
   33SBC   H01E22628   9.297   8.311   7.568
   33SBC   C0G322629   9.088   8.361   7.526
   33SBC   H01C22630   9.052   8.379   7.626
   33SBC   C0G422631   8.989   8.360   7.431
   33SBC   H01D22632   8.887   8.387   7.456
   33SBC   O00E22633   9.377   8.272   7.331
   33SBC   C0FV22634   9.013   8.332   7.295
   33SBC   C0FU22635   8.925   8.333   7.186
   33SBC   H01B22636   8.824   8.363   7.208
   33SBC   C0FT22637   8.963   8.304   7.055
   33SBC   C0FS22638   8.908   8.315   6.925
   33SBC   C0BI22639   8.999   8.266   6.827
   33SBC   C0BH22640   8.978   8.343   6.709
   33SBC   C07F22641   9.075   8.433   6.656
   33SBC   C07E22642   9.216   8.422   6.649
   33SBC   C07G22643   9.297   8.359   6.742
   33SBC   C07422644   9.430   8.395   6.720
   33SBC   C06522645   9.291   8.506   6.579
   33SBC   C06422646   9.224   8.618   6.519
   33SBC   C06322647   9.285   8.730   6.470
   33SBC   C07522648   9.170   8.819   6.439
   33SBC   C0AM22649   9.042   8.762   6.472
   33SBC   C0AN22650   8.905   8.819   6.456
   33SBC   C0AO22651   8.854   8.953   6.402
   33SBC   C0B122652   8.710   8.977   6.384
   33SBC   C0B022653   8.619   8.878   6.415
   33SBC   C0AZ22654   8.483   8.897   6.419
   33SBC   C0AY22655   8.398   8.800   6.462
   33SBC   N00722656   8.264   8.831   6.493
   33SBC   C0E222657   8.188   8.731   6.568
   33SBC   C0E122658   8.065   8.779   6.608
   33SBC   C0E422659   7.974   8.689   6.675
   33SBC   C0FF22660   7.858   8.731   6.743
   33SBC   C0FJ22661   7.750   8.657   6.819
   33SBC   C0FK22662   7.711   8.519   6.840
   33SBC   H01622663   7.770   8.433   6.810
   33SBC   C0FL22664   7.576   8.525   6.904
   33SBC   H01722665   7.510   8.443   6.928
   33SBC   C0FM22666   7.538   8.669   6.928
   33SBC   C0FH22667   7.439   8.774   6.956
   33SBC   C0FI22668   7.514   8.887   6.929
   33SBC   C0F322669   7.464   9.012   6.888
   33SBC   C0F222670   7.552   9.088   6.823
   33SBC   C0DW22671   7.671   9.051   6.763
   33SBC   C0FE22672   7.718   8.929   6.793
   33SBC   C0DV22673   7.747   9.128   6.677
   33SBC   C0DX22674   7.863   9.079   6.627
   33SBC   C0DK22675   7.934   9.166   6.543
   33SBC   C0DJ22676   7.877   9.290   6.502
   33SBC   C0DI22677   7.947   9.373   6.417
   33SBC   C0DH22678   8.074   9.335   6.376
   33SBC   C0DG22679   8.123   9.214   6.415
   33SBC   C0BV22680   8.249   9.180   6.377
   33SBC   C0BC22681   8.295   9.050   6.400
   33SBC   C0BA22682   8.334   9.275   6.321
   33SBC   C0B422683   8.467   9.250   6.304
   33SBC   C0B322684   8.516   9.126   6.342
   33SBC   C0B522685   8.554   9.353   6.263
   33SBC   C0BU22686   8.500   9.470   6.219
   33SBC   C0BT22687   8.362   9.490   6.215
   33SBC   C0BS22688   8.309   9.602   6.156
   33SBC   C0CC22689   8.181   9.639   6.186
   33SBC   C0CB22690   8.117   9.747   6.122
   33SBC   C0CH22691   7.995   9.784   6.185
   33SBC   C0DO22692   7.921   9.704   6.274
   33SBC   C0DP22693   7.793   9.743   6.322
   33SBC   C0EA22694   7.733   9.860   6.269
   33SBC   H01222695   7.781   9.923   6.196
   33SBC   O00922696   7.605   9.897   6.300
   33SBC   C0EH22697   7.528   9.807   6.367
   33SBC   C0EG22698   7.392   9.828   6.376
   33SBC   C0EJ22699   7.299   9.929   6.326
   33SBC   H01022700   7.325  10.013   6.265
   33SBC   C0EK22701   7.160   9.890   6.357
   33SBC   H00Z22702   7.074   9.947   6.327
   33SBC   C0EL22703   7.173   9.774   6.441
   33SBC   C0EM22704   7.078   9.690   6.500
   33SBC   C0EW22705   6.934   9.704   6.492
   33SBC   H01322706   6.891   9.796   6.455
   33SBC   C0EX22707   6.851   9.597   6.549
   33SBC   H01422708   6.743   9.598   6.552
   33SBC   C0F122709   6.910   9.478   6.615
   33SBC   C0EU22710   7.048   9.477   6.628
   33SBC   C0ET22711   7.122   9.379   6.683
   33SBC   C0ES22712   7.258   9.424   6.660
   33SBC   C0EE22713   7.262   9.536   6.580
   33SBC   C0ED22714   7.359   9.622   6.513
   33SBC   C0EC22715   7.498   9.597   6.495
   33SBC   C0EB22716   7.559   9.486   6.550
   33SBC   C0EN22717   7.503   9.400   6.650
   33SBC   C0ER22718   7.574   9.289   6.698
   33SBC   C0DS22719   7.690   9.451   6.511
   33SBC   C0DR22720   7.770   9.535   6.432
   33SBC   C0EY22721   7.370   9.374   6.711
   33SBC   C0EZ22722   7.366   9.249   6.783
   33SBC   C0F522723   7.266   9.150   6.835
   33SBC   C0F622724   7.122   9.166   6.826
   33SBC   N00822725   7.046   9.057   6.878
   33SBC   C0F722726   7.107   8.938   6.932
   33SBC   C0FQ22727   7.022   8.834   6.969
   33SBC   H01822728   7.065   8.744   7.010
   33SBC   C0FP22729   6.884   8.846   6.974
   33SBC   H01922730   6.808   8.776   7.003
   33SBC   C0FO22731   6.829   8.966   6.928
   33SBC   H01A22732   6.722   8.968   6.918
   33SBC   C0F822733   7.245   8.926   6.936
   33SBC   C0F922734   6.909   9.064   6.868
   33SBC   C0FA22735   6.845   9.166   6.798
   33SBC   H01522736   6.740   9.151   6.780
   33SBC   C0FB22737   6.914   9.272   6.741
   33SBC   C0FD22738   7.054   9.273   6.757
   33SBC   C0FC22739   6.831   9.374   6.679
   33SBC   O00A22740   6.712   9.379   6.680
   33SBC   C0EV22741   7.129   9.574   6.573
   33SBC   C0EF22742   7.313   9.740   6.447
   33SBC   C0EI22743   7.583   9.690   6.426
   33SBC   C0DQ22744   7.717   9.659   6.396
   33SBC   C0CE22745   7.973   9.586   6.316
   33SBC   H00U22746   7.966   9.886   6.165
   33SBC   C0CA22747   8.173   9.801   6.003
   33SBC   C0C922748   8.317   9.787   5.993
   33SBC   C0C822749   8.384   9.848   5.880
   33SBC   C0C722750   8.523   9.885   5.861
   33SBC   C0C622751   8.546   9.952   5.737
   33SBC   C0C522752   8.643  10.046   5.688
   33SBC   C0CQ22753   8.593  10.129   5.584
   33SBC   C0D122754   8.456  10.143   5.567
   33SBC   C0D822755   8.421  10.267   5.529
   33SBC   C0D722756   8.541  10.332   5.488
   33SBC   C0D622757   8.558  10.468   5.480
   33SBC   C0D522758   8.681  10.534   5.463
   33SBC   C0D422759   8.815  10.484   5.451
   33SBC   C0D322760   8.898  10.589   5.489
   33SBC   C0CX22761   9.023  10.544   5.535
   33SBC   C0CW22762   8.993  10.409   5.580
   33SBC   C0CV22763   9.065  10.308   5.659
   33SBC   C0D222764   9.207  10.316   5.677
   33SBC   C09D22765   9.298  10.417   5.621
   33SBC   C09C22766   9.440  10.398   5.636
   33SBC   C09B22767   9.532  10.469   5.557
   33SBC   C09A22768   9.482  10.572   5.475
   33SBC   C09922769   9.357  10.619   5.492
   33SBC   C09822770   9.321  10.692   5.374
   33SBC   C08Y22771   9.424  10.673   5.276
   33SBC   C08X22772   9.420  10.687   5.128
   33SBC   C08W22773   9.298  10.715   5.053
   33SBC   C08U22774   9.163  10.731   5.107
   33SBC   C08V22775   9.109  10.705   5.237
   33SBC   C0DC22776   8.973  10.754   5.227
   33SBC   H00W22777   8.910  10.762   5.315
   33SBC   C0DB22778   8.933  10.792   5.099
   33SBC   H00X22779   8.838  10.831   5.065
   33SBC   C08T22780   9.055  10.778   5.026
   33SBC   C08S22781   9.072  10.800   4.890
   33SBC   H00N22782   8.989  10.831   4.827
   33SBC   C08R22783   9.192  10.760   4.831
   33SBC   C08Q22784   9.205  10.755   4.698
   33SBC   H00O22785   9.120  10.795   4.645
   33SBC   C08P22786   9.311  10.709   4.622
   33SBC   C08O22787   9.319  10.693   4.477
   33SBC   H00P22788   9.234  10.713   4.414
   33SBC   C08N22789   9.442  10.667   4.412
   33SBC   C08M22790   9.447  10.652   4.268
   33SBC   O00822791   9.345  10.660   4.199
   33SBC   O00722792   9.569  10.634   4.209
   33SBC   C08H22793   9.683  10.615   4.283
   33SBC   C08G22794   9.813  10.605   4.221
   33SBC   C03V22795   9.844  10.619   4.084
   33SBC   H00922796   9.773  10.643   4.006
   33SBC   C03U22797   9.974  10.583   4.029
   33SBC   C03W22798  10.013  10.596   3.895
   33SBC   H00A22799   9.943  10.630   3.820
   33SBC   C03X22800  10.140  10.558   3.863
   33SBC   H00B22801  10.173  10.566   3.761
   33SBC   O00522802  10.241  10.517   3.948
   33SBC   C03O22803  10.204  10.514   4.077
   33SBC   C03N22804  10.298  10.470   4.177
   33SBC   O00022805  10.428  10.452   4.133
   33SBC   C01922806  10.512  10.365   4.202
   33SBC   C01822807  10.474  10.334   4.335
   33SBC   C01722808  10.354  10.382   4.386
   33SBC   C01622809  10.326  10.364   4.522
   33SBC   C01522810  10.422  10.297   4.598
   33SBC   C01422811  10.406  10.273   4.733
   33SBC   C01322812  10.286  10.319   4.797
   33SBC   C01222813  10.303  10.267   4.930
   33SBC   C01122814  10.429  10.200   4.936
   33SBC   C01022815  10.484  10.143   5.047
   33SBC   C00Z22816  10.592  10.053   5.062
   33SBC   C00Y22817  10.562   9.990   5.185
   33SBC   C01O22818  10.449  10.042   5.246
   33SBC   C01P22819  10.365   9.959   5.323
   33SBC   C02L22820  10.232  10.002   5.341
   33SBC   C02K22821  10.194  10.116   5.268
   33SBC   C01M22822  10.265  10.172   5.158
   33SBC   C02J22823  10.077  10.174   5.322
   33SBC   C02I22824  10.011  10.284   5.276
   33SBC   C02H22825  10.032  10.368   5.167
   33SBC   C01Q22826  10.119  10.355   5.059
   33SBC   C02G22827  10.076  10.446   4.958
   33SBC   C08922828   9.976  10.529   5.019
   33SBC   C08822829   9.889  10.567   4.916
   33SBC   C08722830   9.962  10.526   4.792
   33SBC   C08622831   9.913  10.547   4.663
   33SBC   C03S22832   9.982  10.526   4.540
   33SBC   N00622833   9.900  10.569   4.440
   33SBC   C08F22834   9.779  10.589   4.494
   33SBC   C01J22835  10.110  10.477   4.496
   33SBC   C03R22836  10.135  10.483   4.359
   33SBC   C03Q22837  10.042  10.531   4.259
   33SBC   C08E22838   9.778  10.588   4.628
   33SBC   C08D22839   9.668  10.634   4.707
   33SBC   C08K22840   9.550  10.658   4.632
   33SBC   C08C22841   9.656  10.640   4.846
   33SBC   C09122842   9.535  10.677   4.909
   33SBC   C09222843   9.418  10.695   4.836
   33SBC   C08B22844   9.752  10.608   4.947
   33SBC   C09022845   9.678  10.626   5.077
   33SBC   C09422846   9.733  10.591   5.204
   33SBC   C09522847   9.659  10.572   5.323
   33SBC   C09R22848   9.713  10.475   5.404
   33SBC   C09722849   9.824  10.427   5.343
   33SBC   C09622850   9.838  10.499   5.225
   33SBC   C01I22851  10.086  10.454   4.815
   33SBC   C08A22852   9.948  10.475   5.143
   33SBC   C09L22853   9.918  10.323   5.372
   33SBC   C09K22854   9.909  10.223   5.473
   33SBC   C09J22855   9.821  10.223   5.586
   33SBC   C09I22856   9.794  10.100   5.653
   33SBC   C09O22857   9.850   9.962   5.661
   33SBC   C09N22858   9.965   9.918   5.595
   33SBC   C09M22859  10.045   9.992   5.498
   33SBC   C06O22860  10.007   9.788   5.628
   33SBC   C05M22861   9.946   9.703   5.719
   33SBC   C06P22862   9.826   9.752   5.778
   33SBC   C04222863   9.999   9.583   5.756
   33SBC   C04122864  10.116   9.530   5.700
   33SBC   C04022865  10.165   9.408   5.730
   33SBC   C03Z22866  10.279   9.356   5.669
   33SBC   C03Y22867  10.350   9.437   5.589
   33SBC   C02722868  10.466   9.384   5.527
   33SBC   C02622869  10.549   9.462   5.453
   33SBC   C02822870  10.662   9.418   5.393
   33SBC   C02922871  10.694   9.285   5.412
   33SBC   C02B22872  10.800   9.229   5.338
   33SBC   C02C22873  10.827   9.093   5.353
   33SBC   C02X22874  10.916   9.033   5.262
   33SBC   C03E22875  10.918   8.892   5.259
   33SBC   C03G22876  10.843   8.808   5.334
   33SBC   C04Q22877  10.761   8.869   5.428
   33SBC   C04R22878  10.681   8.786   5.505
   33SBC   C04S22879  10.587   8.846   5.586
   33SBC   C04L22880  10.563   8.983   5.578
   33SBC   C04M22881  10.646   9.067   5.506
   33SBC   C04K22882  10.458   9.036   5.652
   33SBC   C04F22883  10.388   8.955   5.740
   33SBC   C04E22884  10.414   8.821   5.751
   33SBC   C04D22885  10.348   8.748   5.844
   33SBC   C05022886  10.368   8.612   5.848
   33SBC   C05122887  10.290   8.532   5.933
   33SBC   C05Q22888  10.297   8.398   5.925
   33SBC   C05V22889  10.219   8.323   6.014
   33SBC   N00522890  10.222   8.189   6.003
   33SBC   C07V22891  10.279   8.125   5.891
   33SBC   C08222892  10.260   7.989   5.867
   33SBC   C08122893  10.192   7.904   5.952
   33SBC   C07C22894  10.143   7.967   6.066
   33SBC   C07B22895  10.078   7.889   6.164
   33SBC   C08022896  10.060   7.745   6.150
   33SBC   C07Z22897  10.013   7.673   6.259
   33SBC   H00L22898  10.019   7.565   6.255
   33SBC   C07922899   9.968   7.729   6.378
   33SBC   C07822900   9.977   7.867   6.386
   33SBC   C07722901   9.929   7.930   6.500
   33SBC   C07X22902   9.879   7.856   6.609
   33SBC   H00I22903   9.841   7.903   6.699
   33SBC   C07Y22904   9.877   7.716   6.601
   33SBC   H00H22905   9.843   7.661   6.687
   33SBC   C07622906   9.904   8.066   6.495
   33SBC   C06C22907   9.817   8.129   6.589
   33SBC   H00C22908   9.771   8.086   6.677
   33SBC   C06F22909   9.953   8.142   6.392
   33SBC   C06E22910   9.922   8.272   6.371
   33SBC   C06G22911   9.974   8.359   6.281
   33SBC   C06H22912  10.065   8.302   6.192
   33SBC   C06I22913  10.083   8.164   6.191
   33SBC   C06L22914   9.936   8.498   6.272
   33SBC   C06M22915   9.826   8.554   6.347
   33SBC   C06K22916  10.017   8.577   6.194
   33SBC   C05S22917  10.118   8.519   6.112
   33SBC   C05U22918   9.986   8.711   6.181
   33SBC   C05X22919   9.872   8.774   6.257
   33SBC   C05G22920   9.862   8.916   6.226
   33SBC   C05F22921   9.951   8.978   6.140
   33SBC   C05E22922   9.908   9.108   6.113
   33SBC   C04822923   9.972   9.187   6.020
   33SBC   C05622924   9.917   9.307   5.982
   33SBC   C04522925   9.987   9.383   5.889
   33SBC   C04722926  10.082   9.130   5.960
   33SBC   C04922927  10.123   8.999   5.981
   33SBC   C04B22928  10.220   8.940   5.907
   33SBC   C04622929  10.149   9.202   5.864
   33SBC   C04H22930  10.252   9.145   5.789
   33SBC   C05D22931   9.787   9.138   6.175
   33SBC   C04A22932  10.051   8.920   6.068
   33SBC   C05T22933  10.071   8.782   6.093
   33SBC   C05522934  10.176   8.727   6.015
   33SBC   C06D22935   9.826   8.329   6.454
   33SBC   C07W22936  10.026   8.083   6.288
   33SBC   C08522937   9.923   7.657   6.489
   33SBC   H00M22938   9.914   7.550   6.485
   33SBC   C08422939  10.107   7.689   6.030
   33SBC   H00J22940  10.092   7.584   6.014
   33SBC   C07A22941  10.032   7.946   6.281
   33SBC   C08322942  10.164   7.769   5.929
   33SBC   H00K22943  10.198   7.727   5.835
   33SBC   O00K22944  10.308   7.934   5.750
   33SBC   C0GO22945  10.364   8.011   5.652
   33SBC   C0GN22946  10.414   7.961   5.528
   33SBC   H01L22947  10.385   7.859   5.503
   33SBC   C0GM22948  10.489   8.041   5.440
   33SBC   C0GL22949  10.531   7.988   5.326
   33SBC   H01M22950  10.509   7.883   5.311
   33SBC   O00J22951  10.619   8.051   5.245
   33SBC   C0GK22952  10.653   8.179   5.284
   33SBC   H01N22953  10.713   8.228   5.208
   33SBC   C05K22954  10.613   8.237   5.399
   33SBC   C05J22955  10.646   8.374   5.426
   33SBC   C04Y22956  10.735   8.454   5.356
   33SBC   C04X22957  10.750   8.590   5.382
   33SBC   O00622958  10.806   8.404   5.258
   33SBC   C05322959  10.869   8.475   5.164
   33SBC   C04O22960  10.895   8.615   5.184
   33SBC   C03C22961  10.964   8.704   5.099
   33SBC   C03B22962  11.015   8.693   4.968
   33SBC   C05422963  10.983   8.584   4.887
   33SBC   C0GR22964  11.016   8.579   4.745
   33SBC   C03M22965  11.068   8.676   4.647
   33SBC   C03I22966  11.081   8.817   4.671
   33SBC   C03J22967  11.107   8.898   4.559
   33SBC   N00222968  11.125   9.038   4.571
   33SBC   C02U22969  11.154   9.117   4.451
   33SBC   C02T22970  11.152   9.250   4.455
   33SBC   C02Z22971  11.170   9.326   4.335
   33SBC   N00122972  11.171   9.465   4.333
   33SBC   C02R22973  11.188   9.534   4.208
   33SBC   C03222974  11.197   9.464   4.087
   33SBC   C03122975  11.195   9.325   4.090
   33SBC   H00722976  11.186   9.271   3.997
   33SBC   C03322977  11.206   9.548   3.973
   33SBC   H00322978  11.219   9.498   3.879
   33SBC   O00422979  11.200   9.686   3.971
   33SBC   C03422980  11.189   9.749   4.096
   33SBC   C03522981  11.187   9.886   4.095
   33SBC   C03622982  11.171   9.954   4.221
   33SBC   H00522983  11.173  10.061   4.217
   33SBC   C03722984  11.171   9.886   4.339
   33SBC   H00622985  11.158   9.938   4.433
   33SBC   C00D22986  11.162   9.742   4.338
   33SBC   C00C22987  11.138   9.671   4.454
   33SBC   C00B22988  11.078   9.735   4.575
   33SBC   C00A22989  11.009   9.858   4.617
   33SBC   C00922990  10.988   9.844   4.759
   33SBC   C00822991  10.878   9.891   4.830
   33SBC   C00722992  10.797   9.983   4.764
   33SBC   C00622993  10.697  10.045   4.837
   33SBC   C00522994  10.615  10.138   4.763
   33SBC   C00422995  10.633  10.161   4.625
   33SBC   C00322996  10.737  10.092   4.558
   33SBC   C00222997  10.752  10.105   4.422
   33SBC   C01C22998  10.674  10.200   4.353
   33SBC   C01B22999  10.715  10.240   4.220
   33SBC   H00023000  10.805  10.199   4.177
   33SBC   C00123001  10.837  10.015   4.352
   33SBC   C00023002  10.888   9.909   4.421
   33SBC   C01U23003  10.879   9.802   4.334
   33SBC   H00223004  10.886   9.696   4.355
   33SBC   C01T23005  10.840   9.851   4.197
   33SBC   O00223006  10.842   9.797   4.090
   33SBC   O00123007  10.801   9.982   4.224
   33SBC   C01S23008  10.813  10.002   4.632
   33SBC   C00N23009  10.855   9.834   4.955
   33SBC   C00M23010  10.909   9.711   4.994
   33SBC   C00J23011  10.998   9.648   4.913
   33SBC   C00I23012  11.024   9.512   4.920
   33SBC   C00H23013  11.077   9.444   4.812
   33SBC   C00G23014  11.103   9.516   4.692
   33SBC   C00F23015  11.130   9.455   4.574
   33SBC   C01X23016  11.089   9.306   4.815
   33SBC   C01W23017  11.063   9.240   4.932
   33SBC   C01V23018  11.002   9.310   5.040
   33SBC   C02023019  10.959   9.239   5.153
   33SBC   C01Z23020  11.063   9.103   4.928
   33SBC   C02Y23021  11.037   9.041   5.046
   33SBC   C03923022  11.019   8.910   5.037
   33SBC   C02W23023  11.080   9.030   4.805
   33SBC   C01Y23024  11.118   9.242   4.693
   33SBC   C00U23025  10.979   9.445   5.032
   33SBC   C00S23026  10.899   9.507   5.128
   33SBC   C00T23027  10.842   9.439   5.230
   33SBC   C00R23028  10.866   9.639   5.106
   33SBC   C00Q23029  10.763   9.700   5.180
   33SBC   C00V23030  10.696   9.621   5.283
   33SBC   C02423031  10.582   9.671   5.341
   33SBC   C00X23032  10.543   9.797   5.316
   33SBC   C00P23033  10.720   9.828   5.150
   33SBC   C00O23034  10.763   9.895   5.034
   33SBC   C00K23035  11.045   9.720   4.801
   33SBC   N00023036  10.900   9.920   4.557
   33SBC   C00L23037  11.089   9.656   4.691
   33SBC   H00423038  11.186   9.944   4.004
   33SBC   C02Q23039  11.181   9.674   4.219
   33SBC   C00E23040  11.146   9.532   4.459
   33SBC   C03023041  11.191   9.258   4.212
   33SBC   O00323042  11.200   9.123   4.210
   33SBC   C02S23043  11.135   9.316   4.572
   33SBC   C03823044  11.169   9.050   4.326
   33SBC   C03L23045  11.166   8.918   4.317
   33SBC   H00823046  11.192   8.877   4.221
   33SBC   C02V23047  11.108   9.102   4.694
   33SBC   C03K23048  11.134   8.841   4.428
   33SBC   C0BK23049  11.128   8.702   4.424
   33SBC   H00T23050  11.144   8.665   4.324
   33SBC   C03H23051  11.071   8.890   4.791
   33SBC   C0BL23052  11.092   8.618   4.524
   33SBC   C0GU23053  11.082   8.479   4.502
   33SBC   H01O23054  11.096   8.443   4.401
   33SBC   C0GT23055  11.029   8.389   4.585
   33SBC   H01P23056  11.021   8.284   4.561
   33SBC   C0GS23057  10.999   8.444   4.703
   33SBC   C0GV23058  10.961   8.366   4.816
   33SBC   C0GW23059  10.940   8.229   4.824
   33SBC   H01Q23060  10.963   8.160   4.744
   33SBC   C0GX23061  10.884   8.194   4.943
   33SBC   H01R23062  10.859   8.090   4.959
   33SBC   O00L23063  10.855   8.277   5.052
   33SBC   C0GQ23064  10.943   8.456   4.924
   33SBC   C03A23065  11.042   8.828   4.922
   33SBC   C05L23066  10.896   8.406   5.047
   33SBC   C04W23067  10.584   8.426   5.540
   33SBC   C05I23068  10.509   8.351   5.629
   33SBC   C05O23069  10.482   8.219   5.603
   33SBC   C05223070  10.454   8.411   5.740
   33SBC   C04V23071  10.603   8.564   5.568
   33SBC   C04U23072  10.528   8.625   5.667
   33SBC   N00923073  10.524   8.168   5.483
   33SBC   C0GP23074  10.398   8.144   5.684
   33SBC   C05W23075  10.347   8.202   5.798
   33SBC   C07D23076  10.143   8.107   6.086
   33SBC   C06J23077  10.136   8.381   6.106
   33SBC   C05P23078  10.371   8.336   5.825
   33SBC   C05R23079  10.200   8.592   6.027
   33SBC   C04Z23080  10.453   8.551   5.758
   33SBC   C04C23081  10.245   8.810   5.924
   33SBC   C04G23082  10.290   9.016   5.814
   33SBC   C04J23083  10.431   9.169   5.637
   33SBC   C04T23084  10.510   8.761   5.665
   33SBC   N00323085  10.681   8.644   5.487
   33SBC   C04P23086  10.840   8.669   5.305
   33SBC   C03D23087  10.985   8.832   5.146
   33SBC   C02123088  10.977   9.104   5.158
   33SBC   C03F23089  10.749   9.008   5.435
   33SBC   C02223090  10.872   9.304   5.245
   33SBC   C02A23091  10.618   9.201   5.492
   33SBC   C02323092  10.737   9.495   5.302
   33SBC   C02523093  10.509   9.591   5.430
   33SBC   C02D23094  10.378   9.636   5.469
   33SBC   C02E23095  10.328   9.755   5.433
   33SBC   C02N23096  10.205   9.809   5.481
   33SBC   C04N23097  10.503   9.251   5.550
   33SBC   C02P23098  10.305   9.564   5.560
   33SBC   C04I23099  10.323   9.223   5.697
   33SBC   C04423100  10.101   9.329   5.826
   33SBC   C04323101  10.188   9.613   5.614
   33SBC   C05N23102  10.127   9.735   5.572
   33SBC   C09U23103   9.775   9.875   5.744
   33SBC   C09V23104   9.644   9.911   5.794
   33SBC   C09X23105   9.584  10.030   5.761
   33SBC   C09Y23106   9.455  10.064   5.790
   33SBC   C0A123107   9.377   9.976   5.862
   33SBC   C0A223108   9.437   9.864   5.915
   33SBC   C0A423109   9.367   9.783   5.999
   33SBC   C07123110   9.426   9.668   6.050
   33SBC   C0A523111   9.347   9.577   6.122
   33SBC   C0A923112   9.212   9.604   6.139
   33SBC   C0A823113   9.158   9.722   6.088
   33SBC   C0AP23114   9.021   9.745   6.104
   33SBC   C0BY23115   8.971   9.847   6.032
   33SBC   C0BX23116   9.036   9.934   5.956
   33SBC   C0C223117   8.973  10.021   5.868
   33SBC   C0C323118   9.045  10.109   5.795
   33SBC   C0CT23119   9.185  10.108   5.811
   33SBC   C0C123120   8.835  10.009   5.844
   33SBC   C0C023121   8.756   9.929   5.935
   33SBC   C0A723122   9.174   9.919   5.954
   33SBC   C0BZ23123   8.832   9.864   6.029
   33SBC   C0BO23124   8.749   9.764   6.084
   33SBC   C0BN23125   8.802   9.652   6.153
   33SBC   C0BM23126   8.717   9.555   6.191
   33SBC   C0B923127   8.770   9.438   6.232
   33SBC   C0B823128   8.909   9.416   6.237
   33SBC   C0AD23129   8.994   9.521   6.198
   33SBC   C0AF23130   8.960   9.287   6.271
   33SBC   C0AG23131   8.879   9.181   6.312
   33SBC   C0B723132   8.740   9.208   6.307
   33SBC   C0AE23133   9.095   9.280   6.262
   33SBC   C0AB23134   9.182   9.382   6.224
   33SBC   C0AA23135   9.319   9.360   6.215
   33SBC   C0AJ23136   9.148   9.156   6.300
   33SBC   C0AK23137   9.285   9.136   6.290
   33SBC   C06W23138   9.302   9.010   6.340
   33SBC   C0AI23139   9.076   9.043   6.344
   33SBC   C0BP23140   8.615   9.774   6.049
   33SBC   C0BQ23141   8.520   9.675   6.099
   33SBC   C0BW23142   8.939   9.643   6.160
   33SBC   C0AC23143   9.131   9.505   6.191
   33SBC   C0A623144   9.232   9.809   6.016
   33SBC   C0A323145   9.247  10.007   5.882
   33SBC   C09Z23146   9.401  10.184   5.750
   33SBC   C09W23147   9.572   9.826   5.874
   33SBC   C07223148   9.628   9.707   5.917
   33SBC   C09H23149   9.668  10.128   5.706
   33SBC   C09G23150   9.620  10.257   5.686
   33SBC   C09P23151   9.707  10.317   5.600
   33SBC   C02O23152  10.006  10.125   5.439
   33SBC   C02M23153  10.160   9.935   5.442
   33SBC   C02F23154  10.415   9.838   5.364
   33SBC   C00W23155  10.614   9.869   5.223
   33SBC   C01R23156  10.686  10.000   4.971
   33SBC   C01N23157  10.394  10.123   5.149
   33SBC   C01L23158  10.226  10.264   5.053
   33SBC   C01H23159  10.186  10.396   4.730
   33SBC   C01K23160  10.494  10.204   4.812
   33SBC   C01E23161  10.538  10.235   4.548
   33SBC   C01G23162  10.202  10.413   4.584
   33SBC   C01D23163  10.557  10.254   4.412
   33SBC   C01A23164  10.629  10.318   4.147
   33SBC   H00123165  10.645  10.340   4.042
   33SBC   C01F23166  10.258  10.444   4.309
   33SBC   C03P23167  10.071  10.543   4.123
   33SBC   C03T23168   9.920  10.572   4.302
   33SBC   C08I23169   9.673  10.626   4.422
   33SBC   C08J23170   9.557  10.657   4.489
   33SBC   C08L23171   9.428  10.688   4.698
   33SBC   C09323172   9.301  10.723   4.909
   33SBC   C08Z23173   9.538  10.666   5.051
   33SBC   C09T23174   9.183  10.663   5.357
   33SBC   C09S23175   9.529  10.616   5.355
   33SBC   C09Q23176   9.658  10.420   5.519
   33SBC   C09F23177   9.482  10.286   5.700
   33SBC   C09E23178   9.265  10.533   5.535
   33SBC   C0A023179   9.263  10.206   5.750
   33SBC   C0CU23180   8.989  10.200   5.704
   33SBC   C0CR23181   8.847  10.182   5.675
   33SBC   C0CZ23182   8.786  10.265   5.575
   33SBC   C0DA23183   9.148  10.583   5.478
   33SBC   C0D923184   8.820  10.703   5.539
   33SBC   H00V23185   8.861  10.783   5.599
   33SBC   C0CY23186   8.861  10.380   5.532
   33SBC   C0DF23187   8.679  10.662   5.525
   33SBC   C0DE23188   8.543  10.691   5.551
   33SBC   C0GI23189   8.477  10.799   5.609
   33SBC   H01K23190   8.534  10.886   5.639
   33SBC   C0GJ23191   8.340  10.800   5.611
   33SBC   H01J23192   8.285  10.883   5.652
   33SBC   O00I23193   8.267  10.691   5.564
   33SBC   C0GH23194   8.331  10.567   5.551
   33SBC   C0GG23195   8.248  10.452   5.556
   33SBC   O00G23196   8.121  10.483   5.578
   33SBC   C0G823197   8.022  10.388   5.617
   33SBC   C0G923198   7.891  10.434   5.615
   33SBC   H01G23199   7.879  10.525   5.559
   33SBC   C0GA23200   7.787  10.354   5.662
   33SBC   H01H23201   7.685  10.387   5.664
   33SBC   C0GB23202   7.819  10.225   5.716
   33SBC   C0EP23203   7.953  10.178   5.720
   33SBC   C0E823204   7.994  10.058   5.798
   33SBC   C0CK23205   8.112   9.994   5.844
   33SBC   C0CL23206   8.220   9.987   5.759
   33SBC   C0E923207   8.252  10.092   5.667
   33SBC   C0GE23208   8.196  10.225   5.627
   33SBC   C0E723209   7.891   9.976   5.851
   33SBC   C0CJ23210   7.936   9.860   5.916
   33SBC   C0E623211   7.836   9.770   5.953
   33SBC   H00Y23212   7.856   9.673   5.997
   33SBC   C0EO23213   7.702   9.810   5.955
   33SBC   H01123214   7.629   9.746   6.002
   33SBC   C0G623215   7.664   9.939   5.910
   33SBC   C0G523216   7.535  10.007   5.927
   33SBC   H01F23217   7.460   9.958   5.987
   33SBC   C0GD23218   7.506  10.123   5.871
   33SBC   H01I23219   7.411  10.167   5.896
   33SBC   O00H23220   7.589  10.190   5.783
   33SBC   C0EQ23221   7.756  10.021   5.843
   33SBC   C0GC23222   7.721  10.143   5.775
   33SBC   C0G723223   8.059  10.255   5.663
   33SBC   C0DD23224   8.467  10.571   5.522
   33SBC   C0GF23225   8.290  10.316   5.563
   33SBC   C0CO23226   8.376  10.048   5.618
   33SBC   C0D023227   8.647  10.248   5.550
   33SBC   C0C423228   8.774  10.078   5.738
   33SBC   C0CN23229   8.419   9.924   5.669
   33SBC   C0CP23230   8.618   9.889   5.965
   33SBC   C0CM23231   8.323   9.880   5.758
   33SBC   C0CI23232   8.081   9.880   5.926
   33SBC   C0CD23233   8.104   9.553   6.266
   33SBC   C0BR23234   8.385   9.691   6.083
   33SBC   C0CS23235   8.582   9.566   6.170
   33SBC   C0B623236   8.688   9.331   6.266
   33SBC   C0CG23237   8.282   9.397   6.281
   33SBC   C0CF23238   8.151   9.428   6.307
   33SBC   C0E523239   7.897   9.500   6.389
   33SBC   C0DT23240   7.752   9.329   6.548
   33SBC   C0DL23241   8.052   9.125   6.492
   33SBC   C0DM23242   8.095   8.996   6.520
   33SBC   C0DY23243   7.902   8.950   6.652
   33SBC   C0DU23244   7.695   9.248   6.634
   33SBC   C0F023245   7.499   9.211   6.780
   33SBC   C0F423246   7.326   9.034   6.891
   33SBC   C0FG23247   7.644   8.855   6.883
   33SBC   O00B23248   7.304   8.797   6.970
   33SBC   C0FN23249   7.653   8.725   6.885
   33SBC   C0DZ23250   7.826   8.869   6.733
   33SBC   O00C23251   8.014   8.560   6.679
   33SBC   C0FR23252   8.146   8.521   6.672
   33SBC   O00D23253   8.170   8.412   6.727
   33SBC   C0E023254   8.023   8.904   6.595
   33SBC   C0E323255   8.231   8.604   6.594
   33SBC   C0AW23256   8.366   8.580   6.571
   33SBC   C0AV23257   8.438   8.461   6.622
   33SBC   H00Q23258   8.396   8.374   6.669
   33SBC   C0AU23259   8.577   8.454   6.618
   33SBC   H00R23260   8.630   8.374   6.667
   33SBC   C0AT23261   8.648   8.558   6.561
   33SBC   C0AS23262   8.787   8.607   6.569
   33SBC   C0AR23263   8.878   8.550   6.656
   33SBC   C0BE23264   8.582   8.659   6.501
   33SBC   C0DN23265   8.215   8.959   6.465
   33SBC   C0AX23266   8.445   8.671   6.507
   33SBC   C0BB23267   8.428   9.020   6.382
   33SBC   C0BD23268   8.671   8.757   6.454
   33SBC   C0B223269   8.656   9.102   6.346
   33SBC   C0AH23270   8.931   9.061   6.360
   33SBC   C0BF23271   8.804   8.731   6.495
   33SBC   C0AL23272   9.176   8.944   6.373
   33SBC   C07U23273   9.086   8.634   6.529
   33SBC   C0AQ23274   9.013   8.545   6.607
   33SBC   C0BG23275   8.859   8.420   6.724
   33SBC   C0FY23276   9.122   8.260   6.900
   33SBC   C0BJ23277   8.818   8.418   6.870
   33SBC   H00S23278   8.748   8.483   6.922
   33SBC   C0FZ23279   9.094   8.268   7.038
   33SBC   C07S23280   9.255   8.294   6.861
   33SBC   C0G123281   9.416   8.270   7.200
   33SBC   C07K23282   9.728   8.283   7.000
   33SBC   C07H23283   9.530   8.349   6.799
   33SBC   C06B23284   9.780   8.260   6.560
   33SBC   C06N23285   9.773   8.453   6.440
   33SBC   C06623286   9.431   8.480   6.599
   33SBC   C06223287   9.433   8.754   6.455
   33SBC   C05Y23288   9.787   8.687   6.335
   33SBC   C06123289   9.493   8.885   6.440
   33SBC   C05H23290   9.765   9.018   6.248
   33SBC   C06V23291   9.438   8.988   6.361
   33SBC   C06Y23292   9.372   9.242   6.250
   33SBC   C05C23293   9.722   9.265   6.131
   33SBC   C06Z23294   9.405   9.453   6.163
   33SBC   C07023295   9.557   9.631   6.011
   33SBC   C05B23296   9.793   9.345   6.037
   33SBC   C05723297   9.930   9.505   5.859
   33SBC   C05923298   9.760   9.674   5.874
   34SBC   C05823299   9.553   6.333  14.773
   34SBC   C05A23300   9.501   6.392  14.655
   34SBC   C06Q23301   9.575   6.479  14.582
   34SBC   C06R23302   9.531   6.519  14.457
   34SBC   C06S23303   9.404   6.489  14.408
   34SBC   C06T23304   9.371   6.539  14.281
   34SBC   C06U23305   9.254   6.499  14.190
   34SBC   C06X23306   9.140   6.422  14.206
   34SBC   C06023307   9.066   6.407  14.077
   34SBC   C05Z23308   8.925   6.411  14.058
   34SBC   C06823309   8.909   6.501  13.938
   34SBC   C06723310   8.781   6.537  13.878
   34SBC   C06923311   8.663   6.452  13.902
   34SBC   C06A23312   8.537   6.464  13.844
   34SBC   C07323313   8.458   6.575  13.813
   34SBC   C07P23314   8.322   6.582  13.859
   34SBC   C07O23315   8.263   6.497  13.960
   34SBC   H00D23316   8.322   6.414  13.996
   34SBC   C07N23317   8.133   6.514  14.011
   34SBC   H00E23318   8.088   6.441  14.075
   34SBC   C07M23319   8.056   6.608  13.951
   34SBC   H00F23320   7.959   6.620  13.998
   34SBC   C07L23321   8.104   6.697  13.851
   34SBC   C07Q23322   8.026   6.803  13.786
   34SBC   H00G23323   7.920   6.812  13.805
   34SBC   O00F23324   8.086   6.899  13.701
   34SBC   C07J23325   8.212   6.879  13.659
   34SBC   C07I23326   8.290   6.772  13.709
   34SBC   N00423327   8.428   6.758  13.666
   34SBC   C07R23328   8.471   6.849  13.565
   34SBC   C07T23329   8.389   6.956  13.522
   34SBC   C0FX23330   8.443   7.056  13.438
   34SBC   C0FW23331   8.378   7.175  13.408
   34SBC   C0G023332   8.250   7.184  13.463
   34SBC   C0G223333   8.183   7.302  13.429
   34SBC   H01E23334   8.083   7.312  13.469
   34SBC   C0G323335   8.239   7.399  13.350
   34SBC   H01C23336   8.175   7.482  13.325
   34SBC   C0G423337   8.373   7.386  13.313
   34SBC   H01D23338   8.427   7.471  13.272
   34SBC   O00E23339   8.185   7.082  13.533
   34SBC   C0FV23340   8.449   7.277  13.344
   34SBC   C0FU23341   8.586   7.259  13.310
   34SBC   H01B23342   8.645   7.343  13.275
   34SBC   C0FT23343   8.640   7.128  13.317
   34SBC   C0FS23344   8.768   7.068  13.303
   34SBC   C0BI23345   8.744   6.925  13.313
   34SBC   C0BH23346   8.875   6.864  13.342
   34SBC   C07F23347   8.903   6.811  13.471
   34SBC   C07E23348   8.824   6.750  13.569
   34SBC   C07G23349   8.691   6.745  13.578
   34SBC   C07423350   8.654   6.673  13.694
   34SBC   C06523351   8.877   6.688  13.684
   34SBC   C06423352   9.009   6.718  13.715
   34SBC   C06323353   9.085   6.670  13.825
   34SBC   C07523354   9.216   6.745  13.808
   34SBC   C0AM23355   9.221   6.834  13.689
   34SBC   C0AN23356   9.334   6.923  13.635
   34SBC   C0AO23357   9.469   6.956  13.699
   34SBC   C0B123358   9.565   7.050  13.643
   34SBC   C0B023359   9.526   7.120  13.533
   34SBC   C0AZ23360   9.593   7.232  13.480
   34SBC   C0AY23361   9.542   7.302  13.372
   34SBC   N00723362   9.608   7.422  13.323
   34SBC   C0E223363   9.546   7.503  13.224
   34SBC   C0E123364   9.619   7.613  13.183
   34SBC   C0E423365   9.564   7.694  13.086
   34SBC   C0FF23366   9.626   7.806  13.032
   34SBC   C0FJ23367   9.575   7.907  12.940
   34SBC   C0FK23368   9.453   7.974  12.975
   34SBC   H01623369   9.370   7.940  13.035
   34SBC   C0FL23370   9.475   8.110  12.935
   34SBC   H01723371   9.413   8.196  12.954
   34SBC   C0FM23372   9.600   8.125  12.870
   34SBC   C0FH23373   9.708   8.225  12.882
   34SBC   C0FI23374   9.812   8.142  12.925
   34SBC   C0F323375   9.913   8.200  13.009
   34SBC   C0F223376   9.985   8.108  13.069
   34SBC   C0DW23377   9.947   7.978  13.097
   34SBC   C0FE23378   9.842   7.926  13.022
   34SBC   C0DV23379   9.997   7.904  13.204
   34SBC   C0DX23380   9.938   7.786  13.237
   34SBC   C0DK23381   9.984   7.717  13.350
   34SBC   C0DJ23382  10.089   7.778  13.426
   34SBC   C0DI23383  10.138   7.705  13.534
   34SBC   C0DH23384  10.087   7.577  13.561
   34SBC   C0DG23385   9.978   7.529  13.492
   34SBC   C0BV23386   9.914   7.413  13.539
   34SBC   C0BC23387   9.792   7.376  13.481
   34SBC   C0BA23388   9.965   7.338  13.643
   34SBC   C0B423389   9.891   7.233  13.692
   34SBC   C0B323390   9.766   7.195  13.639
   34SBC   C0B523391   9.943   7.169  13.805
   34SBC   C0BU23392  10.065   7.208  13.859
   34SBC   C0BT23393  10.137   7.311  13.805
   34SBC   C0BS23394  10.251   7.356  13.867
   34SBC   C0CC23395  10.296   7.483  13.844
   34SBC   C0CB23396  10.392   7.539  13.922
   34SBC   C0CH23397  10.387   7.681  13.934
   34SBC   C0DO23398  10.338   7.764  13.826
   34SBC   C0DP23399  10.364   7.904  13.811
   34SBC   C0EA23400  10.432   7.972  13.917
   34SBC   H01223401  10.473   7.910  13.996
   34SBC   O00923402  10.474   8.097  13.913
   34SBC   C0EH23403  10.439   8.165  13.803
   34SBC   C0EG23404  10.475   8.299  13.791
   34SBC   C0EJ23405  10.557   8.388  13.861
   34SBC   H01023406  10.625   8.374  13.944
   34SBC   C0EK23407  10.545   8.522  13.807
   34SBC   H00Z23408  10.578   8.613  13.855
   34SBC   C0EL23409  10.470   8.502  13.690
   34SBC   C0EM23410  10.434   8.597  13.591
   34SBC   C0EW23411  10.464   8.734  13.579
   34SBC   H01323412  10.532   8.781  13.649
   34SBC   C0EX23413  10.398   8.819  13.482
   34SBC   H01423414  10.409   8.926  13.492
   34SBC   C0F123415  10.315   8.761  13.383
   34SBC   C0EU23416  10.303   8.622  13.383
   34SBC   C0ET23417  10.212   8.548  13.302
   34SBC   C0ES23418  10.226   8.416  13.356
   34SBC   C0EE23419  10.310   8.410  13.468
   34SBC   C0ED23420  10.358   8.321  13.566
   34SBC   C0EC23421  10.331   8.179  13.568
   34SBC   C0EB23422  10.264   8.106  13.469
   34SBC   C0EN23423  10.219   8.168  13.342
   34SBC   C0ER23424  10.147   8.084  13.248
   34SBC   C0DS23425  10.224   7.975  13.486
   34SBC   C0DR23426  10.267   7.907  13.598
   34SBC   C0EY23427  10.192   8.299  13.292
   34SBC   C0EZ23428  10.107   8.301  13.176
   34SBC   C0F523429  10.031   8.400  13.100
   34SBC   C0F623430  10.054   8.542  13.115
   34SBC   N00823431   9.961   8.616  13.034
   34SBC   C0F723432   9.851   8.562  12.955
   34SBC   C0FQ23433   9.766   8.651  12.885
   34SBC   H01823434   9.691   8.605  12.823
   34SBC   C0FP23435   9.793   8.784  12.872
   34SBC   H01923436   9.744   8.853  12.804
   34SBC   C0FO23437   9.904   8.834  12.937
   34SBC   H01A23438   9.918   8.940  12.919
   34SBC   C0F823439   9.832   8.419  12.957
   34SBC   C0F923440   9.981   8.758  13.026
   34SBC   C0FA23441  10.079   8.821  13.102
   34SBC   H01523442  10.110   8.923  13.084
   34SBC   C0FB23443  10.152   8.756  13.204
   34SBC   C0FD23444  10.137   8.615  13.206
   34SBC   C0FC23445  10.236   8.836  13.292
   34SBC   O00A23446  10.239   8.961  13.291
   34SBC   C0EV23447  10.356   8.544  13.483
   34SBC   C0EF23448  10.431   8.368  13.678
   34SBC   C0EI23449  10.371   8.106  13.684
   34SBC   C0DQ23450  10.342   7.972  13.694
   34SBC   C0CE23451  10.274   7.698  13.727
   34SBC   H00U23452  10.423   7.724  14.026
   34SBC   C0CA23453  10.486   7.458  13.987
   34SBC   C0C923454  10.447   7.321  14.018
   34SBC   C0C823455  10.544   7.233  14.084
   34SBC   C0C723456  10.521   7.113  14.171
   34SBC   C0C623457  10.633   7.058  14.235
   34SBC   C0C523458  10.658   6.988  14.360
   34SBC   C0CQ23459  10.790   7.001  14.406
   34SBC   C0D123460  10.873   7.100  14.352
   34SBC   C0D823461  10.953   7.150  14.453
   34SBC   C0D723462  10.961   7.045  14.550
   34SBC   C0D623463  11.036   7.043  14.673
   34SBC   C0D523464  11.029   6.944  14.768
   34SBC   C0D423465  10.939   6.837  14.790
   34SBC   C0D323466  10.937   6.809  14.923
   34SBC   C0CX23467  10.810   6.746  14.957
   34SBC   C0CW23468  10.719   6.783  14.844
   34SBC   C0CV23469  10.579   6.768  14.812
   34SBC   C0D223470  10.491   6.698  14.897
   34SBC   C09D23471  10.515   6.650  15.026
   34SBC   C09C23472  10.418   6.590  15.110
   34SBC   C09B23473  10.432   6.523  15.240
   34SBC   C09A23474  10.563   6.529  15.291
   34SBC   C09923475  10.654   6.592  15.225
   34SBC   C09823476  10.778   6.555  15.274
   34SBC   C08Y23477  10.765   6.435  15.364
   34SBC   C08X23478  10.863   6.348  15.410
   34SBC   C08W23479  11.000   6.362  15.372
   34SBC   C08U23480  11.060   6.448  15.273
   34SBC   C08V23481  11.009   6.543  15.171
   34SBC   C0DC23482  11.122   6.601  15.114
   34SBC   H00W23483  11.117   6.669  15.031
   34SBC   C0DB23484  11.239   6.560  15.174
   34SBC   H00X23485  11.342   6.587  15.156
   34SBC   C08T23486  11.200   6.464  15.271
   34SBC   C08S23487  11.284   6.394  15.354
   34SBC   H00N23488  11.392   6.404  15.350
   34SBC   C08R23489  11.233   6.289  15.431
   34SBC   C08Q23490  11.316   6.190  15.496
   34SBC   H00O23491  11.423   6.191  15.480
   34SBC   C08P23492  11.270   6.082  15.570
   34SBC   C08O23493  11.354   5.978  15.626
   34SBC   H00P23494  11.462   5.986  15.621
   34SBC   C08N23495  11.294   5.868  15.691
   34SBC   C08M23496  11.382   5.758  15.732
   34SBC   O00823497  11.502   5.758  15.718
   34SBC   O00723498  11.327   5.655  15.792
   34SBC   C08H23499  11.187   5.650  15.819
   34SBC   C08G23500  11.127   5.525  15.871
   34SBC   C03V23501  11.185   5.407  15.917
   34SBC   H00923502  11.293   5.402  15.919
   34SBC   C03U23503  11.107   5.298  15.961
   34SBC   C03W23504  11.166   5.168  15.997
   34SBC   H00A23505  11.273   5.154  15.996
   34SBC   C03X23506  11.089   5.065  16.037
   34SBC   H00B23507  11.130   4.969  16.065
   34SBC   O00523508  10.951   5.080  16.054
   34SBC   C03O23509  10.896   5.188  16.001
   34SBC   C03N23510  10.758   5.194  15.996
   34SBC   O00023511  10.695   5.081  16.035
   34SBC   C01923512  10.560   5.078  16.016
   34SBC   C01823513  10.486   5.193  15.970
   34SBC   C01723514  10.554   5.312  15.940
   34SBC   C01623515  10.482   5.420  15.891
   34SBC   C01523516  10.345   5.393  15.877
   34SBC   C01423517  10.271   5.499  15.821
   34SBC   C01323518  10.328   5.619  15.775
   34SBC   C01223519  10.205   5.680  15.718
   34SBC   C01123520  10.094   5.599  15.743
   34SBC   C01023521   9.965   5.642  15.722
   34SBC   C00Z23522   9.854   5.571  15.731
   34SBC   C00Y23523   9.754   5.655  15.680
   34SBC   C01O23524   9.809   5.772  15.633
   34SBC   C01P23525   9.763   5.848  15.523
   34SBC   C02L23526   9.853   5.934  15.463
   34SBC   C02K23527   9.986   5.941  15.521
   34SBC   C01M23528  10.048   5.841  15.611
   34SBC   C02J23529  10.060   6.049  15.468
   34SBC   C02I23530  10.189   6.084  15.506
   34SBC   C02H23531  10.282   6.017  15.587
   34SBC   C01Q23532  10.289   5.896  15.644
   34SBC   C02G23533  10.416   5.880  15.704
   34SBC   C08923534  10.489   5.997  15.689
   34SBC   C08823535  10.630   5.974  15.686
   34SBC   C08723536  10.636   5.839  15.743
   34SBC   C08623537  10.761   5.774  15.773
   34SBC   C03S23538  10.777   5.648  15.830
   34SBC   N00623539  10.915   5.630  15.845
   34SBC   C08F23540  10.977   5.739  15.794
   34SBC   C01J23541  10.693   5.540  15.864
   34SBC   C03R23542  10.766   5.427  15.909
   34SBC   C03Q23543  10.902   5.414  15.911
   34SBC   C08E23544  10.890   5.830  15.747
   34SBC   C08D23545  10.936   5.948  15.682
   34SBC   C08K23546  11.076   5.963  15.663
   34SBC   C08C23547  10.861   6.050  15.625
   34SBC   C09123548  10.917   6.150  15.547
   34SBC   C09223549  11.054   6.167  15.523
   34SBC   C08B23550  10.725   6.068  15.617
   34SBC   C09023551  10.698   6.197  15.554
   34SBC   C09423552  10.570   6.261  15.546
   34SBC   C09523553  10.535   6.365  15.456
   34SBC   C09R23554  10.403   6.365  15.415
   34SBC   C09723555  10.342   6.259  15.468
   34SBC   C09623556  10.442   6.196  15.552
   34SBC   C01I23557  10.505   5.775  15.754
   34SBC   C08A23558  10.408   6.080  15.611
   34SBC   C09L23559  10.218   6.204  15.453
   34SBC   C09K23560  10.114   6.237  15.361
   34SBC   C09J23561  10.111   6.340  15.272
   34SBC   C09I23562  10.016   6.359  15.167
   34SBC   C09O23563   9.884   6.315  15.126
   34SBC   C09N23564   9.824   6.205  15.195
   34SBC   C09M23565   9.878   6.127  15.303
   34SBC   C06O23566   9.696   6.171  15.142
   34SBC   C05M23567   9.645   6.231  15.021
   34SBC   C06P23568   9.722   6.320  14.946
   34SBC   C04223569   9.522   6.196  14.970
   34SBC   C04123570   9.448   6.097  15.035
   34SBC   C04023571   9.323   6.053  14.988
   34SBC   C03Z23572   9.254   5.944  15.040
   34SBC   C03Y23573   9.304   5.881  15.146
   34SBC   C02723574   9.240   5.763  15.195
   34SBC   C02623575   9.294   5.688  15.298
   34SBC   C02823576   9.238   5.567  15.339
   34SBC   C02923577   9.128   5.520  15.271
   34SBC   C02B23578   9.089   5.388  15.295
   34SBC   C02C23579   8.988   5.334  15.223
   34SBC   C02X23580   8.949   5.206  15.249
   34SBC   C03E23581   8.843   5.162  15.173
   34SBC   C03G23582   8.780   5.226  15.071
   34SBC   C04Q23583   8.822   5.352  15.044
   34SBC   C04R23584   8.765   5.424  14.941
   34SBC   C04S23585   8.807   5.553  14.911
   34SBC   C04L23586   8.908   5.610  14.988
   34SBC   C04M23587   8.961   5.541  15.094
   34SBC   C04K23588   8.964   5.734  14.950
   34SBC   C04F23589   8.908   5.801  14.847
   34SBC   C04E23590   8.802   5.746  14.775
   34SBC   C04D23591   8.749   5.815  14.663
   34SBC   C05023592   8.643   5.761  14.593
   34SBC   C05123593   8.588   5.828  14.485
   34SBC   C05Q23594   8.478   5.774  14.422
   34SBC   C05V23595   8.427   5.839  14.310
   34SBC   N00523596   8.308   5.800  14.254
   34SBC   C07V23597   8.234   5.702  14.307
   34SBC   C08223598   8.123   5.645  14.244
   34SBC   C08123599   8.064   5.715  14.137
   34SBC   C07C23600   8.129   5.822  14.085
   34SBC   C07B23601   8.079   5.889  13.974
   34SBC   C08023602   7.957   5.852  13.911
   34SBC   C07Z23603   7.922   5.906  13.790
   34SBC   H00L23604   7.830   5.883  13.738
   34SBC   C07923605   8.000   6.000  13.721
   34SBC   C07823606   8.121   6.033  13.783
   34SBC   C07723607   8.202   6.130  13.723
   34SBC   C07X23608   8.154   6.193  13.600
   34SBC   H00I23609   8.213   6.270  13.552
   34SBC   C07Y23610   8.043   6.154  13.532
   34SBC   H00H23611   8.015   6.194  13.435
   34SBC   C07623612   8.312   6.172  13.789
   34SBC   C06C23613   8.370   6.294  13.747
   34SBC   H00C23614   8.322   6.373  13.693
   34SBC   C06F23615   8.363   6.108  13.896
   34SBC   C06E23616   8.484   6.143  13.954
   34SBC   C06G23617   8.531   6.099  14.076
   34SBC   C06H23618   8.456   5.996  14.134
   34SBC   C06I23619   8.335   5.960  14.075
   34SBC   C06L23620   8.648   6.160  14.134
   34SBC   C06M23621   8.719   6.274  14.076
   34SBC   C06K23622   8.686   6.104  14.257
   34SBC   C05S23623   8.615   5.996  14.313
   34SBC   C05U23624   8.795   6.155  14.326
   34SBC   C05X23625   8.874   6.263  14.263
   34SBC   C05G23626   8.983   6.303  14.348
   34SBC   C05F23627   9.001   6.255  14.479
   34SBC   C05E23628   9.123   6.290  14.533
   34SBC   C04823629   9.166   6.240  14.654
   34SBC   C05623630   9.298   6.269  14.687
   34SBC   C04523631   9.344   6.215  14.808
   34SBC   C04723632   9.092   6.148  14.720
   34SBC   C04923633   8.978   6.100  14.652
   34SBC   C04B23634   8.913   5.988  14.699
   34SBC   C04623635   9.144   6.080  14.833
   34SBC   C04H23636   9.074   5.973  14.885
   34SBC   C05D23637   9.189   6.379  14.447
   34SBC   C04A23638   8.926   6.151  14.533
   34SBC   C05T23639   8.828   6.101  14.455
   34SBC   C05523640   8.762   5.994  14.507
   34SBC   C06D23641   8.549   6.256  13.909
   34SBC   C07W23642   8.288   6.013  13.959
   34SBC   C08523643   7.972   6.051  13.593
   34SBC   H00M23644   7.880   6.021  13.543
   34SBC   C08423645   7.881   5.755  13.984
   34SBC   H00J23646   7.781   5.725  13.957
   34SBC   C07A23647   8.163   5.978  13.906
   34SBC   C08323648   7.935   5.686  14.086
   34SBC   H00K23649   7.879   5.608  14.136
   34SBC   O00K23650   8.060   5.536  14.292
   34SBC   C0GO23651   8.118   5.458  14.390
   34SBC   C0GN23652   8.067   5.330  14.416
   34SBC   H01L23653   7.982   5.315  14.351
   34SBC   C0GM23654   8.142   5.240  14.506
   34SBC   C0GL23655   8.099   5.112  14.518
   34SBC   H01M23656   8.014   5.085  14.457
   34SBC   O00J23657   8.165   5.018  14.597
   34SBC   C0GK23658   8.280   5.076  14.658
   34SBC   H01N23659   8.347   5.000  14.694
   34SBC   C05K23660   8.323   5.204  14.650
   34SBC   C05J23661   8.441   5.249  14.724
   34SBC   C04Y23662   8.510   5.175  14.820
   34SBC   C04X23663   8.616   5.234  14.894
   34SBC   O00623664   8.470   5.058  14.872
   34SBC   C05323665   8.540   4.970  14.951
   34SBC   C04O23666   8.647   5.022  15.027
   34SBC   C03C23667   8.727   4.953  15.126
   34SBC   C03B23668   8.737   4.821  15.180
   34SBC   C05423669   8.656   4.721  15.140
   34SBC   C0GR23670   8.668   4.589  15.197
   34SBC   C03M23671   8.764   4.518  15.296
   34SBC   C03I23672   8.866   4.586  15.378
   34SBC   C03J23673   8.938   4.503  15.465
   34SBC   N00223674   9.045   4.562  15.543
   34SBC   C02U23675   9.133   4.481  15.621
   34SBC   C02T23676   9.252   4.530  15.680
   34SBC   C02Z23677   9.337   4.452  15.756
   34SBC   N00123678   9.457   4.501  15.821
   34SBC   C02R23679   9.546   4.414  15.888
   34SBC   C03223680   9.507   4.281  15.908
   34SBC   C03123681   9.385   4.239  15.847
   34SBC   H00723682   9.358   4.134  15.853
   34SBC   C03323683   9.593   4.201  15.981
   34SBC   H00323684   9.566   4.097  15.996
   34SBC   O00423685   9.722   4.242  16.024
   34SBC   C03423686   9.766   4.367  15.981
   34SBC   C03523687   9.904   4.398  15.995
   34SBC   C03623688   9.947   4.524  15.951
   34SBC   H00523689  10.052   4.548  15.957
   34SBC   C03723690   9.851   4.614  15.899
   34SBC   H00623691   9.890   4.705  15.856
   34SBC   C00D23692   9.711   4.588  15.898
   34SBC   C00C23693   9.627   4.681  15.844
   34SBC   C00B23694   9.647   4.833  15.847
   34SBC   C00A23695   9.742   4.947  15.889
   34SBC   C00923696   9.680   5.059  15.835
   34SBC   C00823697   9.728   5.196  15.814
   34SBC   C00723698   9.861   5.216  15.842
   34SBC   C00623699   9.912   5.344  15.811
   34SBC   C00523700  10.053   5.367  15.832
   34SBC   C00423701  10.131   5.262  15.886
   34SBC   C00323702  10.073   5.141  15.924
   34SBC   C00223703  10.150   5.041  15.987
   34SBC   C01C23704  10.290   5.052  15.998
   34SBC   C01B23705  10.371   4.944  16.045
   34SBC   H00023706  10.337   4.843  16.064
   34SBC   C00123707  10.087   4.928  16.037
   34SBC   C00023708   9.954   4.909  16.012
   34SBC   C01U23709   9.917   4.812  16.114
   34SBC   H00223710   9.819   4.770  16.125
   34SBC   C01T23711  10.043   4.756  16.165
   34SBC   O00223712  10.064   4.643  16.213
   34SBC   O00123713  10.135   4.843  16.130
   34SBC   C01S23714   9.936   5.118  15.901
   34SBC   C00N23715   9.637   5.288  15.754
   34SBC   C00M23716   9.513   5.249  15.705
   34SBC   C00J23717   9.472   5.120  15.715
   34SBC   C00I23718   9.356   5.069  15.656
   34SBC   C00H23719   9.328   4.931  15.664
   34SBC   C00G23720   9.415   4.845  15.729
   34SBC   C00F23721   9.393   4.711  15.742
   34SBC   C01X23722   9.216   4.882  15.603
   34SBC   C01W23723   9.147   4.964  15.523
   34SBC   C01V23724   9.183   5.097  15.507
   34SBC   C02023725   9.113   5.180  15.421
   34SBC   C01Z23726   9.040   4.911  15.453
   34SBC   C02Y23727   8.975   4.999  15.371
   34SBC   C03923728   8.879   4.948  15.287
   34SBC   C02W23729   9.004   4.775  15.456
   34SBC   C01Y23730   9.188   4.745  15.609
   34SBC   C00U23731   9.280   5.152  15.577
   34SBC   C00S23732   9.320   5.283  15.560
   34SBC   C00T23733   9.257   5.364  15.466
   34SBC   C00R23734   9.436   5.326  15.622
   34SBC   C00Q23735   9.484   5.452  15.590
   34SBC   C00V23736   9.409   5.539  15.505
   34SBC   C02423737   9.461   5.663  15.464
   34SBC   C00X23738   9.576   5.700  15.527
   34SBC   C00P23739   9.600   5.494  15.649
   34SBC   C00O23740   9.683   5.410  15.726
   34SBC   C00K23741   9.564   5.031  15.774
   34SBC   N00023742   9.873   4.985  15.926
   34SBC   C00L23743   9.538   4.897  15.787
   34SBC   H00423744   9.983   4.335  16.032
   34SBC   C02Q23745   9.671   4.459  15.921
   34SBC   C00E23746   9.495   4.635  15.796
   34SBC   C03023747   9.304   4.317  15.776
   34SBC   O00323748   9.190   4.270  15.723
   34SBC   C02S23749   9.274   4.665  15.683
   34SBC   C03823750   9.107   4.344  15.634
   34SBC   C03L23751   9.001   4.286  15.564
   34SBC   H00823752   8.976   4.181  15.570
   34SBC   C02V23753   9.072   4.698  15.541
   34SBC   C03K23754   8.916   4.362  15.481
   34SBC   C0BK23755   8.804   4.311  15.413
   34SBC   H00T23756   8.776   4.207  15.423
   34SBC   C03H23757   8.902   4.726  15.374
   34SBC   C0BL23758   8.732   4.377  15.312
   34SBC   C0GU23759   8.628   4.317  15.238
   34SBC   H01O23760   8.630   4.210  15.256
   34SBC   C0GT23761   8.543   4.384  15.150
   34SBC   H01P23762   8.468   4.331  15.094
   34SBC   C0GS23763   8.568   4.518  15.128
   34SBC   C0GV23764   8.497   4.602  15.038
   34SBC   C0GW23765   8.389   4.564  14.953
   34SBC   H01Q23766   8.347   4.465  14.944
   34SBC   C0GX23767   8.346   4.667  14.872
   34SBC   H01R23768   8.271   4.636  14.801
   34SBC   O00L23769   8.392   4.800  14.872
   34SBC   C0GQ23770   8.550   4.733  15.046
   34SBC   C03A23771   8.835   4.817  15.281
   34SBC   C05L23772   8.499   4.834  14.956
   34SBC   C04W23773   8.489   5.380  14.696
   34SBC   C05I23774   8.419   5.461  14.605
   34SBC   C05O23775   8.296   5.424  14.545
   34SBC   C05223776   8.475   5.585  14.565
   34SBC   C04V23777   8.599   5.439  14.765
   34SBC   C04U23778   8.645   5.568  14.737
   34SBC   N00923779   8.251   5.291  14.571
   34SBC   C0GP23780   8.234   5.504  14.454
   34SBC   C05W23781   8.294   5.622  14.407
   34SBC   C07D23782   8.257   5.861  14.135
   34SBC   C06J23783   8.499   5.941  14.247
   34SBC   C05P23784   8.414   5.660  14.466
   34SBC   C05R23785   8.655   5.939  14.435
   34SBC   C04Z23786   8.586   5.643  14.633
   34SBC   C04C23787   8.807   5.935  14.628
   34SBC   C04G23788   8.959   5.928  14.815
   34SBC   C04J23789   9.075   5.778  15.020
   34SBC   C04T23790   8.751   5.621  14.807
   34SBC   N00323791   8.664   5.361  14.866
   34SBC   C04P23792   8.679   5.163  15.004
   34SBC   C03D23793   8.820   5.026  15.193
   34SBC   C02123794   9.012   5.126  15.346
   34SBC   C03F23795   8.918   5.412  15.126
   34SBC   C02223796   9.151   5.311  15.395
   34SBC   C02A23797   9.069   5.595  15.168
   34SBC   C02323798   9.302   5.494  15.437
   34SBC   C02523799   9.408   5.737  15.359
   34SBC   C02D23800   9.476   5.850  15.308
   34SBC   C02E23801   9.596   5.892  15.370
   34SBC   C02N23802   9.672   5.994  15.313
   34SBC   C04N23803   9.126   5.711  15.130
   34SBC   C02P23804   9.428   5.922  15.196
   34SBC   C04I23805   9.134   5.901  14.985
   34SBC   C04423806   9.269   6.121  14.880
   34SBC   C04323807   9.501   6.028  15.144
   34SBC   C05N23808   9.621   6.068  15.203
   34SBC   C09U23809   9.840   6.363  14.999
   34SBC   C09V23810   9.918   6.448  14.918
   34SBC   C09X23811  10.039   6.493  14.962
   34SBC   C09Y23812  10.129   6.573  14.890
   34SBC   C0A123813  10.089   6.625  14.769
   34SBC   C0A223814   9.962   6.585  14.725
   34SBC   C0A423815   9.918   6.634  14.605
   34SBC   C07123816   9.795   6.593  14.552
   34SBC   C0A523817   9.750   6.642  14.434
   34SBC   C0A923818   9.834   6.724  14.359
   34SBC   C0A823819   9.956   6.764  14.410
   34SBC   C0AP23820  10.034   6.851  14.340
   34SBC   C0BY23821  10.166   6.863  14.381
   34SBC   C0BX23822  10.218   6.818  14.495
   34SBC   C0C223823  10.352   6.844  14.529
   34SBC   C0C323824  10.399   6.795  14.651
   34SBC   C0CT23825  10.310   6.728  14.734
   34SBC   C0C123826  10.437   6.923  14.445
   34SBC   C0C023827  10.369   7.000  14.338
   34SBC   C0A723828  10.131   6.743  14.569
   34SBC   C0BZ23829  10.241   6.955  14.305
   34SBC   C0BO23830  10.190   7.019  14.196
   34SBC   C0BN23831  10.070   6.986  14.144
   34SBC   C0BM23832  10.032   7.047  14.031
   34SBC   C0B923833   9.904   7.015  13.982
   34SBC   C0B823834   9.823   6.928  14.050
   34SBC   C0AD23835   9.868   6.871  14.169
   34SBC   C0AF23836   9.695   6.896  14.002
   34SBC   C0AG23837   9.653   6.942  13.879
   34SBC   C0B723838   9.738   7.031  13.812
   34SBC   C0AE23839   9.625   6.810  14.078
   34SBC   C0AB23840   9.662   6.751  14.199
   34SBC   C0AA23841   9.580   6.665  14.268
   34SBC   C0AJ23842   9.498   6.781  14.028
   34SBC   C0AK23843   9.429   6.681  14.093
   34SBC   C06W23844   9.328   6.650  14.009
   34SBC   C0AI23845   9.444   6.812  13.900
   34SBC   C0BP23846  10.284   7.105  14.141
   34SBC   C0BQ23847  10.240   7.177  14.022
   34SBC   C0BW23848   9.988   6.902  14.220
   34SBC   C0AC23849   9.794   6.776  14.236
   34SBC   C0A623850  10.000   6.710  14.530
   34SBC   C0A323851  10.174   6.703  14.693
   34SBC   C09Z23852  10.261   6.603  14.936
   34SBC   C09W23853   9.880   6.497  14.795
   34SBC   C07223854   9.755   6.460  14.749
   34SBC   C09H23855  10.082   6.449  15.084
   34SBC   C09G23856  10.204   6.485  15.128
   34SBC   C09P23857  10.218   6.425  15.247
   34SBC   C02O23858  10.010   6.141  15.367
   34SBC   C02M23859   9.802   6.021  15.359
   34SBC   C02F23860   9.643   5.816  15.476
   34SBC   C00W23861   9.636   5.618  15.624
   34SBC   C01R23862   9.821   5.435  15.753
   34SBC   C01N23863   9.946   5.755  15.652
   34SBC   C01L23864  10.188   5.806  15.650
   34SBC   C01H23865  10.468   5.646  15.793
   34SBC   C01K23866  10.131   5.481  15.797
   34SBC   C01E23867  10.275   5.276  15.909
   34SBC   C01G23868  10.550   5.537  15.848
   34SBC   C01D23869  10.346   5.172  15.954
   34SBC   C01A23870  10.507   4.953  16.054
   34SBC   H00123871  10.573   4.872  16.083
   34SBC   C01F23872  10.695   5.308  15.947
   34SBC   C03P23873  10.968   5.304  15.957
   34SBC   C03T23874  10.984   5.520  15.882
   34SBC   C08I23875  11.108   5.758  15.779
   34SBC   C08J23876  11.157   5.866  15.714
   34SBC   C08L23877  11.133   6.070  15.589
   34SBC   C09323878  11.094   6.278  15.447
   34SBC   C08Z23879  10.824   6.240  15.495
   34SBC   C09T23880  10.872   6.600  15.174
   34SBC   C09S23881  10.624   6.441  15.385
   34SBC   C09Q23882  10.343   6.439  15.309
   34SBC   C09F23883  10.294   6.567  15.058
   34SBC   C09E23884  10.645   6.645  15.095
   34SBC   C0A023885  10.354   6.678  14.858
   34SBC   C0CU23886  10.534   6.815  14.683
   34SBC   C0CR23887  10.621   6.880  14.584
   34SBC   C0CZ23888  10.758   6.895  14.623
   34SBC   C0DA23889  10.782   6.666  15.066
   34SBC   C0D923890  11.007   6.910  14.997
   34SBC   H00V23891  11.015   6.927  15.104
   34SBC   C0CY23892  10.802   6.833  14.741
   34SBC   C0DF23893  11.063   6.996  14.896
   34SBC   C0DE23894  11.119   7.129  14.869
   34SBC   C0GI23895  11.192   7.222  14.954
   34SBC   H01K23896  11.214   7.207  15.058
   34SBC   C0GJ23897  11.234   7.327  14.885
   34SBC   H01J23898  11.290   7.396  14.946
   34SBC   O00I23899  11.204   7.371  14.757
   34SBC   C0GH23900  11.121   7.288  14.680
   34SBC   C0GG23901  11.075   7.344  14.555
   34SBC   O00G23902  11.110   7.474  14.542
   34SBC   C0G823903  11.067   7.554  14.440
   34SBC   C0G923904  11.121   7.687  14.439
   34SBC   H01G23905  11.195   7.727  14.507
   34SBC   C0GA23906  11.072   7.780  14.347
   34SBC   H01H23907  11.118   7.877  14.353
   34SBC   C0GB23908  10.968   7.745  14.261
   34SBC   C0EP23909  10.918   7.611  14.259
   34SBC   C0E823910  10.805   7.585  14.161
   34SBC   C0CK23911  10.719   7.485  14.128
   34SBC   C0CL23912  10.756   7.352  14.151
   34SBC   C0E923913  10.846   7.308  14.258
   34SBC   C0GE23914  10.943   7.369  14.353
   34SBC   C0E723915  10.774   7.682  14.065
   34SBC   C0CJ23916  10.676   7.645  13.975
   34SBC   C0E623917  10.654   7.729  13.868
   34SBC   H00Y23918  10.592   7.694  13.787
   34SBC   C0EO23919  10.702   7.862  13.871
   34SBC   H01123920  10.674   7.937  13.799
   34SBC   C0G623921  10.788   7.912  13.982
   34SBC   C0G523922  10.831   8.042  14.009
   34SBC   H01F23923  10.791   8.117  13.943
   34SBC   C0GD23924  10.922   8.070  14.105
   34SBC   H01I23925  10.943   8.175  14.121
   34SBC   O00H23926  10.963   7.977  14.191
   34SBC   C0EQ23927  10.835   7.811  14.071
   34SBC   C0GC23928  10.920   7.847  14.175
   34SBC   C0G723929  10.971   7.510  14.343
   34SBC   C0DD23930  11.097   7.158  14.730
   34SBC   C0GF23931  11.001   7.284  14.453
   34SBC   C0CO23932  10.833   7.173  14.248
   34SBC   C0D023933  10.836   6.975  14.533
   34SBC   C0C423934  10.573   6.935  14.465
   34SBC   C0CN23935  10.735   7.124  14.161
   34SBC   C0CP23936  10.400   7.090  14.225
   34SBC   C0CM23937  10.691   7.240  14.086
   34SBC   C0CI23938  10.615   7.523  14.029
   34SBC   C0CD23939  10.237   7.562  13.746
   34SBC   C0BR23940  10.313   7.286  13.972
   34SBC   C0CS23941  10.116   7.142  13.973
   34SBC   C0B623942   9.864   7.068  13.864
   34SBC   C0CG23943  10.080   7.384  13.707
   34SBC   C0CF23944  10.140   7.504  13.667
   34SBC   C0E523945  10.230   7.768  13.619
   34SBC   C0DT23946  10.143   7.904  13.401
   34SBC   C0DL23947   9.923   7.604  13.390
   34SBC   C0DM23948   9.805   7.564  13.329
   34SBC   C0DY23949   9.817   7.744  13.173
   34SBC   C0DU23950  10.099   7.957  13.285
   34SBC   C0F023951  10.083   8.164  13.156
   34SBC   C0F423952   9.927   8.340  13.020
   34SBC   C0FG23953   9.780   8.006  12.922
   34SBC   O00B23954   9.718   8.360  12.893
   34SBC   C0FN23955   9.654   7.993  12.870
   34SBC   C0DZ23956   9.764   7.820  13.070
   34SBC   O00C23957   9.435   7.665  13.042
   34SBC   C0FR23958   9.357   7.563  13.088
   34SBC   O00D23959   9.239   7.566  13.049
   34SBC   C0E023960   9.745   7.638  13.229
   34SBC   C0E323961   9.419   7.466  13.175
   34SBC   C0AW23962   9.366   7.341  13.207
   34SBC   C0AV23963   9.250   7.285  13.144
   34SBC   H00Q23964   9.201   7.327  13.057
   34SBC   C0AU23965   9.191   7.167  13.193
   34SBC   H00R23966   9.109   7.116  13.146
   34SBC   C0AT23967   9.248   7.106  13.308
   34SBC   C0AS23968   9.213   7.001  13.409
   34SBC   C0AR23969   9.081   6.937  13.410
   34SBC   C0BE23970   9.373   7.148  13.347
   34SBC   C0DN23971   9.737   7.456  13.378
   34SBC   C0AX23972   9.430   7.270  13.308
   34SBC   C0BB23973   9.717   7.270  13.531
   34SBC   C0BD23974   9.413   7.079  13.464
   34SBC   C0B223975   9.691   7.088  13.695
   34SBC   C0AH23976   9.522   6.907  13.824
   34SBC   C0BF23977   9.313   6.992  13.513
   34SBC   C0AL23978   9.327   6.733  13.893
   34SBC   C07U23979   9.091   6.804  13.629
   34SBC   C0AQ23980   9.032   6.850  13.511
   34SBC   C0BG23981   8.975   6.960  13.315
   34SBC   C0FY23982   8.630   6.916  13.390
   34SBC   C0BJ23983   8.911   7.091  13.297
   34SBC   H00S23984   8.960   7.186  13.284
   34SBC   C0FZ23985   8.558   7.027  13.373
   34SBC   C07S23986   8.603   6.831  13.504
   34SBC   C0G123987   8.256   6.970  13.568
   34SBC   C07K23988   8.239   6.682  13.804
   34SBC   C07H23989   8.519   6.667  13.733
   34SBC   C06B23990   8.484   6.337  13.815
   34SBC   C06N23991   8.647   6.329  13.971
   34SBC   C06623992   8.772   6.622  13.756
   34SBC   C06223993   9.039   6.560  13.906
   34SBC   C05Y23994   8.838   6.323  14.135
   34SBC   C06123995   9.136   6.484  13.981
   34SBC   C05H23996   9.100   6.388  14.332
   34SBC   C06V23997   9.248   6.543  14.053
   34SBC   C06Y23998   9.461   6.630  14.219
   34SBC   C05C23999   9.322   6.413  14.488
   34SBC   C06Z24000   9.624   6.608  14.384
   34SBC   C07024001   9.708   6.511  14.629
   34SBC   C05B24002   9.371   6.354  14.606
   34SBC   C05724003   9.470   6.249  14.851
   34SBC   C05924004   9.676   6.371  14.822
   35SBC   C05824005   2.429   2.509   7.737
   35SBC   C05A24006   2.348   2.560   7.840
   35SBC   C06Q24007   2.230   2.501   7.880
   35SBC   C06R24008   2.156   2.554   7.986
   35SBC   C06S24009   2.198   2.665   8.064
   35SBC   C06T24010   2.116   2.720   8.166
   35SBC   C06U24011   2.138   2.823   8.269
   35SBC   C06X24012   2.238   2.916   8.290
   35SBC   C06024013   2.227   2.982   8.416
   35SBC   C05Z24014   2.239   3.119   8.447
   35SBC   C06824015   2.123   3.156   8.529
   35SBC   C06724016   2.089   3.283   8.589
   35SBC   C06924017   2.186   3.392   8.601
   35SBC   C06A24018   2.169   3.525   8.656
   35SBC   C07324019   2.051   3.609   8.676
   35SBC   C07P24020   2.066   3.743   8.624
   35SBC   C07O24021   2.169   3.805   8.544
   35SBC   H00D24022   2.266   3.760   8.526
   35SBC   C07N24023   2.159   3.935   8.499
   35SBC   H00E24024   2.237   3.985   8.445
   35SBC   C07M24025   2.045   3.995   8.525
   35SBC   H00F24026   2.032   4.090   8.475
   35SBC   C07L24027   1.943   3.955   8.612
   35SBC   C07Q24028   1.832   4.037   8.651
   35SBC   H00G24029   1.834   4.140   8.620
   35SBC   O00F24030   1.717   3.981   8.703
   35SBC   C07J24031   1.732   3.853   8.756
   35SBC   C07I24032   1.846   3.776   8.732
   35SBC   N00424033   1.837   3.638   8.776
   35SBC   C07R24034   1.730   3.593   8.858
   35SBC   C07T24035   1.627   3.680   8.879
   35SBC   C0FX24036   1.511   3.640   8.937
   35SBC   C0FW24037   1.390   3.705   8.939
   35SBC   C0G024038   1.384   3.830   8.871
   35SBC   C0G224039   1.269   3.910   8.870
   35SBC   H01E24040   1.264   4.009   8.825
   35SBC   C0G324041   1.150   3.849   8.913
   35SBC   H01C24042   1.054   3.899   8.908
   35SBC   C0G424043   1.158   3.726   8.979
   35SBC   H01D24044   1.066   3.679   9.012
   35SBC   O00E24045   1.501   3.882   8.828
   35SBC   C0FV24046   1.277   3.655   9.000
   35SBC   C0FU24047   1.286   3.525   9.062
   35SBC   H01B24048   1.199   3.480   9.109
   35SBC   C0FT24049   1.408   3.457   9.065
   35SBC   C0FS24050   1.456   3.329   9.099
   35SBC   C0BI24051   1.598   3.327   9.089
   35SBC   C0BH24052   1.648   3.198   9.053
   35SBC   C07F24053   1.716   3.173   8.925
   35SBC   C07E24054   1.810   3.245   8.854
   35SBC   C07G24055   1.815   3.380   8.849
   35SBC   C07424056   1.914   3.412   8.754
   35SBC   C06524057   1.880   3.201   8.743
   35SBC   C06424058   1.829   3.080   8.689
   35SBC   C06324059   1.886   3.021   8.575
   35SBC   C07524060   1.793   2.906   8.563
   35SBC   C0AM24061   1.680   2.900   8.652
   35SBC   C0AN24062   1.565   2.810   8.658
   35SBC   C0AO24063   1.515   2.700   8.566
   35SBC   C0B124064   1.392   2.635   8.578
   35SBC   C0B024065   1.304   2.672   8.680
   35SBC   C0AZ24066   1.177   2.610   8.709
   35SBC   C0AY24067   1.103   2.643   8.816
   35SBC   N00724068   0.977   2.593   8.837
   35SBC   C0E224069   0.893   2.650   8.939
   35SBC   C0E124070   0.759   2.602   8.944
   35SBC   C0E424071   0.672   2.654   9.038
   35SBC   C0FF24072   0.542   2.607   9.060
   35SBC   C0FJ24073   0.432   2.655   9.137
   35SBC   C0FK24074   0.400   2.797   9.157
   35SBC   H01624075   0.457   2.888   9.148
   35SBC   C0FL24076   0.256   2.798   9.172
   35SBC   H01724077   0.187   2.881   9.175
   35SBC   C0FM24078   0.203   2.663   9.167
   35SBC   C0FH24079   0.090   2.585   9.114
   35SBC   C0FI24080   0.148   2.465   9.070
   35SBC   C0F324081   0.095   2.412   8.950
   35SBC   C0F224082   0.191   2.337   8.881
   35SBC   C0DW24083   0.329   2.356   8.887
   35SBC   C0FE24084   0.379   2.429   8.986
   35SBC   C0DV24085   0.415   2.311   8.785
   35SBC   C0DX24086   0.547   2.352   8.786
   35SBC   C0DK24087   0.621   2.317   8.676
   35SBC   C0DJ24088   0.570   2.240   8.570
   35SBC   C0DI24089   0.648   2.196   8.460
   35SBC   C0DH24090   0.781   2.225   8.464
   35SBC   C0DG24091   0.832   2.310   8.562
   35SBC   C0BV24092   0.968   2.345   8.562
   35SBC   C0BC24093   1.014   2.450   8.646
   35SBC   C0BA24094   1.048   2.301   8.463
   35SBC   C0B424095   1.171   2.358   8.440
   35SBC   C0B324096   1.221   2.456   8.528
   35SBC   C0B524097   1.251   2.312   8.340
   35SBC   C0BU24098   1.211   2.200   8.264
   35SBC   C0BT24099   1.081   2.148   8.274
   35SBC   C0BS24100   1.039   2.039   8.195
   35SBC   C0CC24101   0.900   2.004   8.196
   35SBC   C0CB24102   0.850   1.902   8.119
   35SBC   C0CH24103   0.710   1.918   8.092
   35SBC   C0DO24104   0.620   1.995   8.162
   35SBC   C0DP24105   0.486   2.002   8.136
   35SBC   C0EA24106   0.422   1.934   8.024
   35SBC   H01224107   0.475   1.861   7.964
   35SBC   O00924108   0.291   1.951   7.993
   35SBC   C0EH24109   0.215   2.004   8.089
   35SBC   C0EG24110   0.077   2.019   8.070
   35SBC   C0EJ24111  -0.005   1.987   7.956
   35SBC   H01024112   0.031   1.940   7.866
   35SBC   C0EK24113  -0.137   2.043   7.979
   35SBC   H00Z24114  -0.220   2.041   7.909
   35SBC   C0EL24115  -0.136   2.107   8.103
   35SBC   C0EM24116  -0.236   2.180   8.176
   35SBC   C0EW24117  -0.368   2.198   8.143
   35SBC   H01324118  -0.402   2.156   8.049
   35SBC   C0EX24119  -0.461   2.262   8.240
   35SBC   H01424120  -0.568   2.258   8.225
   35SBC   C0F124121  -0.410   2.305   8.370
   35SBC   C0EU24122  -0.273   2.287   8.397
   35SBC   C0ET24123  -0.209   2.310   8.521
   35SBC   C0ES24124  -0.077   2.255   8.496
   35SBC   C0EE24125  -0.063   2.211   8.365
   35SBC   C0ED24126   0.035   2.138   8.282
   35SBC   C0EC24127   0.170   2.118   8.311
   35SBC   C0EB24128   0.234   2.159   8.428
   35SBC   C0EN24129   0.154   2.201   8.546
   35SBC   C0ER24130   0.228   2.227   8.664
   35SBC   C0DS24131   0.374   2.156   8.450
   35SBC   C0DR24132   0.452   2.116   8.345
   35SBC   C0EY24133   0.015   2.234   8.585
   35SBC   C0EZ24134   0.006   2.299   8.718
   35SBC   C0F524135  -0.086   2.382   8.800
   35SBC   C0F624136  -0.216   2.403   8.756
   35SBC   N00824137  -0.295   2.482   8.843
   35SBC   C0F724138  -0.242   2.547   8.961
   35SBC   C0FQ24139  -0.333   2.626   9.045
   35SBC   H01824140  -0.293   2.688   9.123
   35SBC   C0FP24141  -0.468   2.620   9.022
   35SBC   H01924142  -0.548   2.669   9.077
   35SBC   C0FO24143  -0.517   2.557   8.915
   35SBC   H01A24144  -0.621   2.568   8.887
   35SBC   C0F824145  -0.103   2.533   8.987
   35SBC   C0F924146  -0.434   2.492   8.821
   35SBC   C0FA24147  -0.491   2.447   8.702
   35SBC   H01524148  -0.595   2.461   8.676
   35SBC   C0FB24149  -0.412   2.382   8.606
   35SBC   C0FD24150  -0.277   2.369   8.634
   35SBC   C0FC24151  -0.481   2.351   8.476
   35SBC   O00A24152  -0.598   2.379   8.458
   35SBC   C0EV24153  -0.189   2.236   8.303
   35SBC   C0EF24154  -0.005   2.086   8.157
   35SBC   C0EI24155   0.261   2.064   8.211
   35SBC   C0DQ24156   0.400   2.063   8.227
   35SBC   C0CE24157   0.677   2.071   8.264
   35SBC   H00U24158   0.672   1.861   8.008
   35SBC   C0CA24159   0.943   1.806   8.066
   35SBC   C0C924160   1.087   1.830   8.068
   35SBC   C0C824161   1.184   1.733   8.031
   35SBC   C0C724162   1.322   1.740   7.979
   35SBC   C0C624163   1.382   1.618   7.931
   35SBC   C0C524164   1.480   1.567   7.834
   35SBC   C0CQ24165   1.461   1.437   7.787
   35SBC   C0D124166   1.341   1.374   7.809
   35SBC   C0D824167   1.304   1.301   7.701
   35SBC   C0D724168   1.437   1.279   7.633
   35SBC   C0D624169   1.447   1.219   7.502
   35SBC   C0D524170   1.573   1.203   7.437
   35SBC   C0D424171   1.704   1.256   7.459
   35SBC   C0D324172   1.765   1.263   7.331
   35SBC   C0CX24173   1.859   1.370   7.335
   35SBC   C0CW24174   1.810   1.465   7.435
   35SBC   C0CV24175   1.839   1.600   7.478
   35SBC   C0D224176   1.943   1.683   7.418
   35SBC   C09D24177   2.032   1.640   7.312
   35SBC   C09C24178   2.140   1.723   7.265
   35SBC   C09B24179   2.238   1.686   7.171
   35SBC   C09A24180   2.227   1.558   7.117
   35SBC   C09924181   2.122   1.480   7.150
   35SBC   C09824182   2.165   1.346   7.129
   35SBC   C08Y24183   2.304   1.346   7.082
   35SBC   C08X24184   2.391   1.231   7.069
   35SBC   C08W24185   2.354   1.094   7.108
   35SBC   C08U24186   2.229   1.053   7.175
   35SBC   C08V24187   2.117   1.125   7.228
   35SBC   C0DC24188   2.021   1.019   7.265
   35SBC   H00W24189   1.918   1.028   7.295
   35SBC   C0DB24190   2.076   0.887   7.250
   35SBC   H00X24191   2.031   0.791   7.271
   35SBC   C08T24192   2.204   0.914   7.195
   35SBC   C08S24193   2.288   0.813   7.154
   35SBC   H00N24194   2.258   0.713   7.182
   35SBC   C08R24195   2.410   0.849   7.091
   35SBC   C08Q24196   2.507   0.751   7.051
   35SBC   H00O24197   2.478   0.648   7.058
   35SBC   C08P24198   2.634   0.777   7.007
   35SBC   C08O24199   2.728   0.675   6.973
   35SBC   H00P24200   2.700   0.571   6.967
   35SBC   C08N24201   2.863   0.716   6.938
   35SBC   C08M24202   2.956   0.611   6.906
   35SBC   O00824203   2.932   0.489   6.927
   35SBC   O00724204   3.080   0.642   6.865
   35SBC   C08H24205   3.124   0.775   6.872
   35SBC   C08G24206   3.260   0.815   6.850
   35SBC   C03V24207   3.368   0.732   6.820
   35SBC   H00924208   3.347   0.627   6.804
   35SBC   C03U24209   3.501   0.785   6.796
   35SBC   C03W24210   3.615   0.710   6.749
   35SBC   H00A24211   3.605   0.607   6.716
   35SBC   C03X24212   3.739   0.770   6.749
   35SBC   H00B24213   3.818   0.704   6.717
   35SBC   O00524214   3.764   0.896   6.795
   35SBC   C03O24215   3.649   0.972   6.825
   35SBC   C03N24216   3.667   1.098   6.862
   35SBC   O00024217   3.801   1.140   6.856
   35SBC   C01924218   3.827   1.266   6.899
   35SBC   C01824219   3.730   1.352   6.947
   35SBC   C01724220   3.598   1.316   6.940
   35SBC   C01624221   3.496   1.402   6.974
   35SBC   C01524222   3.537   1.531   7.019
   35SBC   C01424223   3.436   1.619   7.042
   35SBC   C01324224   3.300   1.595   7.033
   35SBC   C01224225   3.237   1.722   7.056
   35SBC   C01124226   3.349   1.819   7.063
   35SBC   C01024227   3.320   1.949   7.070
   35SBC   C00Z24228   3.414   2.049   7.099
   35SBC   C00Y24229   3.329   2.149   7.140
   35SBC   C01O24230   3.192   2.120   7.131
   35SBC   C01P24231   3.099   2.177   7.219
   35SBC   C02L24232   2.978   2.116   7.221
   35SBC   C02K24233   2.970   1.988   7.160
   35SBC   C01M24234   3.081   1.910   7.114
   35SBC   C02J24235   2.839   1.943   7.157
   35SBC   C02I24236   2.794   1.826   7.101
   35SBC   C02H24237   2.862   1.721   7.044
   35SBC   C01Q24238   3.000   1.693   7.035
   35SBC   C02G24239   3.012   1.564   6.980
   35SBC   C08924240   2.882   1.531   6.936
   35SBC   C08824241   2.872   1.397   6.931
   35SBC   C08724242   3.016   1.350   6.945
   35SBC   C08624243   3.062   1.220   6.939
   35SBC   C03S24244   3.197   1.177   6.923
   35SBC   N00624245   3.188   1.040   6.890
   35SBC   C08F24246   3.059   1.001   6.905
   35SBC   C01J24247   3.326   1.228   6.917
   35SBC   C03R24248   3.436   1.141   6.895
   35SBC   C03Q24249   3.415   1.010   6.854
   35SBC   C08E24250   2.980   1.107   6.944
   35SBC   C08D24251   2.841   1.085   6.964
   35SBC   C08K24252   2.802   0.951   6.962
   35SBC   C08C24253   2.739   1.176   6.969
   35SBC   C09124254   2.609   1.138   6.994
   35SBC   C09224255   2.571   1.009   7.023
   35SBC   C08B24256   2.743   1.318   6.951
   35SBC   C09024257   2.605   1.357   6.973
   35SBC   C09424258   2.568   1.499   6.983
   35SBC   C09524259   2.444   1.549   7.026
   35SBC   C09R24260   2.454   1.683   7.072
   35SBC   C09724261   2.584   1.714   7.065
   35SBC   C09624262   2.649   1.611   7.007
   35SBC   C01I24263   3.110   1.456   6.969
   35SBC   C08A24264   2.788   1.620   6.994
   35SBC   C09L24265   2.658   1.818   7.116
   35SBC   C09K24266   2.614   1.935   7.189
   35SBC   C09J24267   2.478   1.966   7.227
   35SBC   C09I24268   2.446   2.067   7.325
   35SBC   C09O24269   2.513   2.166   7.410
   35SBC   C09N24270   2.650   2.201   7.390
   35SBC   C09M24271   2.748   2.138   7.300
   35SBC   C06O24272   2.687   2.316   7.461
   35SBC   C05M24273   2.598   2.382   7.547
   35SBC   C06P24274   2.471   2.334   7.575
   35SBC   C04224275   2.633   2.500   7.613
   35SBC   C04124276   2.764   2.554   7.600
   35SBC   C04024277   2.807   2.672   7.669
   35SBC   C03Z24278   2.941   2.719   7.662
   35SBC   C03Y24279   3.029   2.643   7.590
   35SBC   C02724280   3.166   2.679   7.595
   35SBC   C02624281   3.256   2.597   7.529
   35SBC   C02824282   3.391   2.623   7.541
   35SBC   C02924283   3.436   2.730   7.628
   35SBC   C02B24284   3.572   2.749   7.645
   35SBC   C02C24285   3.613   2.845   7.734
   35SBC   C02X24286   3.746   2.848   7.768
   35SBC   C03E24287   3.783   2.937   7.871
   35SBC   C03G24288   3.705   3.022   7.933
   35SBC   C04Q24289   3.574   3.022   7.894
   35SBC   C04R24290   3.482   3.104   7.954
   35SBC   C04S24291   3.346   3.103   7.922
   35SBC   C04L24292   3.297   3.004   7.838
   35SBC   C04M24293   3.388   2.922   7.770
   35SBC   C04K24294   3.162   2.975   7.825
   35SBC   C04F24295   3.075   3.036   7.907
   35SBC   C04E24296   3.119   3.132   8.002
   35SBC   C04D24297   3.031   3.192   8.086
   35SBC   C05024298   3.078   3.277   8.184
   35SBC   C05124299   2.992   3.328   8.282
   35SBC   C05Q24300   3.041   3.406   8.384
   35SBC   C05V24301   2.954   3.449   8.484
   35SBC   N00524302   3.007   3.523   8.591
   35SBC   C07V24303   3.141   3.563   8.594
   35SBC   C08224304   3.183   3.644   8.692
   35SBC   C08124305   3.105   3.693   8.795
   35SBC   C07C24306   2.970   3.660   8.798
   35SBC   C07B24307   2.879   3.709   8.893
   35SBC   C08024308   2.925   3.788   9.004
   35SBC   C07Z24309   2.831   3.825   9.103
   35SBC   H00L24310   2.870   3.896   9.174
   35SBC   C07924311   2.694   3.794   9.093
   35SBC   C07824312   2.650   3.726   8.975
   35SBC   C07724313   2.516   3.706   8.956
   35SBC   C07X24314   2.421   3.744   9.054
   35SBC   H00I24315   2.313   3.737   9.048
   35SBC   C07Y24316   2.459   3.815   9.171
   35SBC   H00H24317   2.393   3.832   9.254
   35SBC   C07624318   2.469   3.655   8.839
   35SBC   C06C24319   2.327   3.656   8.811
   35SBC   H00C24320   2.245   3.709   8.858
   35SBC   C06F24321   2.561   3.593   8.752
   35SBC   C06E24322   2.517   3.502   8.662
   35SBC   C06G24323   2.598   3.446   8.571
   35SBC   C06H24324   2.734   3.474   8.574
   35SBC   C06I24325   2.787   3.548   8.682
   35SBC   C06L24326   2.544   3.352   8.480
   35SBC   C06M24327   2.406   3.307   8.487
   35SBC   C06K24328   2.628   3.293   8.383
   35SBC   C05S24329   2.761   3.339   8.376
   35SBC   C05U24330   2.586   3.193   8.292
   35SBC   C05X24331   2.457   3.135   8.314
   35SBC   C05G24332   2.437   3.033   8.214
   35SBC   C05F24333   2.525   3.001   8.114
   35SBC   C05E24334   2.485   2.898   8.035
   35SBC   C04824335   2.557   2.850   7.922
   35SBC   C05624336   2.513   2.735   7.868
   35SBC   C04524337   2.593   2.685   7.763
   35SBC   C04724338   2.685   2.904   7.916
   35SBC   C04924339   2.723   3.015   7.989
   35SBC   C04B24340   2.854   3.057   7.991
   35SBC   C04624341   2.768   2.842   7.831
   35SBC   C04H24342   2.898   2.888   7.821
   35SBC   C05D24343   2.371   2.841   8.087
   35SBC   C04A24344   2.641   3.066   8.093
   35SBC   C05T24345   2.678   3.154   8.186
   35SBC   C05524346   2.804   3.204   8.183
   35SBC   C06D24347   2.378   3.484   8.655
   35SBC   C07W24348   2.699   3.604   8.771
   35SBC   C08524349   2.598   3.829   9.189
   35SBC   H00M24350   2.626   3.880   9.279
   35SBC   C08424351   3.064   3.816   8.998
   35SBC   H00J24352   3.105   3.887   9.069
   35SBC   C07A24353   2.744   3.678   8.880
   35SBC   C08324354   3.149   3.774   8.899
   35SBC   H00K24355   3.252   3.803   8.910
   35SBC   O00K24356   3.313   3.684   8.699
   35SBC   C0GO24357   3.398   3.633   8.606
   35SBC   C0GN24358   3.529   3.674   8.612
   35SBC   H01L24359   3.553   3.748   8.687
   35SBC   C0GM24360   3.624   3.620   8.520
   35SBC   C0GL24361   3.752   3.658   8.535
   35SBC   H01M24362   3.774   3.736   8.607
   35SBC   O00J24363   3.850   3.607   8.451
   35SBC   C0GK24364   3.803   3.510   8.358
   35SBC   H01N24365   3.867   3.485   8.274
   35SBC   C05K24366   3.669   3.468   8.349
   35SBC   C05J24367   3.625   3.382   8.244
   35SBC   C04Y24368   3.714   3.289   8.181
   35SBC   C04X24369   3.667   3.196   8.084
   35SBC   O00624370   3.849   3.275   8.220
   35SBC   C05324371   3.935   3.179   8.177
   35SBC   C04O24372   3.891   3.088   8.077
   35SBC   C03C24373   3.973   2.988   8.015
   35SBC   C03B24374   4.104   2.933   8.026
   35SBC   C05424375   4.199   2.984   8.104
   35SBC   C0GR24376   4.340   2.943   8.097
   35SBC   C03M24377   4.421   2.840   8.027
   35SBC   C03I24378   4.364   2.749   7.927
   35SBC   C03J24379   4.459   2.659   7.865
   35SBC   N00224380   4.414   2.567   7.766
   35SBC   C02U24381   4.502   2.478   7.700
   35SBC   C02T24382   4.459   2.389   7.597
   35SBC   C02Z24383   4.548   2.300   7.532
   35SBC   N00124384   4.500   2.209   7.433
   35SBC   C02R24385   4.593   2.134   7.358
   35SBC   C03224386   4.727   2.129   7.397
   35SBC   C03124387   4.762   2.211   7.508
   35SBC   H00724388   4.866   2.224   7.533
   35SBC   C03324389   4.811   2.046   7.316
   35SBC   H00324390   4.917   2.054   7.339
   35SBC   O00424391   4.771   1.976   7.204
   35SBC   C03424392   4.644   2.002   7.167
   35SBC   C03524393   4.608   1.939   7.044
   35SBC   C03624394   4.474   1.947   6.995
   35SBC   H00524395   4.447   1.893   6.905
   35SBC   C03724396   4.376   2.008   7.078
   35SBC   H00624397   4.274   2.009   7.043
   35SBC   C00D24398   4.410   2.061   7.205
   35SBC   C00C24399   4.322   2.113   7.295
   35SBC   C00B24400   4.170   2.106   7.276
   35SBC   C00A24401   4.066   2.036   7.190
   35SBC   C00924402   3.953   2.105   7.220
   35SBC   C00824403   3.814   2.081   7.192
   35SBC   C00724404   3.784   1.957   7.142
   35SBC   C00624405   3.643   1.930   7.124
   35SBC   C00524406   3.608   1.800   7.086
   35SBC   C00424407   3.708   1.703   7.070
   35SBC   C00324408   3.841   1.729   7.094
   35SBC   C00224409   3.940   1.634   7.068
   35SBC   C01C24410   3.904   1.514   7.003
   35SBC   C01B24411   3.999   1.423   6.953
   35SBC   H00024412   4.100   1.460   6.945
   35SBC   C00124413   4.069   1.668   7.107
   35SBC   C00024414   4.099   1.794   7.162
   35SBC   C01U24415   4.239   1.779   7.190
   35SBC   H00224416   4.302   1.842   7.252
   35SBC   C01T24417   4.292   1.654   7.132
   35SBC   O00224418   4.412   1.623   7.109
   35SBC   O00124419   4.182   1.591   7.091
   35SBC   C01S24420   3.879   1.857   7.137
   35SBC   C00N24421   3.724   2.177   7.231
   35SBC   C00M24422   3.758   2.290   7.305
   35SBC   C00J24423   3.884   2.302   7.343
   35SBC   C00I24424   3.934   2.395   7.433
   35SBC   C00H24425   4.068   2.396   7.471
   35SBC   C00G24426   4.155   2.307   7.424
   35SBC   C00F24427   4.287   2.293   7.463
   35SBC   C01X24428   4.111   2.484   7.566
   35SBC   C01W24429   4.020   2.564   7.632
   35SBC   C01V24430   3.890   2.571   7.576
   35SBC   C02024431   3.794   2.663   7.625
   35SBC   C01Z24432   4.058   2.650   7.728
   35SBC   C02Y24433   3.964   2.743   7.764
   35SBC   C03924434   4.002   2.829   7.859
   35SBC   C02W24435   4.189   2.650   7.783
   35SBC   C01Y24436   4.242   2.476   7.618
   35SBC   C00U24437   3.848   2.490   7.475
   35SBC   C00S24438   3.713   2.481   7.441
   35SBC   C00T24439   3.617   2.562   7.500
   35SBC   C00R24440   3.671   2.381   7.355
   35SBC   C00Q24441   3.541   2.360   7.328
   35SBC   C00V24442   3.446   2.443   7.393
   35SBC   C02424443   3.311   2.411   7.385
   35SBC   C00X24444   3.270   2.313   7.300
   35SBC   C00P24445   3.503   2.261   7.245
   35SBC   C00O24446   3.594   2.161   7.197
   35SBC   C00K24447   3.974   2.207   7.295
   35SBC   N00024448   4.017   1.897   7.169
   35SBC   C00L24449   4.105   2.209   7.334
   35SBC   H00424450   4.679   1.875   6.994
   35SBC   C02Q24451   4.547   2.069   7.243
   35SBC   C00E24452   4.366   2.202   7.399
   35SBC   C03024453   4.678   2.301   7.571
   35SBC   O00324454   4.727   2.390   7.666
   35SBC   C02S24455   4.328   2.385   7.561
   35SBC   C03824456   4.639   2.478   7.732
   35SBC   C03L24457   4.683   2.561   7.833
   35SBC   H00824458   4.786   2.571   7.861
   35SBC   C02V24459   4.276   2.558   7.729
   35SBC   C03K24460   4.597   2.655   7.894
   35SBC   C0BK24461   4.639   2.754   7.981
   35SBC   H00T24462   4.743   2.760   8.011
   35SBC   C03H24463   4.228   2.743   7.884
   35SBC   C0BL24464   4.560   2.841   8.058
   35SBC   C0GU24465   4.617   2.931   8.159
   35SBC   H01O24466   4.723   2.920   8.179
   35SBC   C0GT24467   4.540   3.028   8.224
   35SBC   H01P24468   4.589   3.092   8.296
   35SBC   C0GS24469   4.404   3.032   8.190
   35SBC   C0GV24470   4.314   3.129   8.239
   35SBC   C0GW24471   4.341   3.248   8.316
   35SBC   H01Q24472   4.431   3.295   8.351
   35SBC   C0GX24473   4.231   3.320   8.342
   35SBC   H01R24474   4.248   3.411   8.398
   35SBC   O00L24475   4.103   3.288   8.298
   35SBC   C0GQ24476   4.183   3.098   8.190
   35SBC   C03A24477   4.120   2.828   7.932
   35SBC   C05L24478   4.072   3.178   8.223
   35SBC   C04W24479   3.487   3.357   8.221
   35SBC   C05I24480   3.392   3.425   8.299
   35SBC   C05O24481   3.434   3.505   8.401
   35SBC   C05224482   3.258   3.396   8.288
   35SBC   C04V24483   3.443   3.279   8.117
   35SBC   C04U24484   3.305   3.258   8.102
   35SBC   N00924485   3.573   3.532   8.425
   35SBC   C0GP24486   3.351   3.554   8.498
   35SBC   C05W24487   3.221   3.520   8.493
   35SBC   C07D24488   2.921   3.574   8.694
   35SBC   C06J24489   2.817   3.423   8.479
   35SBC   C05P24490   3.174   3.446   8.386
   35SBC   C05R24491   2.852   3.290   8.282
   35SBC   C04Z24492   3.214   3.314   8.190
   35SBC   C04C24493   2.898   3.152   8.087
   35SBC   C04G24494   2.942   2.995   7.904
   35SBC   C04J24495   3.121   2.867   7.740
   35SBC   C04T24496   3.257   3.165   8.012
   35SBC   N00324497   3.530   3.196   8.048
   35SBC   C04P24498   3.756   3.099   8.035
   35SBC   C03D24499   3.913   2.921   7.913
   35SBC   C02124500   3.836   2.751   7.722
   35SBC   C03F24501   3.526   2.931   7.795
   35SBC   C02224502   3.660   2.659   7.586
   35SBC   C02A24503   3.343   2.816   7.689
   35SBC   C02324504   3.483   2.548   7.475
   35SBC   C02524505   3.215   2.491   7.451
   35SBC   C02D24506   3.081   2.462   7.443
   35SBC   C02E24507   3.040   2.350   7.364
   35SBC   C02N24508   2.909   2.298   7.371
   35SBC   C04N24509   3.213   2.791   7.669
   35SBC   C02P24510   2.989   2.533   7.514
   35SBC   C04I24511   2.986   2.821   7.744
   35SBC   C04424512   2.720   2.733   7.755
   35SBC   C04324513   2.853   2.488   7.516
   35SBC   C05N24514   2.816   2.370   7.447
   35SBC   C09U24515   2.429   2.223   7.508
   35SBC   C09V24516   2.302   2.175   7.540
   35SBC   C09X24517   2.244   2.071   7.476
   35SBC   C09Y24518   2.124   2.000   7.500
   35SBC   C0A124519   2.053   2.046   7.609
   35SBC   C0A224520   2.102   2.162   7.678
   35SBC   C0A424521   2.020   2.216   7.772
   35SBC   C07124522   2.061   2.331   7.839
   35SBC   C0A524523   1.987   2.383   7.943
   35SBC   C0A924524   1.867   2.326   7.973
   35SBC   C0A824525   1.824   2.210   7.908
   35SBC   C0AP24526   1.708   2.151   7.938
   35SBC   C0BY24527   1.674   2.039   7.868
   35SBC   C0BX24528   1.749   1.971   7.779
   35SBC   C0C224529   1.713   1.843   7.730
   35SBC   C0C324530   1.791   1.781   7.631
   35SBC   C0CT24531   1.904   1.854   7.587
   35SBC   C0C124532   1.595   1.780   7.776
   35SBC   C0C024533   1.507   1.859   7.863
   35SBC   C0A724534   1.865   2.030   7.742
   35SBC   C0BZ24535   1.554   1.986   7.898
   35SBC   C0BO24536   1.463   2.048   7.986
   35SBC   C0BN24537   1.502   2.158   8.060
   35SBC   C0BM24538   1.416   2.202   8.152
   35SBC   C0B924539   1.461   2.309   8.226
   35SBC   C0B824540   1.584   2.367   8.206
   35SBC   C0AD24541   1.667   2.316   8.102
   35SBC   C0AF24542   1.625   2.478   8.278
   35SBC   C0AG24543   1.548   2.532   8.384
   35SBC   C0B724544   1.424   2.476   8.405
   35SBC   C0AE24545   1.746   2.533   8.247
   35SBC   C0AB24546   1.834   2.483   8.145
   35SBC   C0AA24547   1.955   2.544   8.115
   35SBC   C0AJ24548   1.788   2.643   8.315
   35SBC   C0AK24549   1.913   2.700   8.285
   35SBC   C06W24550   1.921   2.794   8.378
   35SBC   C0AI24551   1.726   2.696   8.431
   35SBC   C0BP24552   1.354   1.970   8.009
   35SBC   C0BQ24553   1.258   2.027   8.101
   35SBC   C0BW24554   1.622   2.209   8.030
   35SBC   C0AC24555   1.789   2.374   8.071
   35SBC   C0A624556   1.903   2.152   7.804
   35SBC   C0A324557   1.939   1.978   7.645
   35SBC   C09Z24558   2.080   1.887   7.432
   35SBC   C09W24559   2.221   2.225   7.639
   35SBC   C07224560   2.266   2.336   7.707
   35SBC   C09H24561   2.309   2.034   7.358
   35SBC   C09G24562   2.272   1.917   7.299
   35SBC   C09P24563   2.367   1.881   7.207
   35SBC   C02O24564   2.727   2.015   7.220
   35SBC   C02M24565   2.880   2.182   7.297
   35SBC   C02F24566   3.137   2.281   7.293
   35SBC   C00W24567   3.372   2.246   7.227
   35SBC   C01R24568   3.553   2.040   7.136
   35SBC   C01N24569   3.193   1.993   7.096
   35SBC   C01L24570   3.099   1.772   7.075
   35SBC   C01H24571   3.252   1.464   6.990
   35SBC   C01K24572   3.471   1.757   7.065
   35SBC   C01E24573   3.671   1.571   7.032
   35SBC   C01G24574   3.356   1.367   6.957
   35SBC   C01D24575   3.770   1.482   6.990
   35SBC   C01A24576   3.960   1.300   6.902
   35SBC   H00124577   4.040   1.234   6.874
   35SBC   C01F24578   3.566   1.188   6.904
   35SBC   C03P24579   3.517   0.921   6.826
   35SBC   C03T24580   3.289   0.952   6.852
   35SBC   C08I24581   3.026   0.874   6.908
   35SBC   C08J24582   2.895   0.847   6.936
   35SBC   C08L24583   2.672   0.910   6.997
   35SBC   C09324584   2.439   0.985   7.074
   35SBC   C08Z24585   2.523   1.245   7.012
   35SBC   C09T24586   2.090   1.268   7.215
   35SBC   C09S24587   2.329   1.482   7.057
   35SBC   C09Q24588   2.358   1.755   7.148
   35SBC   C09F24589   2.157   1.840   7.329
   35SBC   C09E24590   2.038   1.506   7.256
   35SBC   C0A024591   1.972   1.808   7.472
   35SBC   C0CU24592   1.762   1.652   7.586
   35SBC   C0CR24593   1.658   1.580   7.653
   35SBC   C0CZ24594   1.638   1.441   7.618
   35SBC   C0DA24595   1.992   1.374   7.279
   35SBC   C0D924596   1.664   1.240   7.226
   35SBC   H00V24597   1.677   1.263   7.121
   35SBC   C0CY24598   1.723   1.384   7.517
   35SBC   C0DF24599   1.550   1.188   7.300
   35SBC   C0DE24600   1.410   1.148   7.299
   35SBC   C0GI24601   1.333   1.120   7.179
   35SBC   H01K24602   1.376   1.115   7.080
   35SBC   C0GJ24603   1.203   1.099   7.203
   35SBC   H01J24604   1.146   1.075   7.114
   35SBC   O00I24605   1.137   1.121   7.323
   35SBC   C0GH24606   1.205   1.167   7.434
   35SBC   C0GG24607   1.128   1.204   7.545
   35SBC   O00G24608   0.997   1.189   7.528
   35SBC   C0G824609   0.904   1.228   7.620
   35SBC   C0G924610   0.767   1.185   7.598
   35SBC   H01G24611   0.748   1.117   7.516
   35SBC   C0GA24612   0.666   1.229   7.684
   35SBC   H01H24613   0.570   1.181   7.674
   35SBC   C0GB24614   0.683   1.319   7.788
   35SBC   C0EP24615   0.817   1.372   7.800
   35SBC   C0E824616   0.828   1.486   7.890
   35SBC   C0CK24617   0.929   1.579   7.927
   35SBC   C0CL24618   1.063   1.538   7.934
   35SBC   C0E924619   1.115   1.428   7.854
   35SBC   C0GE24620   1.071   1.335   7.751
   35SBC   C0E724621   0.725   1.513   7.987
   35SBC   C0CJ24622   0.754   1.623   8.077
   35SBC   C0E624623   0.670   1.635   8.186
   35SBC   H00Y24624   0.688   1.710   8.263
   35SBC   C0EO24625   0.548   1.567   8.180
   35SBC   H01124626   0.479   1.581   8.262
   35SBC   C0G624627   0.511   1.476   8.080
   35SBC   C0G524628   0.391   1.396   8.073
   35SBC   H01F24629   0.313   1.408   8.147
   35SBC   C0GD24630   0.373   1.313   7.967
   35SBC   H01I24631   0.280   1.258   7.966
   35SBC   O00H24632   0.458   1.296   7.862
   35SBC   C0EQ24633   0.608   1.441   7.986
   35SBC   C0GC24634   0.583   1.349   7.882
   35SBC   C0G724635   0.930   1.315   7.728
   35SBC   C0DD24636   1.345   1.176   7.421
   35SBC   C0GF24637   1.167   1.269   7.665
   35SBC   C0CO24638   1.249   1.435   7.887
   35SBC   C0D024639   1.521   1.383   7.674
   35SBC   C0C424640   1.575   1.647   7.757
   35SBC   C0CN24641   1.283   1.531   7.979
   35SBC   C0CP24642   1.381   1.849   7.938
   35SBC   C0CM24643   1.163   1.591   8.018
   35SBC   C0CI24644   0.878   1.679   8.027
   35SBC   C0CD24645   0.815   2.078   8.276
   35SBC   C0BR24646   1.132   1.964   8.118
   35SBC   C0CS24647   1.297   2.145   8.170
   35SBC   C0B624648   1.379   2.367   8.323
   35SBC   C0CG24649   0.998   2.205   8.375
   35SBC   C0CF24650   0.870   2.168   8.372
   35SBC   C0E524651   0.593   2.131   8.351
   35SBC   C0DT24652   0.438   2.209   8.563
   35SBC   C0DL24653   0.757   2.348   8.672
   35SBC   C0DM24654   0.804   2.439   8.767
   35SBC   C0DY24655   0.591   2.439   8.882
   35SBC   C0DU24656   0.364   2.247   8.676
   35SBC   C0F024657   0.143   2.280   8.767
   35SBC   C0F424658  -0.034   2.442   8.911
   35SBC   C0FG24659   0.292   2.465   9.084
   35SBC   O00B24660  -0.039   2.617   9.076
   35SBC   C0FN24661   0.315   2.577   9.157
   35SBC   C0DZ24662   0.502   2.493   8.980
   35SBC   O00C24663   0.719   2.755   9.118
   35SBC   C0FR24664   0.853   2.800   9.129
   35SBC   O00D24665   0.875   2.893   9.214
   35SBC   C0E024666   0.719   2.494   8.864
   35SBC   C0E324667   0.940   2.744   9.033
   35SBC   C0AW24668   1.073   2.782   9.020
   35SBC   C0AV24669   1.144   2.866   9.112
   35SBC   H00Q24670   1.114   2.908   9.207
   35SBC   C0AU24671   1.280   2.912   9.087
   35SBC   H00R24672   1.320   2.979   9.162
   35SBC   C0AT24673   1.340   2.882   8.964
   35SBC   C0AS24674   1.464   2.912   8.891
   35SBC   C0AR24675   1.553   3.019   8.936
   35SBC   C0BE24676   1.267   2.793   8.887
   35SBC   C0DN24677   0.931   2.491   8.750
   35SBC   C0AX24678   1.141   2.736   8.910
   35SBC   C0BB24679   1.140   2.506   8.627
   35SBC   C0BD24680   1.342   2.770   8.770
   35SBC   C0B224681   1.346   2.525   8.504
   35SBC   C0AH24682   1.588   2.649   8.455
   35SBC   C0BF24683   1.471   2.828   8.769
   35SBC   C0AL24684   1.816   2.801   8.472
   35SBC   C07U24685   1.723   3.004   8.743
   35SBC   C0AQ24686   1.670   3.053   8.866
   35SBC   C0BG24687   1.527   3.120   9.042
   35SBC   C0FY24688   1.630   3.439   9.010
   35SBC   C0BJ24689   1.407   3.201   9.057
   35SBC   H00S24690   1.313   3.173   9.011
   35SBC   C0FZ24691   1.523   3.522   9.012
   35SBC   C07S24692   1.727   3.467   8.913
   35SBC   C0G124693   1.620   3.806   8.821
   35SBC   C07K24694   1.950   3.823   8.656
   35SBC   C07H24695   1.941   3.550   8.735
   35SBC   C06B24696   2.287   3.558   8.722
   35SBC   C06N24697   2.323   3.386   8.574
   35SBC   C06624698   1.973   3.295   8.688
   35SBC   C06224699   2.028   3.041   8.533
   35SBC   C05Y24700   2.366   3.189   8.414
   35SBC   C06124701   2.103   2.940   8.473
   35SBC   C05H24702   2.337   2.935   8.194
   35SBC   C06V24703   2.045   2.850   8.373
   35SBC   C06Y24704   2.000   2.651   8.185
   35SBC   C05C24705   2.320   2.725   8.023
   35SBC   C06Z24706   2.034   2.492   8.016
   35SBC   C07024707   2.180   2.391   7.806
   35SBC   C05B24708   2.392   2.678   7.911
   35SBC   C05724709   2.549   2.568   7.700
   35SBC   C05924710   2.391   2.394   7.674
   36SBC   C05824711   5.422   5.993   5.397
   36SBC   C05A24712   5.494   5.875   5.433
   36SBC   C06Q24713   5.629   5.880   5.472
   36SBC   C06R24714   5.699   5.760   5.504
   36SBC   C06S24715   5.635   5.631   5.506
   36SBC   C06T24716   5.713   5.521   5.557
   36SBC   C06U24717   5.666   5.386   5.591
   36SBC   C06X24718   5.549   5.313   5.566
   36SBC   C06024719   5.534   5.191   5.643
   36SBC   C05Z24720   5.494   5.060   5.598
   36SBC   C06824721   5.605   4.968   5.636
   36SBC   C06724722   5.617   4.820   5.617
   36SBC   C06924723   5.499   4.747   5.564
   36SBC   C06A24724   5.491   4.611   5.508
   36SBC   C07324725   5.591   4.516   5.470
   36SBC   C07P24726   5.565   4.440   5.356
   36SBC   C07O24727   5.465   4.474   5.260
   36SBC   H00D24728   5.406   4.563   5.275
   36SBC   C07N24729   5.437   4.388   5.153
   36SBC   H00E24730   5.371   4.415   5.072
   36SBC   C07M24731   5.509   4.268   5.149
   36SBC   H00F24732   5.498   4.201   5.065
   36SBC   C07L24733   5.596   4.224   5.246
   36SBC   C07Q24734   5.663   4.095   5.253
   36SBC   H00G24735   5.640   4.028   5.171
   36SBC   O00F24736   5.764   4.056   5.336
   36SBC   C07J24737   5.803   4.158   5.421
   36SBC   C07I24738   5.726   4.279   5.436
   36SBC   N00424739   5.767   4.373   5.538
   36SBC   C07R24740   5.868   4.332   5.631
   36SBC   C07T24741   5.950   4.221   5.598
   36SBC   C0FX24742   6.069   4.193   5.659
   36SBC   C0FW24743   6.164   4.101   5.623
   36SBC   C0G024744   6.129   4.017   5.511
   36SBC   C0G224745   6.217   3.923   5.460
   36SBC   H01E24746   6.180   3.865   5.376
   36SBC   C0G324747   6.341   3.912   5.518
   36SBC   H01C24748   6.417   3.841   5.487
   36SBC   C0G424749   6.377   3.997   5.623
   36SBC   H01D24750   6.478   3.997   5.662
   36SBC   O00E24751   5.994   4.023   5.475
   36SBC   C0FV24752   6.294   4.099   5.676
   36SBC   C0FU24753   6.324   4.196   5.779
   36SBC   H01B24754   6.425   4.209   5.814
   36SBC   C0FT24755   6.229   4.278   5.833
   36SBC   C0FS24756   6.223   4.389   5.920
   36SBC   C0BI24757   6.087   4.426   5.930
   36SBC   C0BH24758   6.077   4.563   5.960
   36SBC   C07F24759   6.015   4.665   5.879
   36SBC   C07E24760   5.899   4.651   5.801
   36SBC   C07G24761   5.848   4.540   5.740
   36SBC   C07424762   5.752   4.586   5.651
   36SBC   C06524763   5.839   4.769   5.744
   36SBC   C06424764   5.900   4.893   5.776
   36SBC   C06324765   5.860   5.022   5.740
   36SBC   C07524766   5.969   5.109   5.794
   36SBC   C0AM24767   6.084   5.037   5.843
   36SBC   C0AN24768   6.213   5.089   5.899
   36SBC   C0AO24769   6.268   5.231   5.895
   36SBC   C0B124770   6.401   5.261   5.938
   36SBC   C0B024771   6.480   5.165   5.998
   36SBC   C0AZ24772   6.604   5.186   6.059
   36SBC   C0AY24773   6.675   5.077   6.115
   36SBC   N00724774   6.802   5.096   6.172
   36SBC   C0E224775   6.873   4.987   6.235
   36SBC   C0E124776   6.989   5.016   6.302
   36SBC   C0E424777   7.058   4.909   6.370
   36SBC   C0FF24778   7.186   4.930   6.432
   36SBC   C0FJ24779   7.284   4.837   6.484
   36SBC   C0FK24780   7.320   4.709   6.430
   36SBC   H01624781   7.266   4.648   6.359
   36SBC   C0FL24782   7.462   4.689   6.461
   36SBC   H01724783   7.529   4.619   6.413
   36SBC   C0FM24784   7.506   4.796   6.546
   36SBC   C0FH24785   7.622   4.886   6.561
   36SBC   C0FI24786   7.565   5.015   6.588
   36SBC   C0F324787   7.631   5.130   6.541
   36SBC   C0F224788   7.545   5.234   6.515
   36SBC   C0DW24789   7.414   5.218   6.480
   36SBC   C0FE24790   7.351   5.098   6.500
   36SBC   C0DV24791   7.347   5.319   6.411
   36SBC   C0DX24792   7.224   5.295   6.356
   36SBC   C0DK24793   7.161   5.393   6.282
   36SBC   C0DJ24794   7.231   5.512   6.254
   36SBC   C0DI24795   7.173   5.608   6.177
   36SBC   C0DH24796   7.042   5.598   6.130
   36SBC   C0DG24797   6.980   5.473   6.151
   36SBC   C0BV24798   6.855   5.451   6.097
   36SBC   C0BC24799   6.795   5.329   6.105
   36SBC   C0BA24800   6.782   5.556   6.036
   36SBC   C0B424801   6.658   5.534   5.973
   36SBC   C0B324802   6.597   5.409   5.985
   36SBC   C0B524803   6.594   5.642   5.921
   36SBC   C0BU24804   6.653   5.769   5.925
   36SBC   C0BT24805   6.781   5.789   5.971
   36SBC   C0BS24806   6.841   5.918   5.970
   36SBC   C0CC24807   6.973   5.930   6.008
   36SBC   C0CB24808   7.038   6.051   6.003
   36SBC   C0CH24809   7.178   6.043   5.986
   36SBC   C0DO24810   7.252   5.931   6.031
   36SBC   C0DP24811   7.389   5.934   6.050
   36SBC   C0EA24812   7.467   6.041   5.985
   36SBC   H01224813   7.423   6.128   5.939
   36SBC   O00924814   7.606   6.047   5.987
   36SBC   C0EH24815   7.662   5.955   6.061
   36SBC   C0EG24816   7.798   5.958   6.077
   36SBC   C0EJ24817   7.899   6.039   6.018
   36SBC   H01024818   7.887   6.126   5.955
   36SBC   C0EK24819   8.031   5.988   6.052
   36SBC   H00Z24820   8.132   6.021   6.032
   36SBC   C0EL24821   8.002   5.871   6.123
   36SBC   C0EM24822   8.086   5.771   6.169
   36SBC   C0EW24823   8.226   5.772   6.173
   36SBC   H01324824   8.289   5.852   6.137
   36SBC   C0EX24825   8.305   5.661   6.224
   36SBC   H01424826   8.413   5.660   6.219
   36SBC   C0F124827   8.233   5.542   6.278
   36SBC   C0EU24828   8.095   5.543   6.274
   36SBC   C0ET24829   8.000   5.448   6.315
   36SBC   C0ES24830   7.873   5.503   6.296
   36SBC   C0EE24831   7.884   5.629   6.234
   36SBC   C0ED24832   7.810   5.745   6.203
   36SBC   C0EC24833   7.662   5.741   6.200
   36SBC   C0EB24834   7.584   5.642   6.264
   36SBC   C0EN24835   7.639   5.535   6.347
   36SBC   C0ER24836   7.547   5.451   6.410
   36SBC   C0DS24837   7.442   5.638   6.242
   36SBC   C0DR24838   7.378   5.733   6.165
   36SBC   C0EY24839   7.765   5.478   6.380
   36SBC   C0EZ24840   7.756   5.354   6.443
   36SBC   C0F524841   7.836   5.231   6.450
   36SBC   C0F624842   7.972   5.225   6.418
   36SBC   N00824843   8.034   5.096   6.439
   36SBC   C0F724844   7.952   4.978   6.464
   36SBC   C0FQ24845   8.020   4.854   6.456
   36SBC   H01824846   7.960   4.765   6.470
   36SBC   C0FP24847   8.159   4.842   6.449
   36SBC   H01924848   8.209   4.746   6.458
   36SBC   C0FO24849   8.235   4.954   6.439
   36SBC   H01A24850   8.342   4.936   6.438
   36SBC   C0F824851   7.817   4.992   6.491
   36SBC   C0F924852   8.172   5.081   6.427
   36SBC   C0FA24853   8.255   5.192   6.418
   36SBC   H01524854   8.361   5.177   6.430
   36SBC   C0FB24855   8.199   5.318   6.376
   36SBC   C0FD24856   8.058   5.327   6.373
   36SBC   C0FC24857   8.284   5.423   6.332
   36SBC   O00A24858   8.404   5.409   6.338
   36SBC   C0EV24859   8.023   5.654   6.225
   36SBC   C0EF24860   7.867   5.853   6.134
   36SBC   C0EI24861   7.594   5.839   6.121
   36SBC   C0DQ24862   7.454   5.833   6.114
   36SBC   C0CE24863   7.180   5.822   6.070
   36SBC   H00U24864   7.219   6.137   5.951
   36SBC   C0CA24865   6.962   6.165   6.012
   36SBC   C0C924866   6.822   6.164   5.965
   36SBC   C0C824867   6.748   6.289   5.971
   36SBC   C0C724868   6.628   6.325   5.909
   36SBC   C0C624869   6.598   6.463   5.923
   36SBC   C0C524870   6.524   6.568   5.852
   36SBC   C0CQ24871   6.557   6.705   5.878
   36SBC   C0D124872   6.678   6.733   5.942
   36SBC   C0D824873   6.743   6.834   5.877
   36SBC   C0D724874   6.645   6.904   5.793
   36SBC   C0D624875   6.677   6.996   5.699
   36SBC   C0D524876   6.581   7.056   5.617
   36SBC   C0D424877   6.441   7.039   5.610
   36SBC   C0D324878   6.400   7.086   5.481
   36SBC   C0CX24879   6.280   7.014   5.442
   36SBC   C0CW24880   6.277   6.891   5.515
   36SBC   C0CV24881   6.214   6.763   5.510
   36SBC   C0D224882   6.091   6.745   5.433
   36SBC   C09D24883   6.017   6.844   5.361
   36SBC   C09C24884   5.889   6.823   5.299
   36SBC   C09B24885   5.807   6.918   5.242
   36SBC   C09A24886   5.861   7.052   5.229
   36SBC   C09924887   5.990   7.073   5.258
   36SBC   C09824888   6.002   7.206   5.306
   36SBC   C08Y24889   5.864   7.262   5.310
   36SBC   C08X24890   5.820   7.381   5.371
   36SBC   C08W24891   5.910   7.471   5.448
   36SBC   C08U24892   6.049   7.439   5.490
   36SBC   C08V24893   6.144   7.330   5.470
   36SBC   C0DC24894   6.269   7.373   5.521
   36SBC   H00W24895   6.361   7.317   5.512
   36SBC   C0DB24896   6.258   7.505   5.574
   36SBC   H00X24897   6.335   7.564   5.622
   36SBC   C08T24898   6.120   7.542   5.547
   36SBC   C08S24899   6.075   7.663   5.594
   36SBC   H00N24900   6.145   7.736   5.629
   36SBC   C08R24901   5.939   7.696   5.571
   36SBC   C08Q24902   5.885   7.821   5.597
   36SBC   H00O24903   5.951   7.902   5.624
   36SBC   C08P24904   5.753   7.856   5.585
   36SBC   C08O24905   5.703   7.986   5.621
   36SBC   H00P24906   5.770   8.068   5.646
   36SBC   C08N24907   5.559   8.003   5.620
   36SBC   C08M24908   5.502   8.130   5.658
   36SBC   O00824909   5.571   8.226   5.688
   36SBC   O00724910   5.367   8.140   5.665
   36SBC   C08H24911   5.287   8.038   5.641
   36SBC   C08G24912   5.147   8.036   5.670
   36SBC   C03V24913   5.060   8.138   5.714
   36SBC   H00924914   5.115   8.231   5.724
   36SBC   C03U24915   4.924   8.120   5.758
   36SBC   C03W24916   4.836   8.222   5.812
   36SBC   H00A24917   4.861   8.327   5.810
   36SBC   C03X24918   4.708   8.188   5.843
   36SBC   H00B24919   4.638   8.268   5.859
   36SBC   O00524920   4.662   8.059   5.840
   36SBC   C03O24921   4.747   7.961   5.795
   36SBC   C03N24922   4.699   7.840   5.789
   36SBC   O00024923   4.581   7.814   5.856
   36SBC   C01924924   4.547   7.684   5.878
   36SBC   C01824925   4.602   7.580   5.807
   36SBC   C01724926   4.706   7.611   5.714
   36SBC   C01624927   4.769   7.508   5.636
   36SBC   C01524928   4.693   7.391   5.628
   36SBC   C01424929   4.742   7.286   5.552
   36SBC   C01324930   4.867   7.296   5.487
   36SBC   C01224931   4.874   7.162   5.424
   36SBC   C01124932   4.743   7.108   5.435
   36SBC   C01024933   4.701   6.992   5.375
   36SBC   C00Z24934   4.593   6.911   5.409
   36SBC   C00Y24935   4.630   6.787   5.352
   36SBC   C01O24936   4.755   6.786   5.293
   36SBC   C01P24937   4.835   6.675   5.296
   36SBC   C02L24938   4.975   6.696   5.295
   36SBC   C02K24939   5.016   6.835   5.290
   36SBC   C01M24940   4.934   6.948   5.325
   36SBC   C02J24941   5.153   6.847   5.257
   36SBC   C02I24942   5.224   6.962   5.239
   36SBC   C02H24943   5.198   7.099   5.258
   36SBC   C01Q24944   5.091   7.154   5.328
   36SBC   C02G24945   5.119   7.293   5.360
   36SBC   C08924946   5.239   7.323   5.288
   36SBC   C08824947   5.305   7.432   5.341
   36SBC   C08724948   5.191   7.492   5.416
   36SBC   C08624949   5.195   7.619   5.477
   36SBC   C03S24950   5.095   7.679   5.555
   36SBC   N00624951   5.137   7.807   5.590
   36SBC   C08F24952   5.270   7.810   5.566
   36SBC   C01J24953   4.960   7.652   5.600
   36SBC   C03R24954   4.889   7.762   5.663
   36SBC   C03Q24955   4.946   7.887   5.687
   36SBC   C08E24956   5.315   7.696   5.500
   36SBC   C08D24957   5.453   7.683   5.467
   36SBC   C08K24958   5.537   7.783   5.522
   36SBC   C08C24959   5.515   7.569   5.407
   36SBC   C09124960   5.653   7.550   5.414
   36SBC   C09224961   5.736   7.640   5.478
   36SBC   C08B24962   5.454   7.453   5.348
   36SBC   C09024963   5.562   7.365   5.306
   36SBC   C09424964   5.548   7.239   5.242
   36SBC   C09524965   5.648   7.149   5.229
   36SBC   C09R24966   5.594   7.024   5.198
   36SBC   C09724967   5.454   7.025   5.206
   36SBC   C09624968   5.431   7.162   5.225
   36SBC   C01I24969   5.073   7.407   5.426
   36SBC   C08A24970   5.296   7.195   5.242
   36SBC   C09L24971   5.359   6.922   5.214
   36SBC   C09K24972   5.367   6.780   5.207
   36SBC   C09J24973   5.489   6.709   5.214
   36SBC   C09I24974   5.503   6.574   5.264
   36SBC   C09O24975   5.412   6.461   5.289
   36SBC   C09N24976   5.276   6.473   5.288
   36SBC   C09M24977   5.192   6.590   5.278
   36SBC   C06O24978   5.206   6.346   5.305
   36SBC   C05M24979   5.276   6.227   5.329
   36SBC   C06P24980   5.415   6.227   5.350
   36SBC   C04224981   5.214   6.102   5.340
   36SBC   C04124982   5.074   6.097   5.332
   36SBC   C04024983   5.011   5.974   5.361
   36SBC   C03Z24984   4.874   5.969   5.378
   36SBC   C03Y24985   4.801   6.085   5.370
   36SBC   C02724986   4.662   6.085   5.402
   36SBC   C02624987   4.591   6.201   5.416
   36SBC   C02824988   4.459   6.200   5.468
   36SBC   C02924989   4.401   6.081   5.504
   36SBC   C02B24990   4.279   6.085   5.571
   36SBC   C02C24991   4.219   5.965   5.613
   36SBC   C02X24992   4.102   5.968   5.686
   36SBC   C03E24993   4.059   5.857   5.743
   36SBC   C03G24994   4.121   5.735   5.736
   36SBC   C04Q24995   4.240   5.729   5.666
   36SBC   C04R24996   4.313   5.613   5.665
   36SBC   C04S24997   4.431   5.605   5.601
   36SBC   C04L24998   4.480   5.722   5.538
   36SBC   C04M24999   4.412   5.844   5.543
   36SBC   C04K25000   4.609   5.722   5.480
   36SBC   C04F25001   4.683   5.604   5.490
   36SBC   C04E25002   4.628   5.489   5.539
   36SBC   C04D25003   4.704   5.368   5.538
   36SBC   C05025004   4.656   5.254   5.593
   36SBC   C05125005   4.726   5.135   5.586
   36SBC   C05Q25006   4.667   5.018   5.628
   36SBC   C05V25007   4.737   4.898   5.613
   36SBC   N00525008   4.673   4.774   5.638
   36SBC   C07V25009   4.546   4.772   5.700
   36SBC   C08225010   4.487   4.654   5.736
   36SBC   C08125011   4.547   4.531   5.705
   36SBC   C07C25012   4.674   4.538   5.645
   36SBC   C07B25013   4.743   4.423   5.613
   36SBC   C08025014   4.676   4.297   5.617
   36SBC   C07Z25015   4.748   4.187   5.572
   36SBC   H00L25016   4.694   4.094   5.581
   36SBC   C07925017   4.886   4.193   5.534
   36SBC   C07825018   4.948   4.314   5.526
   36SBC   C07725019   5.086   4.315   5.496
   36SBC   C07X25020   5.154   4.199   5.448
   36SBC   H00I25021   5.256   4.201   5.413
   36SBC   C07Y25022   5.087   4.078   5.457
   36SBC   H00H25023   5.129   3.986   5.418
   36SBC   C07625024   5.153   4.435   5.510
   36SBC   C06C25025   5.296   4.444   5.509
   36SBC   H00C25026   5.353   4.353   5.499
   36SBC   C06F25027   5.082   4.550   5.541
   36SBC   C06E25028   5.143   4.673   5.541
   36SBC   C06G25029   5.079   4.790   5.549
   36SBC   C06H25030   4.939   4.785   5.565
   36SBC   C06I25031   4.873   4.664   5.577
   36SBC   C06L25032   5.148   4.912   5.540
   36SBC   C06M25033   5.293   4.917   5.547
   36SBC   C06K25034   5.073   5.031   5.525
   36SBC   C05S25035   4.936   5.024   5.552
   36SBC   C05U25036   5.134   5.156   5.503
   36SBC   C05X25037   5.277   5.165   5.513
   36SBC   C05G25038   5.327   5.297   5.470
   36SBC   C05F25039   5.237   5.395   5.444
   36SBC   C05E25040   5.294   5.508   5.433
   36SBC   C04825041   5.224   5.631   5.412
   36SBC   C05625042   5.294   5.748   5.404
   36SBC   C04525043   5.221   5.860   5.372
   36SBC   C04725044   5.090   5.619   5.414
   36SBC   C04925045   5.024   5.500   5.439
   36SBC   C04B25046   4.888   5.497   5.456
   36SBC   C04625047   5.015   5.733   5.402
   36SBC   C04H25048   4.878   5.729   5.418
   36SBC   C05D25049   5.434   5.501   5.449
   36SBC   C04A25050   5.098   5.385   5.447
   36SBC   C05T25051   5.052   5.263   5.482
   36SBC   C05525052   4.919   5.262   5.507
   36SBC   C06D25053   5.282   4.677   5.538
   36SBC   C07W25054   4.944   4.547   5.561
   36SBC   C08525055   4.952   4.076   5.495
   36SBC   H00M25056   4.898   3.983   5.502
   36SBC   C08425057   4.548   4.292   5.670
   36SBC   H00J25058   4.500   4.195   5.677
   36SBC   C07A25059   4.877   4.428   5.566
   36SBC   C08325060   4.489   4.405   5.722
   36SBC   H00K25061   4.392   4.378   5.761
   36SBC   O00K25062   4.356   4.657   5.774
   36SBC   C0GO25063   4.301   4.779   5.809
   36SBC   C0GN25064   4.186   4.782   5.887
   36SBC   H01L25065   4.145   4.685   5.910
   36SBC   C0GM25066   4.148   4.905   5.958
   36SBC   C0GL25067   4.073   4.905   6.072
   36SBC   H01M25068   4.032   4.813   6.110
   36SBC   O00J25069   4.030   5.024   6.121
   36SBC   C0GK25070   4.067   5.139   6.057
   36SBC   H01N25071   4.021   5.231   6.090
   36SBC   C05K25072   4.144   5.142   5.946
   36SBC   C05J25073   4.176   5.265   5.878
   36SBC   C04Y25074   4.106   5.386   5.877
   36SBC   C04X25075   4.142   5.503   5.809
   36SBC   O00625076   3.987   5.390   5.951
   36SBC   C05325077   3.929   5.517   5.983
   36SBC   C04O25078   3.972   5.637   5.916
   36SBC   C03C25079   3.930   5.772   5.937
   36SBC   C03B25080   3.844   5.837   6.032
   36SBC   C05425081   3.760   5.766   6.118
   36SBC   C0GR25082   3.656   5.830   6.194
   36SBC   C03M25083   3.624   5.971   6.225
   36SBC   C03I25084   3.684   6.090   6.165
   36SBC   C03J25085   3.652   6.219   6.218
   36SBC   N00225086   3.708   6.341   6.163
   36SBC   C02U25087   3.678   6.469   6.217
   36SBC   C02T25088   3.735   6.585   6.169
   36SBC   C02Z25089   3.710   6.705   6.234
   36SBC   N00125090   3.781   6.821   6.197
   36SBC   C02R25091   3.756   6.942   6.266
   36SBC   C03225092   3.669   6.943   6.377
   36SBC   C03125093   3.599   6.827   6.415
   36SBC   H00725094   3.531   6.824   6.498
   36SBC   C03325095   3.652   7.073   6.441
   36SBC   H00325096   3.576   7.086   6.517
   36SBC   O00425097   3.712   7.191   6.393
   36SBC   C03425098   3.800   7.179   6.282
   36SBC   C03525099   3.867   7.299   6.236
   36SBC   C03625100   3.939   7.296   6.119
   36SBC   H00525101   3.992   7.385   6.086
   36SBC   C03725102   3.948   7.175   6.045
   36SBC   H00625103   4.000   7.176   5.951
   36SBC   C00D25104   3.904   7.053   6.105
   36SBC   C00C25105   3.940   6.933   6.048
   36SBC   C00B25106   4.028   6.911   5.931
   36SBC   C00A25107   4.117   6.995   5.850
   36SBC   C00925108   4.148   6.906   5.737
   36SBC   C00825109   4.257   6.915   5.648
   36SBC   C00725110   4.337   7.025   5.661
   36SBC   C00625111   4.457   7.033   5.584
   36SBC   C00525112   4.539   7.152   5.596
   36SBC   C00425113   4.509   7.244   5.694
   36SBC   C00325114   4.405   7.217   5.787
   36SBC   C00225115   4.400   7.297   5.902
   36SBC   C01C25116   4.455   7.422   5.903
   36SBC   C01B25117   4.402   7.527   5.988
   36SBC   H00025118   4.321   7.517   6.059
   36SBC   C00125119   4.323   7.259   6.005
   36SBC   C00025120   4.249   7.142   5.991
   36SBC   C01U25121   4.224   7.103   6.129
   36SBC   H00225122   4.179   7.013   6.169
   36SBC   C01T25123   4.276   7.214   6.220
   36SBC   O00225124   4.262   7.230   6.339
   36SBC   O00125125   4.343   7.296   6.137
   36SBC   C01S25126   4.324   7.101   5.772
   36SBC   C00N25127   4.290   6.799   5.575
   36SBC   C00M25128   4.217   6.684   5.595
   36SBC   C00J25129   4.111   6.672   5.680
   36SBC   C00I25130   4.063   6.559   5.736
   36SBC   C00H25131   3.971   6.560   5.837
   36SBC   C00G25132   3.949   6.679   5.906
   36SBC   C00F25133   3.876   6.698   6.026
   36SBC   C01X25134   3.916   6.450   5.887
   36SBC   C01W25135   3.951   6.331   5.824
   36SBC   C01V25136   4.049   6.326   5.721
   36SBC   C02025137   4.098   6.208   5.673
   36SBC   C01Z25138   3.898   6.213   5.878
   36SBC   C02Y25139   3.941   6.102   5.815
   36SBC   C03925140   3.909   5.985   5.884
   36SBC   C02W25141   3.817   6.212   5.994
   36SBC   C01Y25142   3.837   6.454   6.002
   36SBC   C00U25143   4.107   6.441   5.683
   36SBC   C00S25144   4.210   6.444   5.593
   36SBC   C00T25145   4.274   6.325   5.556
   36SBC   C00R25146   4.270   6.567   5.554
   36SBC   C00Q25147   4.388   6.564   5.486
   36SBC   C00V25148   4.456   6.442   5.457
   36SBC   C02425149   4.583   6.441   5.398
   36SBC   C00X25150   4.638   6.556   5.361
   36SBC   C00P25151   4.449   6.683   5.450
   36SBC   C00O25152   4.404   6.801   5.507
   36SBC   C00K25153   4.077   6.790   5.740
   36SBC   N00025154   4.223   7.083   5.873
   36SBC   C00L25155   4.013   6.791   5.860
   36SBC   H00425156   3.865   7.396   6.284
   36SBC   C02Q25157   3.822   7.056   6.218
   36SBC   C00E25158   3.876   6.817   6.090
   36SBC   C03025159   3.621   6.708   6.344
   36SBC   O00325160   3.554   6.595   6.384
   36SBC   C02S25161   3.822   6.576   6.065
   36SBC   C03825162   3.589   6.476   6.325
   36SBC   C03L25163   3.530   6.360   6.374
   36SBC   H00825164   3.463   6.367   6.458
   36SBC   C02V25165   3.785   6.335   6.046
   36SBC   C03K25166   3.553   6.234   6.315
   36SBC   C0BK25167   3.484   6.119   6.359
   36SBC   H00T25168   3.412   6.142   6.436
   36SBC   C03H25169   3.775   6.094   6.057
   36SBC   C0BL25170   3.516   5.991   6.318
   36SBC   C0GU25171   3.452   5.876   6.371
   36SBC   H01O25172   3.375   5.894   6.445
   36SBC   C0GT25173   3.462   5.744   6.328
   36SBC   H01P25174   3.399   5.664   6.363
   36SBC   C0GS25175   3.570   5.728   6.249
   36SBC   C0GV25176   3.628   5.603   6.207
   36SBC   C0GW25177   3.587   5.471   6.236
   36SBC   H01Q25178   3.515   5.439   6.309
   36SBC   C0GX25179   3.660   5.370   6.180
   36SBC   H01R25180   3.632   5.270   6.209
   36SBC   O00L25181   3.766   5.385   6.096
   36SBC   C0GQ25182   3.741   5.626   6.126
   36SBC   C03A25183   3.830   5.974   6.001
   36SBC   C05L25184   3.811   5.516   6.064
   36SBC   C04W25185   4.291   5.264   5.795
   36SBC   C05I25186   4.358   5.141   5.773
   36SBC   C05O25187   4.308   5.022   5.815
   36SBC   C05225188   4.481   5.138   5.705
   36SBC   C04V25189   4.336   5.376   5.730
   36SBC   C04U25190   4.455   5.373   5.661
   36SBC   N00925191   4.203   5.022   5.904
   36SBC   C0GP25192   4.365   4.900   5.780
   36SBC   C05W25193   4.489   4.896   5.712
   36SBC   C07D25194   4.739   4.654   5.617
   36SBC   C06J25195   4.876   4.902   5.581
   36SBC   C05P25196   4.545   5.015   5.681
   36SBC   C05R25197   4.860   5.141   5.551
   36SBC   C04Z25198   4.533   5.257   5.659
   36SBC   C04C25199   4.835   5.374   5.495
   36SBC   C04G25200   4.814   5.610   5.449
   36SBC   C04J25201   4.672   5.843   5.432
   36SBC   C04T25202   4.505   5.489   5.602
   36SBC   N00325203   4.257   5.499   5.730
   36SBC   C04P25204   4.072   5.628   5.814
   36SBC   C03D25205   3.963   5.871   5.849
   36SBC   C02125206   4.044   6.092   5.719
   36SBC   C03F25207   4.289   5.847   5.608
   36SBC   C02225208   4.215   6.205   5.596
   36SBC   C02A25209   4.470   5.960   5.485
   36SBC   C02325210   4.395   6.322   5.489
   36SBC   C02525211   4.654   6.321   5.384
   36SBC   C02D25212   4.789   6.323   5.342
   36SBC   C02E25213   4.855   6.441   5.320
   36SBC   C02N25214   4.996   6.453   5.304
   36SBC   C04N25215   4.601   5.962   5.432
   36SBC   C02P25216   4.863   6.207   5.335
   36SBC   C04I25217   4.806   5.848   5.413
   36SBC   C04425218   5.083   5.858   5.378
   36SBC   C04325219   5.002   6.212   5.314
   36SBC   C05N25220   5.069   6.338   5.301
   36SBC   C09U25221   5.481   6.345   5.332
   36SBC   C09V25222   5.619   6.345   5.372
   36SBC   C09X25223   5.699   6.458   5.355
   36SBC   C09Y25224   5.830   6.476   5.401
   36SBC   C0A125225   5.888   6.371   5.462
   36SBC   C0A225226   5.817   6.248   5.469
   36SBC   C0A425227   5.883   6.140   5.518
   36SBC   C07125228   5.817   6.020   5.522
   36SBC   C0A525229   5.887   5.907   5.570
   36SBC   C0A925230   6.011   5.921   5.617
   36SBC   C0A825231   6.073   6.043   5.608
   36SBC   C0AP25232   6.206   6.055   5.649
   36SBC   C0BY25233   6.269   6.176   5.645
   36SBC   C0BX25234   6.200   6.290   5.612
   36SBC   C0C225235   6.268   6.408   5.623
   36SBC   C0C325236   6.207   6.527   5.573
   36SBC   C0CT25237   6.085   6.512   5.505
   36SBC   C0C125238   6.389   6.425   5.696
   36SBC   C0C025239   6.462   6.297   5.728
   36SBC   C0A725240   6.073   6.279   5.564
   36SBC   C0BZ25241   6.406   6.183   5.677
   36SBC   C0BO25242   6.469   6.069   5.724
   36SBC   C0BN25243   6.397   5.952   5.746
   36SBC   C0BM25244   6.463   5.856   5.815
   36SBC   C0B925245   6.402   5.733   5.820
   36SBC   C0B825246   6.282   5.712   5.756
   36SBC   C0AD25247   6.210   5.819   5.702
   36SBC   C0AF25248   6.217   5.589   5.769
   36SBC   C0AG25249   6.278   5.479   5.833
   36SBC   C0B725250   6.406   5.496   5.881
   36SBC   C0AE25251   6.096   5.577   5.717
   36SBC   C0AB25252   6.027   5.685   5.660
   36SBC   C0AA25253   5.897   5.669   5.607
   36SBC   C0AJ25254   6.037   5.456   5.720
   36SBC   C0AK25255   5.917   5.443   5.653
   36SBC   C06W25256   5.871   5.319   5.691
   36SBC   C0AI25257   6.082   5.346   5.785
   36SBC   C0BP25258   6.571   6.108   5.809
   36SBC   C0BQ25259   6.640   6.006   5.877
   36SBC   C0BW25260   6.270   5.944   5.693
   36SBC   C0AC25261   6.084   5.809   5.657
   36SBC   C0A625262   6.011   6.154   5.566
   36SBC   C0A325263   6.017   6.391   5.511
   36SBC   C09Z25264   5.899   6.601   5.387
   36SBC   C09W25265   5.685   6.234   5.420
   36SBC   C07225266   5.617   6.119   5.432
   36SBC   C09H25267   5.639   6.562   5.289
   36SBC   C09G25268   5.708   6.675   5.258
   36SBC   C09P25269   5.622   6.768   5.210
   36SBC   C02O25270   5.238   6.727   5.248
   36SBC   C02M25271   5.054   6.581   5.290
   36SBC   C02F25272   4.773   6.554   5.323
   36SBC   C00W25273   4.569   6.668   5.385
   36SBC   C01R25274   4.480   6.919   5.502
   36SBC   C01N25275   4.802   6.910   5.320
   36SBC   C01L25276   4.973   7.087   5.359
   36SBC   C01H25277   4.948   7.415   5.495
   36SBC   C01K25278   4.666   7.174   5.528
   36SBC   C01E25279   4.586   7.361   5.709
   36SBC   C01G25280   4.897   7.523   5.580
   36SBC   C01D25281   4.545   7.455   5.804
   36SBC   C01A25282   4.451   7.654   5.972
   36SBC   H00125283   4.397   7.726   6.031
   36SBC   C01F25284   4.769   7.733   5.721
   36SBC   C03P25285   4.877   7.988   5.744
   36SBC   C03T25286   5.078   7.912   5.651
   36SBC   C08I25287   5.344   7.920   5.589
   36SBC   C08J25288   5.478   7.899   5.575
   36SBC   C08L25289   5.674   7.757   5.526
   36SBC   C09325290   5.864   7.600   5.498
   36SBC   C08Z25291   5.684   7.424   5.362
   36SBC   C09T25292   6.114   7.211   5.391
   36SBC   C09S25293   5.784   7.164   5.245
   36SBC   C09Q25294   5.671   6.904   5.210
   36SBC   C09F25295   5.837   6.697   5.317
   36SBC   C09E25296   6.060   6.981   5.337
   36SBC   C0A025297   6.028   6.619   5.438
   36SBC   C0CU25298   6.272   6.652   5.586
   36SBC   C0CR25299   6.382   6.662   5.674
   36SBC   C0CZ25300   6.431   6.793   5.688
   36SBC   C0DA25301   6.158   7.068   5.397
   36SBC   C0D925302   6.521   7.110   5.405
   36SBC   H00V25303   6.519   7.117   5.297
   36SBC   C0CY25304   6.380   6.905   5.611
   36SBC   C0DF25305   6.640   7.098   5.490
   36SBC   C0DE25306   6.783   7.086   5.505
   36SBC   C0GI25307   6.890   7.133   5.422
   36SBC   H01K25308   6.856   7.174   5.328
   36SBC   C0GJ25309   7.008   7.129   5.486
   36SBC   H01J25310   7.092   7.174   5.435
   36SBC   O00I25311   7.038   7.073   5.611
   36SBC   C0GH25312   6.934   7.012   5.684
   36SBC   C0GG25313   6.970   6.936   5.797
   36SBC   O00G25314   7.098   6.936   5.825
   36SBC   C0G825315   7.160   6.843   5.906
   36SBC   C0G925316   7.289   6.873   5.945
   36SBC   H01G25317   7.340   6.963   5.912
   36SBC   C0GA25318   7.366   6.784   6.022
   36SBC   H01H25319   7.466   6.823   6.036
   36SBC   C0GB25320   7.315   6.666   6.073
   36SBC   C0EP25321   7.178   6.637   6.034
   36SBC   C0E825322   7.139   6.499   6.054
   36SBC   C0CK25323   7.027   6.425   6.015
   36SBC   C0CL25324   6.900   6.484   6.021
   36SBC   C0E925325   6.880   6.623   5.994
   36SBC   C0GE25326   6.958   6.741   5.943
   36SBC   C0E725327   7.209   6.412   6.131
   36SBC   C0CJ25328   7.154   6.285   6.149
   36SBC   C0E625329   7.213   6.190   6.229
   36SBC   H00Y25330   7.178   6.088   6.233
   36SBC   C0EO25331   7.338   6.229   6.285
   36SBC   H01125332   7.383   6.151   6.345
   36SBC   C0G625333   7.395   6.356   6.267
   36SBC   C0G525334   7.520   6.404   6.314
   36SBC   H01F25335   7.588   6.348   6.376
   36SBC   C0GD25336   7.572   6.526   6.277
   36SBC   H01I25337   7.674   6.550   6.303
   36SBC   O00H25338   7.508   6.616   6.191
   36SBC   C0EQ25339   7.330   6.456   6.184
   36SBC   C0GC25340   7.386   6.581   6.152
   36SBC   C0G725341   7.099   6.732   5.957
   36SBC   C0DD25342   6.803   7.032   5.635
   36SBC   C0GF25343   6.891   6.848   5.875
   36SBC   C0CO25344   6.751   6.633   6.007
   36SBC   C0D025345   6.548   6.802   5.777
   36SBC   C0C425346   6.429   6.551   5.745
   36SBC   C0CN25347   6.684   6.509   6.028
   36SBC   C0CP25348   6.566   6.251   5.811
   36SBC   C0CM25349   6.781   6.413   6.042
   36SBC   C0CI25350   7.039   6.286   6.054
   36SBC   C0CD25351   7.042   5.817   6.049
   36SBC   C0BR25352   6.764   6.030   5.930
   36SBC   C0CS25353   6.585   5.877   5.874
   36SBC   C0B625354   6.466   5.624   5.874
   36SBC   C0CG25355   6.846   5.681   6.022
   36SBC   C0CF25356   6.976   5.696   6.065
   36SBC   C0E525357   7.242   5.724   6.141
   36SBC   C0DT25358   7.363   5.530   6.298
   36SBC   C0DL25359   7.041   5.368   6.221
   36SBC   C0DM25360   6.978   5.244   6.237
   36SBC   C0DY25361   7.165   5.170   6.369
   36SBC   C0DU25362   7.411   5.438   6.378
   36SBC   C0F025363   7.615   5.349   6.475
   36SBC   C0F425364   7.760   5.119   6.490
   36SBC   C0FG25365   7.423   5.006   6.576
   36SBC   O00B25366   7.752   4.876   6.522
   36SBC   C0FN25367   7.390   4.876   6.568
   36SBC   C0DZ25368   7.233   5.062   6.434
   36SBC   O00C25369   6.998   4.783   6.379
   36SBC   C0FR25370   6.888   4.751   6.305
   36SBC   O00D25371   6.858   4.631   6.314
   36SBC   C0E025372   7.043   5.146   6.305
   36SBC   C0E325373   6.817   4.857   6.235
   36SBC   C0AW25374   6.697   4.836   6.168
   36SBC   C0AV25375   6.627   4.711   6.164
   36SBC   H00Q25376   6.675   4.622   6.204
   36SBC   C0AU25377   6.509   4.701   6.092
   36SBC   H00R25378   6.461   4.604   6.082
   36SBC   C0AT25379   6.440   4.818   6.043
   36SBC   C0AS25380   6.312   4.852   5.980
   36SBC   C0AR25381   6.213   4.754   5.950
   36SBC   C0BE25382   6.509   4.936   6.051
   36SBC   C0DN25383   6.861   5.226   6.170
   36SBC   C0AX25384   6.636   4.946   6.114
   36SBC   C0BB25385   6.664   5.306   6.053
   36SBC   C0BD25386   6.429   5.035   6.005
   36SBC   C0B225387   6.466   5.388   5.933
   36SBC   C0AH25388   6.216   5.346   5.834
   36SBC   C0BF25389   6.307   4.995   5.953
   36SBC   C0AL25390   5.979   5.246   5.762
   36SBC   C07U25391   6.029   4.901   5.847
   36SBC   C0AQ25392   6.091   4.785   5.890
   36SBC   C0BG25393   6.213   4.610   5.980
   36SBC   C0FY25394   6.018   4.363   5.818
   36SBC   C0BJ25395   6.305   4.506   5.935
   36SBC   H00S25396   6.407   4.519   5.903
   36SBC   C0FZ25397   6.103   4.270   5.771
   36SBC   C07S25398   5.908   4.413   5.738
   36SBC   C0G125399   5.918   4.136   5.495
   36SBC   C07K25400   5.632   4.319   5.346
   36SBC   C07H25401   5.699   4.498   5.552
   36SBC   C06B25402   5.359   4.565   5.521
   36SBC   C06N25403   5.360   4.787   5.552
   36SBC   C06625404   5.724   4.731   5.664
   36SBC   C06225405   5.718   5.054   5.687
   36SBC   C05Y25406   5.359   5.049   5.553
   36SBC   C06125407   5.662   5.186   5.705
   36SBC   C05H25408   5.455   5.358   5.467
   36SBC   C06V25409   5.740   5.295   5.665
   36SBC   C06Y25410   5.839   5.546   5.598
   36SBC   C05C25411   5.504   5.629   5.459
   36SBC   C06Z25412   5.827   5.778   5.553
   36SBC   C07025413   5.686   6.006   5.475
   36SBC   C05B25414   5.432   5.749   5.431
   36SBC   C05725415   5.287   5.984   5.361
   36SBC   C05925416   5.487   6.114   5.390
   37SBC   C05825417  11.078   1.656   7.202
   37SBC   C05A25418  11.040   1.778   7.264
   37SBC   C06Q25419  11.130   1.856   7.332
   37SBC   C06R25420  11.079   1.973   7.394
   37SBC   C06S25421  10.944   2.017   7.392
   37SBC   C06T25422  10.911   2.133   7.463
   37SBC   C06U25423  10.779   2.185   7.495
   37SBC   C06X25424  10.649   2.167   7.438
   37SBC   C06025425  10.545   2.247   7.498
   37SBC   C05Z25426  10.429   2.312   7.438
   37SBC   C06825427  10.425   2.438   7.522
   37SBC   C06725428  10.301   2.507   7.566
   37SBC   C06925429  10.169   2.465   7.513
   37SBC   C06A25430  10.041   2.508   7.568
   37SBC   C07325431  10.001   2.523   7.704
   37SBC   C07P25432   9.894   2.446   7.748
   37SBC   C07O25433   9.841   2.330   7.690
   37SBC   H00D25434   9.887   2.290   7.601
   37SBC   C07N25435   9.737   2.251   7.745
   37SBC   H00E25436   9.693   2.164   7.699
   37SBC   C07M25437   9.693   2.285   7.868
   37SBC   H00F25438   9.630   2.212   7.917
   37SBC   C07L25439   9.745   2.394   7.937
   37SBC   C07Q25440   9.699   2.436   8.067
   37SBC   H00G25441   9.626   2.370   8.113
   37SBC   O00F25442   9.739   2.546   8.129
   37SBC   C07J25443   9.855   2.600   8.086
   37SBC   C07I25444   9.901   2.571   7.955
   37SBC   N00425445  10.017   2.643   7.908
   37SBC   C07R25446  10.070   2.752   7.986
   37SBC   C07T25447  10.026   2.763   8.122
   37SBC   C0FX25448  10.084   2.851   8.211
   37SBC   C0FW25449  10.062   2.856   8.348
   37SBC   C0G025450   9.957   2.766   8.395
   37SBC   C0G225451   9.933   2.765   8.537
   37SBC   H01E25452   9.854   2.709   8.584
   37SBC   C0G325453  10.016   2.828   8.623
   37SBC   H01C25454   9.995   2.839   8.728
   37SBC   C0G425455  10.112   2.913   8.573
   37SBC   H01D25456  10.168   2.959   8.653
   37SBC   O00E25457   9.884   2.692   8.306
   37SBC   C0FV25458  10.144   2.936   8.434
   37SBC   C0FU25459  10.252   3.013   8.371
   37SBC   H01B25460  10.328   3.052   8.436
   37SBC   C0FT25461  10.267   3.014   8.233
   37SBC   C0FS25462  10.370   3.056   8.137
   37SBC   C0BI25463  10.317   3.026   8.001
   37SBC   C0BH25464  10.427   3.011   7.914
   37SBC   C07F25465  10.453   2.892   7.840
   37SBC   C07E25466  10.364   2.803   7.783
   37SBC   C07G25467  10.238   2.777   7.824
   37SBC   C07425468  10.201   2.667   7.750
   37SBC   C06525469  10.413   2.695   7.707
   37SBC   C06425470  10.555   2.685   7.691
   37SBC   C06325471  10.626   2.585   7.629
   37SBC   C07525472  10.766   2.610   7.671
   37SBC   C0AM25473  10.783   2.739   7.735
   37SBC   C0AN25474  10.911   2.814   7.770
   37SBC   C0AO25475  11.055   2.772   7.748
   37SBC   C0B125476  11.167   2.862   7.785
   37SBC   C0B025477  11.141   2.984   7.850
   37SBC   C0AZ25478  11.235   3.076   7.891
   37SBC   C0AY25479  11.199   3.194   7.955
   37SBC   N00725480  11.293   3.277   8.009
   37SBC   C0E225481  11.254   3.397   8.076
   37SBC   C0E125482  11.351   3.478   8.121
   37SBC   C0E425483  11.313   3.602   8.171
   37SBC   C0FF25484  11.410   3.690   8.227
   37SBC   C0FJ25485  11.403   3.833   8.267
   37SBC   C0FK25486  11.309   3.934   8.229
   37SBC   H01625487  11.209   3.923   8.191
   37SBC   C0FL25488  11.378   4.059   8.252
   37SBC   H01725489  11.342   4.155   8.217
   37SBC   C0FM25490  11.507   4.034   8.309
   37SBC   C0FH25491  11.648   4.082   8.325
   37SBC   C0FI25492  11.712   3.959   8.356
   37SBC   C0F325493  11.840   3.942   8.294
   37SBC   C0F225494  11.872   3.808   8.273
   37SBC   C0DW25495  11.782   3.705   8.257
   37SBC   C0FE25496  11.648   3.729   8.278
   37SBC   C0DV25497  11.815   3.586   8.192
   37SBC   C0DX25498  11.723   3.502   8.141
   37SBC   C0DK25499  11.758   3.390   8.073
   37SBC   C0DJ25500  11.888   3.363   8.040
   37SBC   C0DI25501  11.927   3.252   7.975
   37SBC   C0DH25502  11.833   3.155   7.938
   37SBC   C0DG25503  11.701   3.181   7.962
   37SBC   C0BV25504  11.600   3.094   7.914
   37SBC   C0BC25505  11.466   3.127   7.923
   37SBC   C0BA25506  11.637   2.981   7.847
   37SBC   C0B425507  11.539   2.895   7.800
   37SBC   C0B325508  11.401   2.923   7.817
   37SBC   C0B525509  11.578   2.774   7.751
   37SBC   C0BU25510  11.715   2.745   7.731
   37SBC   C0BT25511  11.816   2.833   7.773
   37SBC   C0BS25512  11.950   2.804   7.745
   37SBC   C0CC25513  12.047   2.901   7.770
   37SBC   C0CB25514  12.186   2.884   7.741
   37SBC   C0CH25515  12.270   2.974   7.809
   37SBC   C0DO25516  12.232   3.100   7.852
   37SBC   C0DP25517  12.322   3.206   7.866
   37SBC   C0EA25518  12.458   3.187   7.825
   37SBC   H01225519  12.497   3.094   7.787
   37SBC   O00925520  12.549   3.291   7.828
   37SBC   C0EH25521  12.492   3.413   7.846
   37SBC   C0EG25522  12.576   3.523   7.822
   37SBC   C0EJ25523  12.712   3.550   7.773
   37SBC   H01025524  12.778   3.478   7.726
   37SBC   C0EK25525  12.755   3.686   7.792
   37SBC   H00Z25526  12.848   3.735   7.767
   37SBC   C0EL25527  12.635   3.741   7.844
   37SBC   C0EM25528  12.612   3.879   7.881
   37SBC   C0EW25529  12.703   3.993   7.866
   37SBC   H01325530  12.801   3.979   7.825
   37SBC   C0EX25531  12.664   4.127   7.915
   37SBC   H01425532  12.723   4.215   7.897
   37SBC   C0F125533  12.532   4.138   7.977
   37SBC   C0EU25534  12.446   4.025   7.990
   37SBC   C0ET25535  12.315   4.020   8.046
   37SBC   C0ES25536  12.278   3.883   8.029
   37SBC   C0EE25537  12.384   3.809   7.965
   37SBC   C0ED25538  12.414   3.675   7.928
   37SBC   C0EC25539  12.329   3.566   7.949
   37SBC   C0EB25540  12.202   3.570   8.014
   37SBC   C0EN25541  12.157   3.679   8.099
   37SBC   C0ER25542  12.039   3.662   8.169
   37SBC   C0DS25543  12.116   3.459   8.017
   37SBC   C0DR25544  12.148   3.349   7.948
   37SBC   C0EY25545  12.187   3.819   8.106
   37SBC   C0EZ25546  12.086   3.895   8.173
   37SBC   C0F525547  12.046   4.035   8.195
   37SBC   C0F625548  12.127   4.147   8.155
   37SBC   N00825549  12.067   4.275   8.172
   37SBC   C0F725550  11.929   4.293   8.217
   37SBC   C0FQ25551  11.880   4.424   8.207
   37SBC   H01825552  11.777   4.438   8.235
   37SBC   C0FP25553  11.952   4.533   8.178
   37SBC   H01925554  11.904   4.630   8.183
   37SBC   C0FO25555  12.087   4.519   8.153
   37SBC   H01A25556  12.142   4.609   8.129
   37SBC   C0F825557  11.858   4.178   8.252
   37SBC   C0F925558  12.141   4.392   8.147
   37SBC   C0FA25559  12.271   4.383   8.097
   37SBC   H01525560  12.328   4.469   8.065
   37SBC   C0FB25561  12.332   4.257   8.071
   37SBC   C0FD25562  12.257   4.145   8.098
   37SBC   C0FC25563  12.466   4.261   8.013
   37SBC   O00A25564  12.528   4.368   8.008
   37SBC   C0EV25565  12.483   3.901   7.937
   37SBC   C0EF25566  12.539   3.641   7.868
   37SBC   C0EI25567  12.364   3.433   7.904
   37SBC   C0DQ25568  12.279   3.327   7.904
   37SBC   C0CE25569  12.099   3.120   7.875
   37SBC   H00U25570  12.372   2.941   7.799
   37SBC   C0CA25571  12.222   2.774   7.662
   37SBC   C0C925572  12.134   2.659   7.664
   37SBC   C0C825573  12.205   2.531   7.645
   37SBC   C0C725574  12.159   2.404   7.605
   37SBC   C0C625575  12.261   2.303   7.608
   37SBC   C0C525576  12.289   2.172   7.537
   37SBC   C0CQ25577  12.427   2.131   7.521
   37SBC   C0D125578  12.519   2.237   7.532
   37SBC   C0D825579  12.614   2.227   7.430
   37SBC   C0D725580  12.589   2.096   7.369
   37SBC   C0D625581  12.662   2.036   7.262
   37SBC   C0D525582  12.640   1.908   7.216
   37SBC   C0D425583  12.538   1.807   7.238
   37SBC   C0D325584  12.528   1.728   7.122
   37SBC   C0CX25585  12.385   1.682   7.109
   37SBC   C0CW25586  12.309   1.759   7.211
   37SBC   C0CV25587  12.170   1.763   7.267
   37SBC   C0D225588  12.080   1.654   7.244
   37SBC   C09D25589  12.111   1.525   7.190
   37SBC   C09C25590  12.011   1.429   7.169
   37SBC   C09B25591  12.020   1.304   7.103
   37SBC   C09A25592  12.149   1.273   7.061
   37SBC   C09925593  12.260   1.348   7.094
   37SBC   C09825594  12.362   1.321   7.001
   37SBC   C08Y25595  12.309   1.232   6.904
   37SBC   C08X25596  12.358   1.195   6.773
   37SBC   C08W25597  12.481   1.248   6.724
   37SBC   C08U25598  12.564   1.366   6.776
   37SBC   C08V25599  12.548   1.443   6.900
   37SBC   C0DC25600  12.679   1.504   6.922
   37SBC   H00W25601  12.708   1.554   7.013
   37SBC   C0DB25602  12.771   1.471   6.823
   37SBC   H00X25603  12.875   1.501   6.819
   37SBC   C08T25604  12.701   1.386   6.735
   37SBC   C08S25605  12.752   1.308   6.631
   37SBC   H00N25606  12.851   1.329   6.594
   37SBC   C08R25607  12.677   1.211   6.565
   37SBC   C08Q25608  12.724   1.134   6.457
   37SBC   H00O25609  12.826   1.141   6.425
   37SBC   C08P25610  12.657   1.037   6.380
   37SBC   C08O25611  12.712   0.955   6.279
   37SBC   H00P25612  12.817   0.969   6.258
   37SBC   C08N25613  12.626   0.867   6.200
   37SBC   C08M25614  12.677   0.797   6.083
   37SBC   O00825615  12.800   0.793   6.057
   37SBC   O00725616  12.586   0.739   5.993
   37SBC   C08H25617  12.454   0.727   6.023
   37SBC   C08G25618  12.364   0.650   5.943
   37SBC   C03V25619  12.393   0.584   5.822
   37SBC   H00925620  12.492   0.591   5.780
   37SBC   C03U25621  12.294   0.522   5.745
   37SBC   C03W25622  12.312   0.468   5.614
   37SBC   H00A25623  12.409   0.473   5.567
   37SBC   C03X25624  12.213   0.400   5.556
   37SBC   H00B25625  12.230   0.364   5.455
   37SBC   O00525626  12.084   0.387   5.615
   37SBC   C03O25627  12.064   0.447   5.738
   37SBC   C03N25628  11.935   0.437   5.796
   37SBC   O00025629  11.840   0.358   5.725
   37SBC   C01925630  11.713   0.356   5.771
   37SBC   C01825631  11.671   0.425   5.891
   37SBC   C01725632  11.771   0.497   5.968
   37SBC   C01625633  11.744   0.558   6.086
   37SBC   C01525634  11.609   0.543   6.119
   37SBC   C01425635  11.567   0.589   6.247
   37SBC   C01325636  11.659   0.654   6.338
   37SBC   C01225637  11.570   0.694   6.447
   37SBC   C01125638  11.446   0.631   6.421
   37SBC   C01025639  11.343   0.647   6.508
   37SBC   C00Z25640  11.213   0.623   6.484
   37SBC   C00Y25641  11.157   0.711   6.581
   37SBC   C01O25642  11.241   0.767   6.673
   37SBC   C01P25643  11.215   0.889   6.732
   37SBC   C02L25644  11.318   0.962   6.776
   37SBC   C02K25645  11.442   0.919   6.739
   37SBC   C01M25646  11.470   0.814   6.643
   37SBC   C02J25647  11.539   0.988   6.809
   37SBC   C02I25648  11.673   0.964   6.802
   37SBC   C02H25649  11.745   0.898   6.705
   37SBC   C01Q25650  11.709   0.814   6.603
   37SBC   C02G25651  11.829   0.775   6.534
   37SBC   C08925652  11.935   0.813   6.617
   37SBC   C08825653  12.050   0.840   6.538
   37SBC   C08725654  12.014   0.778   6.413
   37SBC   C08625655  12.097   0.763   6.299
   37SBC   C03S25656  12.076   0.691   6.178
   37SBC   N00625657  12.197   0.692   6.108
   37SBC   C08F25658  12.286   0.771   6.177
   37SBC   C01J25659  11.971   0.623   6.115
   37SBC   C03R25660  12.003   0.564   5.990
   37SBC   C03Q25661  12.131   0.570   5.930
   37SBC   C08E25662  12.234   0.814   6.299
   37SBC   C08D25663  12.313   0.900   6.383
   37SBC   C08K25664  12.442   0.927   6.341
   37SBC   C08C25665  12.276   0.960   6.505
   37SBC   C09125666  12.356   1.038   6.580
   37SBC   C09225667  12.486   1.084   6.538
   37SBC   C08B25668  12.157   0.933   6.576
   37SBC   C09025669  12.171   1.012   6.695
   37SBC   C09425670  12.088   1.002   6.815
   37SBC   C09525671  12.089   1.104   6.909
   37SBC   C09R25672  11.964   1.119   6.973
   37SBC   C09725673  11.875   1.046   6.902
   37SBC   C09625674  11.950   0.968   6.814
   37SBC   C01I25675  11.873   0.734   6.407
   37SBC   C08A25676  11.881   0.895   6.715
   37SBC   C09L25677  11.734   1.039   6.905
   37SBC   C09K25678  11.632   1.115   6.967
   37SBC   C09J25679  11.656   1.211   7.070
   37SBC   C09I25680  11.566   1.312   7.114
   37SBC   C09O25681  11.430   1.345   7.085
   37SBC   C09N25682  11.340   1.261   7.010
   37SBC   C09M25683  11.376   1.146   6.928
   37SBC   C06O25684  11.206   1.301   7.008
   37SBC   C05M25685  11.163   1.416   7.080
   37SBC   C06P25686  11.254   1.497   7.149
   37SBC   C04225687  11.031   1.458   7.073
   37SBC   C04125688  10.940   1.391   6.993
   37SBC   C04025689  10.807   1.438   6.974
   37SBC   C03Z25690  10.714   1.370   6.898
   37SBC   C03Y25691  10.753   1.254   6.835
   37SBC   C02725692  10.662   1.190   6.748
   37SBC   C02625693  10.696   1.070   6.692
   37SBC   C02825694  10.610   1.007   6.604
   37SBC   C02925695  10.482   1.062   6.586
   37SBC   C02B25696  10.398   1.000   6.495
   37SBC   C02C25697  10.276   1.066   6.463
   37SBC   C02X25698  10.200   1.005   6.365
   37SBC   C03E25699  10.081   1.066   6.339
   37SBC   C03G25700  10.038   1.186   6.386
   37SBC   C04Q25701  10.121   1.245   6.478
   37SBC   C04R25702  10.083   1.361   6.541
   37SBC   C04S25703  10.170   1.422   6.631
   37SBC   C04L25704  10.288   1.363   6.668
   37SBC   C04M25705  10.320   1.242   6.612
   37SBC   C04K25706  10.376   1.423   6.754
   37SBC   C04F25707  10.345   1.549   6.804
   37SBC   C04E25708  10.219   1.604   6.777
   37SBC   C04D25709  10.184   1.724   6.835
   37SBC   C05025710  10.063   1.781   6.807
   37SBC   C05125711  10.029   1.895   6.875
   37SBC   C05Q25712   9.904   1.951   6.845
   37SBC   C05V25713   9.867   2.063   6.919
   37SBC   N00525714   9.746   2.120   6.895
   37SBC   C07V25715   9.667   2.071   6.792
   37SBC   C08225716   9.548   2.133   6.761
   37SBC   C08125717   9.495   2.240   6.835
   37SBC   C07C25718   9.570   2.294   6.939
   37SBC   C07B25719   9.516   2.402   7.016
   37SBC   C08025720   9.393   2.456   6.990
   37SBC   C07Z25721   9.347   2.560   7.077
   37SBC   H00L25722   9.249   2.603   7.065
   37SBC   C07925723   9.419   2.611   7.183
   37SBC   C07825724   9.542   2.550   7.208
   37SBC   C07725725   9.622   2.588   7.319
   37SBC   C07X25726   9.575   2.688   7.406
   37SBC   H00I25727   9.624   2.714   7.499
   37SBC   C07Y25728   9.458   2.758   7.380
   37SBC   H00H25729   9.415   2.832   7.446
   37SBC   C07625730   9.749   2.535   7.337
   37SBC   C06C25731   9.825   2.561   7.455
   37SBC   H00C25732   9.796   2.627   7.536
   37SBC   C06F25733   9.795   2.438   7.246
   37SBC   C06E25734   9.924   2.382   7.261
   37SBC   C06G25735   9.983   2.282   7.188
   37SBC   C06H25736   9.897   2.232   7.092
   37SBC   C06I25737   9.765   2.283   7.070
   37SBC   C06L25738  10.118   2.242   7.213
   37SBC   C06M25739  10.205   2.299   7.315
   37SBC   C06K25740  10.164   2.133   7.131
   37SBC   C05S25741  10.077   2.075   7.035
   37SBC   C05U25742  10.296   2.087   7.149
   37SBC   C05X25743  10.384   2.140   7.253
   37SBC   C05G25744  10.509   2.073   7.254
   37SBC   C05F25745  10.536   1.966   7.170
   37SBC   C05E25746  10.659   1.911   7.194
   37SBC   C04825747  10.706   1.795   7.133
   37SBC   C05625748  10.831   1.746   7.162
   37SBC   C04525749  10.866   1.623   7.108
   37SBC   C04725750  10.616   1.738   7.050
   37SBC   C04925751  10.491   1.797   7.024
   37SBC   C04B25752  10.398   1.729   6.945
   37SBC   C04625753  10.652   1.616   7.000
   37SBC   C04H25754  10.560   1.552   6.920
   37SBC   C05D25755  10.727   1.980   7.285
   37SBC   C04A25756  10.453   1.919   7.072
   37SBC   C05T25757  10.330   1.976   7.067
   37SBC   C05525758  10.241   1.906   6.987
   37SBC   C06D25759  10.000   2.427   7.371
   37SBC   C07W25760   9.712   2.388   7.144
   37SBC   C08525761   9.380   2.719   7.269
   37SBC   H00M25762   9.280   2.757   7.255
   37SBC   C08425763   9.326   2.400   6.886
   37SBC   H00J25764   9.227   2.432   6.857
   37SBC   C07A25765   9.590   2.453   7.123
   37SBC   C08325766   9.369   2.300   6.801
   37SBC   H00K25767   9.307   2.272   6.717
   37SBC   O00K25768   9.470   2.094   6.657
   37SBC   C0GO25769   9.510   1.984   6.587
   37SBC   C0GN25770   9.437   1.946   6.476
   37SBC   H01L25771   9.355   2.009   6.444
   37SBC   C0GM25772   9.471   1.828   6.398
   37SBC   C0GL25773   9.401   1.799   6.289
   37SBC   H01M25774   9.327   1.866   6.249
   37SBC   O00J25775   9.429   1.683   6.224
   37SBC   C0GK25776   9.541   1.615   6.261
   37SBC   H01N25777   9.561   1.537   6.189
   37SBC   C05K25778   9.616   1.642   6.372
   37SBC   C05J25779   9.725   1.555   6.411
   37SBC   C04Y25780   9.769   1.434   6.352
   37SBC   C04X25781   9.879   1.363   6.402
   37SBC   O00625782   9.699   1.378   6.244
   37SBC   C05325783   9.741   1.273   6.170
   37SBC   C04O25784   9.849   1.197   6.227
   37SBC   C03C25785   9.893   1.070   6.176
   37SBC   C03B25786   9.866   0.988   6.062
   37SBC   C05425787   9.785   1.024   5.955
   37SBC   C0GR25788   9.783   0.962   5.831
   37SBC   C03M25789   9.855   0.849   5.759
   37SBC   C03I25790   9.959   0.774   5.821
   37SBC   C03J25791  10.010   0.669   5.738
   37SBC   N00225792  10.132   0.604   5.778
   37SBC   C02U25793  10.183   0.498   5.692
   37SBC   C02T25794  10.302   0.437   5.725
   37SBC   C02Z25795  10.358   0.331   5.644
   37SBC   N00125796  10.485   0.269   5.678
   37SBC   C02R25797  10.526   0.153   5.609
   37SBC   C03225798  10.452   0.102   5.498
   37SBC   C03125799  10.334   0.171   5.467
   37SBC   H00725800  10.272   0.125   5.391
   37SBC   C03325801  10.501  -0.011   5.434
   37SBC   H00325802  10.442  -0.044   5.349
   37SBC   O00425803  10.615  -0.079   5.466
   37SBC   C03425804  10.683  -0.023   5.577
   37SBC   C03525805  10.793  -0.097   5.616
   37SBC   C03625806  10.867  -0.057   5.726
   37SBC   H00525807  10.948  -0.114   5.770
   37SBC   C03725808  10.827   0.062   5.792
   37SBC   H00625809  10.884   0.088   5.880
   37SBC   C00D25810  10.718   0.138   5.753
   37SBC   C00C25811  10.683   0.262   5.813
   37SBC   C00B25812  10.765   0.331   5.915
   37SBC   C00A25813  10.896   0.325   5.991
   37SBC   C00925814  10.872   0.400   6.114
   37SBC   C00825815  10.964   0.460   6.204
   37SBC   C00725816  11.099   0.452   6.175
   37SBC   C00625817  11.192   0.511   6.264
   37SBC   C00525818  11.331   0.514   6.220
   37SBC   C00425819  11.370   0.469   6.092
   37SBC   C00325820  11.271   0.404   6.014
   37SBC   C00225821  11.308   0.353   5.892
   37SBC   C01C25822  11.445   0.348   5.855
   37SBC   C01B25823  11.493   0.281   5.740
   37SBC   H00025824  11.431   0.217   5.678
   37SBC   C00125825  11.212   0.322   5.802
   37SBC   C00025826  11.078   0.327   5.834
   37SBC   C01U25827  11.011   0.294   5.714
   37SBC   H00225828  10.906   0.298   5.687
   37SBC   C01T25829  11.117   0.266   5.616
   37SBC   O00225830  11.112   0.209   5.507
   37SBC   O00125831  11.235   0.296   5.674
   37SBC   C01S25832  11.139   0.397   6.055
   37SBC   C00N25833  10.915   0.544   6.301
   37SBC   C00M25834  10.779   0.577   6.306
   37SBC   C00J25835  10.689   0.533   6.210
   37SBC   C00I25836  10.564   0.577   6.188
   37SBC   C00H25837  10.495   0.540   6.076
   37SBC   C00G25838  10.553   0.456   5.978
   37SBC   C00F25839  10.495   0.416   5.864
   37SBC   C01X25840  10.377   0.597   6.045
   37SBC   C01W25841  10.324   0.689   6.131
   37SBC   C01V25842  10.401   0.729   6.241
   37SBC   C02025843  10.356   0.835   6.320
   37SBC   C01Z25844  10.204   0.753   6.104
   37SBC   C02Y25845  10.165   0.847   6.187
   37SBC   C03925846  10.041   0.902   6.165
   37SBC   C02W25847  10.135   0.721   5.985
   37SBC   C01Y25848  10.311   0.564   5.932
   37SBC   C00U25849  10.518   0.673   6.272
   37SBC   C00S25850  10.601   0.720   6.376
   37SBC   C00T25851  10.562   0.825   6.449
   37SBC   C00R25852  10.730   0.671   6.395
   37SBC   C00Q25853  10.814   0.732   6.488
   37SBC   C00V25854  10.775   0.840   6.565
   37SBC   C02425855  10.860   0.907   6.648
   37SBC   C00X25856  10.988   0.859   6.659
   37SBC   C00P25857  10.947   0.687   6.489
   37SBC   C00O25858  11.000   0.593   6.393
   37SBC   C00K25859  10.743   0.445   6.114
   37SBC   N00025860  11.031   0.354   5.960
   37SBC   C00L25861  10.683   0.415   5.994
   37SBC   H00425862  10.817  -0.194   5.574
   37SBC   C02Q25863  10.646   0.095   5.648
   37SBC   C00E25864  10.554   0.319   5.789
   37SBC   C03025865  10.284   0.285   5.536
   37SBC   O00325866  10.164   0.350   5.502
   37SBC   C02S25867  10.372   0.474   5.837
   37SBC   C03825868  10.124   0.467   5.572
   37SBC   C03L25869  10.012   0.534   5.531
   37SBC   H00825870   9.958   0.497   5.445
   37SBC   C02V25871  10.192   0.628   5.901
   37SBC   C03K25872   9.956   0.635   5.610
   37SBC   C0BK25873   9.857   0.714   5.567
   37SBC   H00T25874   9.823   0.693   5.467
   37SBC   C03H25875  10.021   0.792   5.949
   37SBC   C0BL25876   9.808   0.827   5.626
   37SBC   C0GU25877   9.709   0.910   5.565
   37SBC   H01O25878   9.670   0.883   5.469
   37SBC   C0GT25879   9.644   1.009   5.631
   37SBC   H01P25880   9.569   1.065   5.578
   37SBC   C0GS25881   9.687   1.034   5.757
   37SBC   C0GV25882   9.633   1.139   5.838
   37SBC   C0GW25883   9.534   1.238   5.802
   37SBC   H01Q25884   9.485   1.229   5.706
   37SBC   C0GX25885   9.502   1.322   5.906
   37SBC   H01R25886   9.416   1.387   5.895
   37SBC   O00L25887   9.570   1.330   6.028
   37SBC   C0GQ25888   9.694   1.131   5.964
   37SBC   C03A25889   9.972   0.889   6.044
   37SBC   C05L25890   9.672   1.237   6.054
   37SBC   C04W25891   9.810   1.608   6.516
   37SBC   C05I25892   9.772   1.722   6.586
   37SBC   C05O25893   9.654   1.791   6.555
   37SBC   C05225894   9.859   1.779   6.679
   37SBC   C04V25895   9.932   1.547   6.550
   37SBC   C04U25896  10.012   1.594   6.658
   37SBC   N00925897   9.575   1.754   6.449
   37SBC   C0GP25898   9.624   1.910   6.625
   37SBC   C05W25899   9.705   1.957   6.726
   37SBC   C07D25900   9.690   2.234   6.969
   37SBC   C06J25901   9.947   2.121   7.015
   37SBC   C05P25902   9.824   1.893   6.750
   37SBC   C05R25903  10.110   1.960   6.965
   37SBC   C04Z25904   9.977   1.717   6.714
   37SBC   C04C25905  10.276   1.786   6.921
   37SBC   C04G25906  10.436   1.611   6.889
   37SBC   C04J25907  10.499   1.364   6.783
   37SBC   C04T25908  10.134   1.538   6.693
   37SBC   N00325909   9.962   1.418   6.500
   37SBC   C04P25910   9.919   1.245   6.341
   37SBC   C03D25911  10.007   1.013   6.236
   37SBC   C02125912  10.239   0.892   6.292
   37SBC   C03F25913  10.241   1.188   6.516
   37SBC   C02225914  10.439   0.887   6.419
   37SBC   C02A25915  10.440   1.181   6.644
   37SBC   C02325916  10.645   0.886   6.540
   37SBC   C02525917  10.823   1.021   6.715
   37SBC   C02D25918  10.917   1.090   6.793
   37SBC   C02E25919  11.052   1.043   6.801
   37SBC   C02N25920  11.149   1.118   6.869
   37SBC   C04N25921  10.534   1.242   6.726
   37SBC   C02P25922  10.880   1.204   6.856
   37SBC   C04I25923  10.590   1.428   6.871
   37SBC   C04425924  10.778   1.562   7.027
   37SBC   C04325925  10.975   1.271   6.934
   37SBC   C05N25926  11.109   1.230   6.940
   37SBC   C09U25927  11.389   1.464   7.149
   37SBC   C09V25928  11.476   1.549   7.220
   37SBC   C09X25929  11.609   1.524   7.227
   37SBC   C09Y25930  11.709   1.609   7.271
   37SBC   C0A125931  11.667   1.727   7.323
   37SBC   C0A225932  11.532   1.755   7.332
   37SBC   C0A425933  11.492   1.873   7.393
   37SBC   C07125934  11.357   1.910   7.396
   37SBC   C0A525935  11.314   2.027   7.449
   37SBC   C0A925936  11.408   2.116   7.498
   37SBC   C0A825937  11.546   2.083   7.494
   37SBC   C0AP25938  11.634   2.182   7.523
   37SBC   C0BY25939  11.768   2.144   7.511
   37SBC   C0BX25940  11.820   2.027   7.468
   37SBC   C0C225941  11.958   2.008   7.450
   37SBC   C0C325942  12.003   1.895   7.384
   37SBC   C0CT25943  11.908   1.798   7.345
   37SBC   C0C125944  12.053   2.111   7.483
   37SBC   C0C025945  11.997   2.238   7.534
   37SBC   C0A725946  11.723   1.935   7.421
   37SBC   C0BZ25947  11.860   2.240   7.549
   37SBC   C0BO25948  11.814   2.372   7.581
   37SBC   C0BN25949  11.678   2.397   7.610
   37SBC   C0BM25950  11.651   2.524   7.658
   37SBC   C0B925951  11.517   2.554   7.677
   37SBC   C0B825952  11.425   2.464   7.640
   37SBC   C0AD25953  11.462   2.338   7.586
   37SBC   C0AF25954  11.291   2.492   7.650
   37SBC   C0AG25955  11.246   2.614   7.693
   37SBC   C0B725956  11.343   2.709   7.727
   37SBC   C0AE25957  11.203   2.396   7.606
   37SBC   C0AB25958  11.236   2.274   7.549
   37SBC   C0AA25959  11.144   2.182   7.503
   37SBC   C0AJ25960  11.068   2.422   7.633
   37SBC   C0AK25961  10.977   2.325   7.596
   37SBC   C06W25962  10.857   2.383   7.620
   37SBC   C0AI25963  11.011   2.541   7.677
   37SBC   C0BP25964  11.922   2.460   7.599
   37SBC   C0BQ25965  11.888   2.591   7.657
   37SBC   C0BW25966  11.592   2.304   7.575
   37SBC   C0AC25967  11.371   2.242   7.548
   37SBC   C0A625968  11.588   1.961   7.440
   37SBC   C0A325969  11.765   1.821   7.359
   37SBC   C09Z25970  11.845   1.579   7.257
   37SBC   C09W25971  11.435   1.669   7.277
   37SBC   C07225972  11.300   1.700   7.274
   37SBC   C09H25973  11.645   1.400   7.186
   37SBC   C09G25974  11.776   1.364   7.186
   37SBC   C09P25975  11.784   1.257   7.101
   37SBC   C02O25976  11.508   1.092   6.906
   37SBC   C02M25977  11.280   1.076   6.859
   37SBC   C02F25978  11.084   0.927   6.732
   37SBC   C00W25979  11.021   0.757   6.577
   37SBC   C01R25980  11.135   0.571   6.378
   37SBC   C01N25981  11.359   0.736   6.615
   37SBC   C01L25982  11.587   0.771   6.571
   37SBC   C01H25983  11.796   0.674   6.299
   37SBC   C01K25984  11.441   0.570   6.298
   37SBC   C01E25985  11.507   0.468   6.052
   37SBC   C01G25986  11.838   0.624   6.165
   37SBC   C01D25987  11.539   0.410   5.931
   37SBC   C01A25988  11.624   0.282   5.698
   37SBC   H00125989  11.655   0.232   5.608
   37SBC   C01F25990  11.903   0.499   5.918
   37SBC   C03P25991  12.167   0.510   5.806
   37SBC   C03T25992  12.232   0.634   5.989
   37SBC   C08I25993  12.411   0.790   6.140
   37SBC   C08J25994  12.493   0.862   6.227
   37SBC   C08L25995  12.526   1.014   6.418
   37SBC   C09325996  12.550   1.182   6.609
   37SBC   C08Z25997  12.293   1.090   6.696
   37SBC   C09T25998  12.431   1.442   6.987
   37SBC   C09S25999  12.184   1.193   6.957
   37SBC   C09Q26000  11.919   1.224   7.060
   37SBC   C09F26001  11.881   1.461   7.206
   37SBC   C09E26002  12.233   1.482   7.124
   37SBC   C0A026003  11.945   1.678   7.286
   37SBC   C0CU26004  12.142   1.879   7.348
   37SBC   C0CR26005  12.236   1.974   7.394
   37SBC   C0CZ26006  12.370   1.955   7.355
   37SBC   C0DA26007  12.354   1.541   7.073
   37SBC   C0D926008  12.614   1.796   7.016
   37SBC   H00V26009  12.608   1.776   6.910
   37SBC   C0CY26010  12.406   1.842   7.279
   37SBC   C0DF26011  12.694   1.898   7.086
   37SBC   C0DE26012  12.780   2.010   7.073
   37SBC   C0GI26013  12.892   2.040   6.987
   37SBC   H01K26014  12.939   1.975   6.915
   37SBC   C0GJ26015  12.958   2.161   7.006
   37SBC   H01J26016  13.046   2.175   6.945
   37SBC   O00I26017  12.929   2.250   7.104
   37SBC   C0GH26018  12.827   2.223   7.192
   37SBC   C0GG26019  12.799   2.336   7.276
   37SBC   O00G26020  12.869   2.453   7.253
   37SBC   C0G826021  12.829   2.573   7.292
   37SBC   C0G926022  12.900   2.678   7.238
   37SBC   H01G26023  12.980   2.652   7.170
   37SBC   C0GA26024  12.876   2.810   7.269
   37SBC   H01H26025  12.939   2.888   7.226
   37SBC   C0GB26026  12.769   2.833   7.357
   37SBC   C0EP26027  12.687   2.727   7.406
   37SBC   C0E826028  12.553   2.767   7.471
   37SBC   C0CK26029  12.442   2.701   7.531
   37SBC   C0CL26030  12.449   2.572   7.574
   37SBC   C0E926031  12.544   2.472   7.532
   37SBC   C0GE26032  12.658   2.468   7.432
   37SBC   C0E726033  12.524   2.902   7.486
   37SBC   C0CJ26034  12.397   2.921   7.546
   37SBC   C0E626035  12.349   3.051   7.542
   37SBC   H00Y26036  12.248   3.070   7.576
   37SBC   C0EO26037  12.441   3.156   7.499
   37SBC   H01126038  12.401   3.256   7.506
   37SBC   C0G626039  12.573   3.130   7.462
   37SBC   C0G526040  12.668   3.230   7.427
   37SBC   H01F26041  12.645   3.336   7.428
   37SBC   C0GD26042  12.792   3.197   7.387
   37SBC   H01I26043  12.862   3.275   7.360
   37SBC   O00H26044  12.834   3.063   7.360
   37SBC   C0EQ26045  12.617   2.999   7.450
   37SBC   C0GC26046  12.741   2.965   7.396
   37SBC   C0G726047  12.720   2.591   7.385
   37SBC   C0DD26048  12.756   2.102   7.184
   37SBC   C0GF26049  12.697   2.338   7.382
   37SBC   C0CO26050  12.496   2.356   7.588
   37SBC   C0D026051  12.460   2.053   7.410
   37SBC   C0C426052  12.192   2.088   7.473
   37SBC   C0CN26053  12.376   2.372   7.663
   37SBC   C0CP26054  12.032   2.373   7.569
   37SBC   C0CM26055  12.348   2.510   7.658
   37SBC   C0CI26056  12.345   2.793   7.591
   37SBC   C0CD26057  12.006   3.021   7.838
   37SBC   C0BR26058  11.990   2.684   7.691
   37SBC   C0CS26059  11.752   2.619   7.681
   37SBC   C0B626060  11.479   2.677   7.724
   37SBC   C0CG26061  11.777   2.952   7.831
   37SBC   C0CF26062  11.871   3.045   7.864
   37SBC   C0E526063  12.058   3.239   7.932
   37SBC   C0DT26064  11.988   3.459   8.079
   37SBC   C0DL26065  11.661   3.299   8.027
   37SBC   C0DM26066  11.524   3.328   8.045
   37SBC   C0DY26067  11.584   3.531   8.158
   37SBC   C0DU26068  11.945   3.563   8.153
   37SBC   C0F026069  11.999   3.788   8.214
   37SBC   C0F426070  11.919   4.052   8.249
   37SBC   C0FG26071  11.619   3.848   8.348
   37SBC   O00B26072  11.724   4.190   8.285
   37SBC   C0FN26073  11.494   3.898   8.342
   37SBC   C0DZ26074  11.547   3.650   8.223
   37SBC   O00C26075  11.181   3.638   8.180
   37SBC   C0FR26076  11.083   3.559   8.132
   37SBC   O00D26077  10.972   3.612   8.143
   37SBC   C0E026078  11.487   3.441   8.107
   37SBC   C0E326079  11.119   3.432   8.081
   37SBC   C0AW26080  11.021   3.345   8.041
   37SBC   C0AV26081  10.875   3.358   8.063
   37SBC   H00Q26082  10.821   3.437   8.114
   37SBC   C0AU26083  10.786   3.265   8.006
   37SBC   H00R26084  10.679   3.276   8.013
   37SBC   C0AT26085  10.834   3.152   7.942
   37SBC   C0AS26086  10.781   3.017   7.896
   37SBC   C0AR26087  10.654   2.968   7.930
   37SBC   C0BE26088  10.972   3.144   7.927
   37SBC   C0DN26089  11.431   3.246   7.987
   37SBC   C0AX26090  11.071   3.234   7.969
   37SBC   C0BB26091  11.367   3.040   7.877
   37SBC   C0BD26092  11.009   3.022   7.867
   37SBC   C0B226093  11.303   2.831   7.774
   37SBC   C0AH26094  11.105   2.647   7.702
   37SBC   C0BF26095  10.896   2.941   7.840
   37SBC   C0AL26096  10.871   2.517   7.671
   37SBC   C07U26097  10.648   2.779   7.753
   37SBC   C0AQ26098  10.592   2.875   7.834
   37SBC   C0BG26099  10.547   3.051   7.984
   37SBC   C0FY26100  10.213   2.938   8.017
   37SBC   C0BJ26101  10.513   3.068   8.126
   37SBC   H00S26102  10.588   3.074   8.204
   37SBC   C0FZ26103  10.174   2.942   8.154
   37SBC   C07S26104  10.174   2.827   7.939
   37SBC   C0G126105   9.920   2.683   8.173
   37SBC   C07K26106   9.846   2.474   7.877
   37SBC   C07H26107  10.074   2.612   7.782
   37SBC   C06B26108   9.948   2.509   7.471
   37SBC   C06N26109  10.132   2.402   7.389
   37SBC   C06626110  10.303   2.617   7.661
   37SBC   C06226111  10.560   2.464   7.575
   37SBC   C05Y26112  10.341   2.253   7.332
   37SBC   C06126113  10.611   2.334   7.585
   37SBC   C05H26114  10.630   2.080   7.329
   37SBC   C06V26115  10.752   2.301   7.575
   37SBC   C06Y26116  11.012   2.205   7.520
   37SBC   C05C26117  10.859   1.938   7.317
   37SBC   C06Z26118  11.180   2.060   7.449
   37SBC   C07026119  11.264   1.821   7.333
   37SBC   C05B26120  10.908   1.818   7.252
   37SBC   C05726121  10.990   1.576   7.135
   37SBC   C05926122  11.207   1.617   7.212
   38SBC   C05826123  10.270   4.947   6.943
   38SBC   C05A26124  10.220   4.814   6.924
   38SBC   C06Q26125  10.092   4.795   6.878
   38SBC   C06R26126  10.050   4.666   6.839
   38SBC   C06S26127  10.137   4.553   6.844
   38SBC   C06T26128  10.081   4.428   6.802
   38SBC   C06U26129  10.155   4.304   6.774
   38SBC   C06X26130  10.285   4.254   6.809
   38SBC   C06026131  10.313   4.133   6.733
   38SBC   C05Z26132  10.375   4.012   6.785
   38SBC   C06826133  10.280   3.894   6.754
   38SBC   C06726134  10.301   3.753   6.788
   38SBC   C06926135  10.433   3.705   6.825
   38SBC   C06A26136  10.475   3.567   6.860
   38SBC   C07326137  10.403   3.460   6.916
   38SBC   C07P26138  10.473   3.376   7.010
   38SBC   C07O26139  10.590   3.413   7.080
   38SBC   H00D26140  10.623   3.516   7.073
   38SBC   C07N26141  10.657   3.325   7.162
   38SBC   H00E26142  10.750   3.349   7.210
   38SBC   C07M26143  10.589   3.209   7.191
   38SBC   H00F26144  10.643   3.149   7.264
   38SBC   C07L26145  10.474   3.163   7.130
   38SBC   C07Q26146  10.419   3.031   7.142
   38SBC   H00G26147  10.469   2.963   7.210
   38SBC   O00F26148  10.292   3.000   7.104
   38SBC   C07J26149  10.239   3.081   7.005
   38SBC   C07I26150  10.299   3.207   6.976
   38SBC   N00426151  10.235   3.289   6.875
   38SBC   C07R26152  10.133   3.232   6.793
   38SBC   C07T26153  10.082   3.101   6.827
   38SBC   C0FX26154   9.980   3.049   6.760
   38SBC   C0FW26155   9.910   2.931   6.788
   38SBC   C0G026156   9.959   2.861   6.899
   38SBC   C0G226157   9.895   2.741   6.933
   38SBC   H01E26158   9.927   2.687   7.021
   38SBC   C0G326159   9.787   2.690   6.853
   38SBC   H01C26160   9.735   2.601   6.885
   38SBC   C0G426161   9.741   2.764   6.749
   38SBC   H01D26162   9.661   2.731   6.683
   38SBC   O00E26163  10.075   2.900   6.965
   38SBC   C0FV26164   9.797   2.889   6.710
   38SBC   C0FU26165   9.753   2.974   6.605
   38SBC   H01B26166   9.657   2.944   6.565
   38SBC   C0FT26167   9.827   3.094   6.577
   38SBC   C0FS26168   9.808   3.210   6.492
   38SBC   C0BI26169   9.932   3.280   6.489
   38SBC   C0BH26170   9.919   3.411   6.436
   38SBC   C07F26171   9.952   3.526   6.518
   38SBC   C07E26172  10.056   3.539   6.610
   38SBC   C07G26173  10.122   3.441   6.676
   38SBC   C07426174  10.209   3.507   6.763
   38SBC   C06526175  10.090   3.660   6.667
   38SBC   C06426176  10.011   3.767   6.620
   38SBC   C06326177  10.030   3.898   6.650
   38SBC   C07526178   9.902   3.963   6.609
   38SBC   C0AM26179   9.805   3.870   6.558
   38SBC   C0AN26180   9.661   3.891   6.516
   38SBC   C0AO26181   9.570   4.012   6.526
   38SBC   C0B126182   9.430   4.008   6.483
   38SBC   C0B026183   9.377   3.897   6.421
   38SBC   C0AZ26184   9.245   3.881   6.373
   38SBC   C0AY26185   9.205   3.758   6.310
   38SBC   N00726186   9.082   3.747   6.248
   38SBC   C0E226187   9.047   3.629   6.178
   38SBC   C0E126188   8.926   3.624   6.116
   38SBC   C0E426189   8.891   3.510   6.034
   38SBC   C0FF26190   8.767   3.504   5.968
   38SBC   C0FJ26191   8.717   3.408   5.864
   38SBC   C0FK26192   8.773   3.297   5.792
   38SBC   H01626193   8.870   3.253   5.810
   38SBC   C0FL26194   8.663   3.264   5.687
   38SBC   H01726195   8.669   3.187   5.611
   38SBC   C0FM26196   8.550   3.356   5.703
   38SBC   C0FH26197   8.419   3.429   5.661
   38SBC   C0FI26198   8.407   3.520   5.770
   38SBC   C0F326199   8.322   3.624   5.774
   38SBC   C0F226200   8.353   3.713   5.865
   38SBC   C0DW26201   8.467   3.721   5.943
   38SBC   C0FE26202   8.555   3.622   5.935
   38SBC   C0DV26203   8.497   3.824   6.025
   38SBC   C0DX26204   8.626   3.832   6.081
   38SBC   C0DK26205   8.659   3.943   6.147
   38SBC   C0DJ26206   8.573   4.050   6.150
   38SBC   C0DI26207   8.612   4.171   6.210
   38SBC   C0DH26208   8.735   4.180   6.274
   38SBC   C0DG26209   8.825   4.078   6.260
   38SBC   C0BV26210   8.950   4.085   6.326
   38SBC   C0BC26211   9.035   3.972   6.322
   38SBC   C0BA26212   8.990   4.201   6.385
   38SBC   C0B426213   9.117   4.214   6.439
   38SBC   C0B326214   9.206   4.108   6.428
   38SBC   C0B526215   9.164   4.338   6.485
   38SBC   C0BU26216   9.074   4.446   6.493
   38SBC   C0BT26217   8.943   4.434   6.442
   38SBC   C0BS26218   8.855   4.538   6.458
   38SBC   C0CC26219   8.723   4.527   6.410
   38SBC   C0CB26220   8.627   4.624   6.432
   38SBC   C0CH26221   8.504   4.606   6.367
   38SBC   C0DO26222   8.475   4.502   6.277
   38SBC   C0DP26223   8.354   4.499   6.200
   38SBC   C0EA26224   8.270   4.615   6.191
   38SBC   H01226225   8.300   4.711   6.231
   38SBC   O00926226   8.157   4.621   6.110
   38SBC   C0EH26227   8.130   4.510   6.037
   38SBC   C0EG26228   8.028   4.522   5.949
   38SBC   C0EJ26229   7.936   4.629   5.907
   38SBC   H01026230   7.944   4.729   5.948
   38SBC   C0EK26231   7.846   4.579   5.799
   38SBC   H00Z26232   7.772   4.632   5.740
   38SBC   C0EL26233   7.891   4.448   5.776
   38SBC   C0EM26234   7.855   4.353   5.678
   38SBC   C0EW26235   7.754   4.362   5.584
   38SBC   H01326236   7.691   4.449   5.587
   38SBC   C0EX26237   7.714   4.243   5.502
   38SBC   H01426238   7.627   4.247   5.438
   38SBC   C0F126239   7.793   4.124   5.506
   38SBC   C0EU26240   7.912   4.125   5.584
   38SBC   C0ET26241   7.993   4.014   5.612
   38SBC   C0ES26242   8.067   4.068   5.722
   38SBC   C0EE26243   8.040   4.205   5.759
   38SBC   C0ED26244   8.071   4.296   5.861
   38SBC   C0EC26245   8.168   4.273   5.964
   38SBC   C0EB26246   8.251   4.159   5.985
   38SBC   C0EN26247   8.215   4.035   5.920
   38SBC   C0ER26248   8.285   3.923   5.963
   38SBC   C0DS26249   8.370   4.167   6.062
   38SBC   C0DR26250   8.401   4.280   6.135
   38SBC   C0EY26251   8.131   3.986   5.811
   38SBC   C0EZ26252   8.159   3.847   5.785
   38SBC   C0F526253   8.140   3.755   5.672
   38SBC   C0F626254   8.053   3.774   5.564
   38SBC   N00826255   8.041   3.666   5.469
   38SBC   C0F726256   8.135   3.556   5.465
   38SBC   C0FQ26257   8.109   3.455   5.367
   38SBC   H01826258   8.177   3.371   5.372
   38SBC   C0FP26259   8.011   3.463   5.269
   38SBC   H01926260   7.998   3.391   5.189
   38SBC   C0FO26261   7.925   3.572   5.283
   38SBC   H01A26262   7.848   3.581   5.208
   38SBC   C0F826263   8.239   3.556   5.561
   38SBC   C0F926264   7.930   3.672   5.379
   38SBC   C0FA26265   7.834   3.782   5.372
   38SBC   H01526266   7.758   3.791   5.296
   38SBC   C0FB26267   7.863   3.897   5.449
   38SBC   C0FD26268   7.975   3.890   5.538
   38SBC   C0FC26269   7.768   4.007   5.433
   38SBC   O00A26270   7.669   3.995   5.353
   38SBC   C0EV26271   7.930   4.234   5.677
   38SBC   C0EF26272   8.000   4.419   5.868
   38SBC   C0EI26273   8.203   4.389   6.045
   38SBC   C0DQ26274   8.320   4.389   6.125
   38SBC   C0CE26275   8.569   4.402   6.270
   38SBC   H00U26276   8.430   4.680   6.394
   38SBC   C0CA26277   8.661   4.740   6.505
   38SBC   C0C926278   8.800   4.773   6.510
   38SBC   C0C826279   8.825   4.910   6.507
   38SBC   C0C726280   8.939   4.983   6.560
   38SBC   C0C626281   8.932   5.121   6.539
   38SBC   C0C526282   8.997   5.243   6.590
   38SBC   C0CQ26283   8.923   5.361   6.575
   38SBC   C0D126284   8.787   5.352   6.545
   38SBC   C0D826285   8.719   5.446   6.618
   38SBC   C0D726286   8.820   5.545   6.648
   38SBC   C0D626287   8.795   5.673   6.697
   38SBC   C0D526288   8.902   5.763   6.716
   38SBC   C0D426289   9.039   5.749   6.715
   38SBC   C0D326290   9.087   5.840   6.808
   38SBC   C0CX26291   9.217   5.797   6.851
   38SBC   C0CW26292   9.232   5.655   6.814
   38SBC   C0CV26293   9.330   5.542   6.821
   38SBC   C0D226294   9.458   5.556   6.880
   38SBC   C09D26295   9.513   5.675   6.929
   38SBC   C09C26296   9.652   5.679   6.970
   38SBC   C09B26297   9.726   5.796   7.009
   38SBC   C09A26298   9.652   5.915   7.009
   38SBC   C09926299   9.519   5.911   6.989
   38SBC   C09826300   9.482   6.041   6.956
   38SBC   C08Y26301   9.596   6.125   6.946
   38SBC   C08X26302   9.617   6.252   6.888
   38SBC   C08W26303   9.499   6.324   6.841
   38SBC   C08U26304   9.361   6.287   6.833
   38SBC   C08V26305   9.294   6.151   6.844
   38SBC   C0DC26306   9.157   6.183   6.831
   38SBC   H00W26307   9.082   6.106   6.837
   38SBC   C0DB26308   9.134   6.324   6.823
   38SBC   H00X26309   9.043   6.379   6.807
   38SBC   C08T26310   9.261   6.382   6.817
   38SBC   C08S26311   9.288   6.513   6.781
   38SBC   H00N26312   9.211   6.580   6.747
   38SBC   C08R26313   9.420   6.547   6.754
   38SBC   C08Q26314   9.454   6.671   6.694
   38SBC   H00O26315   9.376   6.741   6.669
   38SBC   C08P26316   9.587   6.711   6.662
   38SBC   C08O26317   9.626   6.829   6.588
   38SBC   H00P26318   9.553   6.906   6.566
   38SBC   C08N26319   9.758   6.855   6.543
   38SBC   C08M26320   9.789   6.975   6.470
   38SBC   O00826321   9.710   7.068   6.458
   38SBC   O00726322   9.916   6.980   6.407
   38SBC   C08H26323  10.010   6.888   6.448
   38SBC   C08G26324  10.143   6.899   6.392
   38SBC   C03V26325  10.191   6.992   6.302
   38SBC   H00926326  10.129   7.076   6.278
   38SBC   C03U26327  10.316   6.987   6.239
   38SBC   C03W26328  10.370   7.074   6.140
   38SBC   H00A26329  10.306   7.153   6.102
   38SBC   C03X26330  10.486   7.059   6.086
   38SBC   H00B26331  10.518   7.127   6.008
   38SBC   O00526332  10.576   6.964   6.121
   38SBC   C03O26333  10.531   6.875   6.221
   38SBC   C03N26334  10.613   6.775   6.266
   38SBC   O00026335  10.741   6.780   6.221
   38SBC   C01926336  10.822   6.679   6.243
   38SBC   C01826337  10.796   6.586   6.347
   38SBC   C01726338  10.668   6.589   6.408
   38SBC   C01626339  10.631   6.499   6.511
   38SBC   C01526340  10.734   6.407   6.544
   38SBC   C01426341  10.705   6.313   6.642
   38SBC   C01326342  10.576   6.296   6.702
   38SBC   C01226343  10.589   6.178   6.793
   38SBC   C01126344  10.726   6.145   6.783
   38SBC   C01026345  10.785   6.049   6.855
   38SBC   C00Z26346  10.912   5.996   6.846
   38SBC   C00Y26347  10.900   5.878   6.924
   38SBC   C01O26348  10.771   5.862   6.975
   38SBC   C01P26349  10.710   5.736   6.993
   38SBC   C02L26350  10.576   5.731   7.002
   38SBC   C02K26351  10.506   5.853   6.981
   38SBC   C01M26352  10.562   5.976   6.932
   38SBC   C02J26353  10.368   5.845   7.006
   38SBC   C02I26354  10.276   5.947   7.014
   38SBC   C02H26355  10.282   6.079   6.981
   38SBC   C01Q26356  10.382   6.144   6.910
   38SBC   C02G26357  10.326   6.263   6.848
   38SBC   C08926358  10.205   6.286   6.918
   38SBC   C08826359  10.122   6.358   6.835
   38SBC   C08726360  10.213   6.419   6.736
   38SBC   C08626361  10.178   6.521   6.644
   38SBC   C03S26362  10.274   6.597   6.561
   38SBC   N00626363  10.203   6.698   6.512
   38SBC   C08F26364  10.072   6.690   6.557
   38SBC   C01J26365  10.408   6.594   6.515
   38SBC   C03R26366  10.450   6.689   6.418
   38SBC   C03Q26367  10.364   6.790   6.376
   38SBC   C08E26368  10.054   6.589   6.640
   38SBC   C08D26369   9.926   6.558   6.693
   38SBC   C08K26370   9.820   6.646   6.659
   38SBC   C08C26371   9.892   6.456   6.782
   38SBC   C09126372   9.759   6.428   6.812
   38SBC   C09226373   9.650   6.502   6.763
   38SBC   C08B26374   9.975   6.363   6.846
   38SBC   C09026375   9.881   6.278   6.919
   38SBC   C09426376   9.913   6.178   7.017
   38SBC   C09526377   9.836   6.061   7.018
   38SBC   C09R26378   9.907   5.945   7.046
   38SBC   C09726379  10.037   5.974   7.047
   38SBC   C09626380  10.046   6.113   7.027
   38SBC   C01I26381  10.348   6.360   6.740
   38SBC   C08A26382  10.170   6.167   6.994
   38SBC   C09L26383  10.153   5.894   7.039
   38SBC   C09K26384  10.175   5.750   7.045
   38SBC   C09J26385  10.067   5.659   7.049
   38SBC   C09I26386  10.083   5.519   7.021
   38SBC   C09O26387  10.185   5.418   6.997
   38SBC   C09N26388  10.319   5.455   6.994
   38SBC   C09M26389  10.378   5.582   7.005
   38SBC   C06O26390  10.410   5.339   6.998
   38SBC   C05M26391  10.362   5.208   6.980
   38SBC   C06P26392  10.227   5.187   6.954
   38SBC   C04226393  10.451   5.099   6.985
   38SBC   C04126394  10.589   5.121   6.989
   38SBC   C04026395  10.678   5.012   6.979
   38SBC   C03Z26396  10.814   5.030   6.961
   38SBC   C03Y26397  10.865   5.158   6.962
   38SBC   C02726398  11.001   5.176   6.936
   38SBC   C02626399  11.053   5.304   6.929
   38SBC   C02826400  11.183   5.324   6.894
   38SBC   C02926401  11.269   5.216   6.876
   38SBC   C02B26402  11.399   5.237   6.826
   38SBC   C02C26403  11.485   5.135   6.796
   38SBC   C02X26404  11.606   5.157   6.731
   38SBC   C03E26405  11.683   5.049   6.707
   38SBC   C03G26406  11.643   4.917   6.719
   38SBC   C04Q26407  11.518   4.899   6.773
   38SBC   C04R26408  11.468   4.772   6.788
   38SBC   C04S26409  11.335   4.752   6.826
   38SBC   C04L26410  11.257   4.859   6.874
   38SBC   C04M26411  11.308   4.984   6.858
   38SBC   C04K26412  11.125   4.837   6.900
   38SBC   C04F26413  11.072   4.704   6.896
   38SBC   C04E26414  11.155   4.597   6.858
   38SBC   C04D26415  11.103   4.468   6.856
   38SBC   C05026416  11.179   4.367   6.816
   38SBC   C05126417  11.124   4.239   6.799
   38SBC   C05Q26418  11.200   4.130   6.755
   38SBC   C05V26419  11.143   4.009   6.737
   38SBC   N00526420  11.220   3.909   6.687
   38SBC   C07V26421  11.358   3.930   6.657
   38SBC   C08226422  11.436   3.821   6.621
   38SBC   C08126423  11.388   3.696   6.580
   38SBC   C07C26424  11.252   3.675   6.605
   38SBC   C07B26425  11.197   3.545   6.583
   38SBC   C08026426  11.276   3.443   6.523
   38SBC   C07Z26427  11.208   3.318   6.499
   38SBC   H00L26428  11.263   3.235   6.457
   38SBC   C07926429  11.082   3.290   6.546
   38SBC   C07826430  11.007   3.392   6.606
   38SBC   C07726431  10.884   3.363   6.657
   38SBC   C07X26432  10.827   3.232   6.639
   38SBC   H00I26433  10.730   3.199   6.673
   38SBC   C07Y26434  10.900   3.130   6.574
   38SBC   H00H26435  10.855   3.032   6.574
   38SBC   C07626436  10.812   3.464   6.726
   38SBC   C06C26437  10.681   3.433   6.773
   38SBC   H00C26438  10.636   3.335   6.784
   38SBC   C06F26439  10.861   3.596   6.720
   38SBC   C06E26440  10.781   3.704   6.756
   38SBC   C06G26441  10.823   3.833   6.766
   38SBC   C06H26442  10.954   3.860   6.739
   38SBC   C06I26443  11.037   3.755   6.691
   38SBC   C06L26444  10.733   3.936   6.791
   38SBC   C06M26445  10.593   3.915   6.815
   38SBC   C06K26446  10.787   4.064   6.817
   38SBC   C05S26447  10.925   4.088   6.800
   38SBC   C05U26448  10.707   4.171   6.858
   38SBC   C05X26449  10.566   4.154   6.868
   38SBC   C05G26450  10.496   4.277   6.904
   38SBC   C05F26451  10.568   4.392   6.939
   38SBC   C05E26452  10.489   4.503   6.940
   38SBC   C04826453  10.534   4.634   6.948
   38SBC   C05626454  10.444   4.734   6.939
   38SBC   C04526455  10.490   4.861   6.961
   38SBC   C04726456  10.668   4.648   6.947
   38SBC   C04926457  10.750   4.536   6.938
   38SBC   C04B26458  10.887   4.554   6.916
   38SBC   C04626459  10.720   4.772   6.953
   38SBC   C04H26460  10.857   4.795   6.947
   38SBC   C05D26461  10.358   4.463   6.917
   38SBC   C04A26462  10.703   4.407   6.927
   38SBC   C05T26463  10.772   4.292   6.890
   38SBC   C05526464  10.909   4.318   6.873
   38SBC   C06D26465  10.652   3.680   6.793
   38SBC   C07W26466  10.989   3.626   6.676
   38SBC   C08526467  11.026   3.162   6.533
   38SBC   H00M26468  11.079   3.083   6.482
   38SBC   C08426469  11.412   3.469   6.494
   38SBC   H00J26470  11.481   3.398   6.454
   38SBC   C07A26471  11.065   3.520   6.623
   38SBC   C08326472  11.468   3.591   6.526
   38SBC   H00K26473  11.575   3.604   6.517
   38SBC   O00K26474  11.574   3.827   6.616
   38SBC   C0GO26475  11.633   3.954   6.640
   38SBC   C0GN26476  11.772   3.968   6.628
   38SBC   H01L26477  11.833   3.884   6.598
   38SBC   C0GM26478  11.828   4.093   6.659
   38SBC   C0GL26479  11.960   4.105   6.658
   38SBC   H01M26480  12.021   4.027   6.613
   38SBC   O00J26481  12.018   4.229   6.683
   38SBC   C0GK26482  11.937   4.337   6.688
   38SBC   H01N26483  11.978   4.436   6.699
   38SBC   C05K26484  11.801   4.323   6.672
   38SBC   C05J26485  11.718   4.438   6.685
   38SBC   C04Y26486  11.753   4.576   6.663
   38SBC   C04X26487  11.674   4.682   6.697
   38SBC   O00626488  11.871   4.601   6.600
   38SBC   C05326489  11.894   4.717   6.533
   38SBC   C04O26490  11.834   4.829   6.584
   38SBC   C03C26491  11.864   4.968   6.551
   38SBC   C03B26492  11.931   5.040   6.445
   38SBC   C05426493  11.990   4.977   6.339
   38SBC   C0GR26494  12.046   5.043   6.222
   38SBC   C03M26495  12.038   5.180   6.165
   38SBC   C03I26496  11.974   5.294   6.231
   38SBC   C03J26497  11.975   5.419   6.158
   38SBC   N00226498  11.903   5.532   6.209
   38SBC   C02U26499  11.901   5.654   6.138
   38SBC   C02T26500  11.833   5.762   6.179
   38SBC   C02Z26501  11.835   5.880   6.104
   38SBC   N00126502  11.778   6.001   6.154
   38SBC   C02R26503  11.775   6.117   6.071
   38SBC   C03226504  11.837   6.120   5.944
   38SBC   C03126505  11.900   5.998   5.896
   38SBC   H00726506  11.955   6.003   5.803
   38SBC   C03326507  11.841   6.246   5.878
   38SBC   H00326508  11.891   6.255   5.782
   38SBC   O00426509  11.776   6.357   5.924
   38SBC   C03426510  11.718   6.353   6.047
   38SBC   C03526511  11.662   6.471   6.100
   38SBC   C03626512  11.598   6.470   6.225
   38SBC   H00526513  11.567   6.568   6.260
   38SBC   C03726514  11.592   6.350   6.303
   38SBC   H00626515  11.545   6.357   6.399
   38SBC   C00D26516  11.644   6.230   6.249
   38SBC   C00C26517  11.639   6.108   6.317
   38SBC   C00B26518  11.549   6.086   6.428
   38SBC   C00A26519  11.419   6.144   6.481
   38SBC   C00926520  11.389   6.067   6.596
   38SBC   C00826521  11.258   6.048   6.650
   38SBC   C00726522  11.156   6.135   6.609
   38SBC   C00626523  11.040   6.122   6.672
   38SBC   C00526524  10.934   6.210   6.630
   38SBC   C00426525  10.956   6.299   6.521
   38SBC   C00326526  11.073   6.298   6.447
   38SBC   C00226527  11.097   6.374   6.336
   38SBC   C01C26528  11.001   6.471   6.303
   38SBC   C01B26529  11.024   6.563   6.202
   38SBC   H00026530  11.119   6.578   6.153
   38SBC   C00126531  11.199   6.342   6.249
   38SBC   C00026532  11.297   6.255   6.296
   38SBC   C01U26533  11.350   6.201   6.177
   38SBC   H00226534  11.422   6.121   6.169
   38SBC   C01T26535  11.303   6.285   6.066
   38SBC   O00226536  11.353   6.295   5.955
   38SBC   O00126537  11.200   6.355   6.113
   38SBC   C01S26538  11.177   6.217   6.498
   38SBC   C00N26539  11.242   5.935   6.726
   38SBC   C00M26540  11.333   5.831   6.731
   38SBC   C00J26541  11.450   5.842   6.663
   38SBC   C00I26542  11.526   5.734   6.626
   38SBC   C00H26543  11.632   5.748   6.540
   38SBC   C00G26544  11.649   5.864   6.469
   38SBC   C00F26545  11.713   5.875   6.353
   38SBC   C01X26546  11.703   5.638   6.500
   38SBC   C01W26547  11.689   5.520   6.565
   38SBC   C01V26548  11.582   5.508   6.660
   38SBC   C02026549  11.558   5.385   6.715
   38SBC   C01Z26550  11.772   5.412   6.526
   38SBC   C02Y26551  11.749   5.300   6.604
   38SBC   C03926552  11.824   5.192   6.576
   38SBC   C02W26553  11.842   5.410   6.407
   38SBC   C01Y26554  11.777   5.643   6.382
   38SBC   C00U26555  11.495   5.610   6.677
   38SBC   C00S26556  11.378   5.593   6.748
   38SBC   C00T26557  11.345   5.469   6.799
   38SBC   C00R26558  11.295   5.704   6.775
   38SBC   C00Q26559  11.178   5.685   6.833
   38SBC   C00V26560  11.140   5.556   6.876
   38SBC   C02426561  11.010   5.536   6.926
   38SBC   C00X26562  10.927   5.642   6.948
   38SBC   C00P26563  11.097   5.791   6.846
   38SBC   C00O26564  11.121   5.914   6.777
   38SBC   C00K26565  11.482   5.968   6.608
   38SBC   N00026566  11.303   6.200   6.425
   38SBC   C00L26567  11.575   5.974   6.509
   38SBC   H00426568  11.658   6.563   6.045
   38SBC   C02Q26569  11.715   6.233   6.124
   38SBC   C00E26570  11.714   5.997   6.282
   38SBC   C03026571  11.896   5.880   5.976
   38SBC   O00326572  11.958   5.769   5.934
   38SBC   C02S26573  11.774   5.761   6.303
   38SBC   C03826574  11.958   5.655   6.012
   38SBC   C03L26575  12.008   5.543   5.951
   38SBC   H00826576  12.041   5.558   5.849
   38SBC   C02V26577  11.845   5.527   6.336
   38SBC   C03K26578  12.023   5.425   6.023
   38SBC   C0BK26579  12.081   5.313   5.969
   38SBC   H00T26580  12.117   5.320   5.868
   38SBC   C03H26581  11.908   5.298   6.360
   38SBC   C0BL26582  12.095   5.190   6.038
   38SBC   C0GU26583  12.156   5.076   5.979
   38SBC   H01O26584  12.188   5.091   5.877
   38SBC   C0GT26585  12.175   4.947   6.030
   38SBC   H01P26586  12.211   4.861   5.976
   38SBC   C0GS26587  12.111   4.934   6.150
   38SBC   C0GV26588  12.081   4.810   6.217
   38SBC   C0GW26589  12.115   4.679   6.175
   38SBC   H01Q26590  12.169   4.666   6.082
   38SBC   C0GX26591  12.076   4.573   6.249
   38SBC   H01R26592  12.109   4.473   6.226
   38SBC   O00L26593  12.019   4.593   6.376
   38SBC   C0GQ26594  12.013   4.830   6.335
   38SBC   C03A26595  11.896   5.179   6.450
   38SBC   C05L26596  11.978   4.719   6.418
   38SBC   C04W26597  11.580   4.424   6.726
   38SBC   C05I26598  11.526   4.298   6.727
   38SBC   C05O26599  11.602   4.192   6.684
   38SBC   C05226600  11.389   4.282   6.756
   38SBC   C04V26601  11.496   4.534   6.757
   38SBC   C04U26602  11.367   4.517   6.797
   38SBC   N00926603  11.740   4.203   6.675
   38SBC   C0GP26604  11.550   4.065   6.679
   38SBC   C05W26605  11.414   4.054   6.691
   38SBC   C07D26606  11.168   3.775   6.659
   38SBC   C06J26607  11.005   3.987   6.755
   38SBC   C05P26608  11.333   4.157   6.741
   38SBC   C05R26609  10.988   4.212   6.827
   38SBC   C04Z26610  11.310   4.388   6.787
   38SBC   C04C26611  10.969   4.447   6.885
   38SBC   C04G26612  10.939   4.684   6.925
   38SBC   C04J26613  11.039   4.942   6.927
   38SBC   C04T26614  11.283   4.623   6.824
   38SBC   N00326615  11.546   4.663   6.754
   38SBC   C04P26616  11.719   4.810   6.669
   38SBC   C03D26617  11.792   5.065   6.623
   38SBC   C02126618  11.643   5.278   6.688
   38SBC   C03F26619  11.440   5.004   6.814
   38SBC   C02226620  11.433   5.363   6.781
   38SBC   C02A26621  11.225   5.089   6.885
   38SBC   C02326622  11.226   5.451   6.861
   38SBC   C02526623  10.964   5.411   6.952
   38SBC   C02D26624  10.829   5.397   6.986
   38SBC   C02E26625  10.745   5.502   7.005
   38SBC   C02N26626  10.602   5.489   7.018
   38SBC   C04N26627  11.091   5.071   6.915
   38SBC   C02P26628  10.778   5.269   6.984
   38SBC   C04I26629  10.903   4.922   6.946
   38SBC   C04426630  10.629   4.882   6.969
   38SBC   C04326631  10.639   5.251   6.994
   38SBC   C05N26632  10.551   5.361   7.010
   38SBC   C09U26633  10.139   5.289   6.964
   38SBC   C09V26634  10.004   5.261   6.942
   38SBC   C09X26635   9.912   5.358   6.947
   38SBC   C09Y26636   9.776   5.350   6.912
   38SBC   C0A126637   9.734   5.228   6.873
   38SBC   C0A226638   9.828   5.122   6.872
   38SBC   C0A426639   9.782   4.995   6.844
   38SBC   C07126640   9.871   4.884   6.847
   38SBC   C0A526641   9.825   4.762   6.810
   38SBC   C0A926642   9.696   4.747   6.768
   38SBC   C0A826643   9.606   4.852   6.768
   38SBC   C0AP26644   9.481   4.834   6.720
   38SBC   C0BY26645   9.395   4.943   6.728
   38SBC   C0BX26646   9.430   5.072   6.754
   38SBC   C0C226647   9.338   5.176   6.739
   38SBC   C0C326648   9.379   5.303   6.778
   38SBC   C0CT26649   9.509   5.322   6.833
   38SBC   C0C126650   9.205   5.157   6.688
   38SBC   C0C026651   9.160   5.018   6.671
   38SBC   C0A726652   9.560   5.086   6.799
   38SBC   C0BZ26653   9.262   4.921   6.684
   38SBC   C0BO26654   9.221   4.800   6.638
   38SBC   C0BN26655   9.306   4.694   6.619
   38SBC   C0BM26656   9.257   4.574   6.582
   38SBC   C0B926657   9.345   4.470   6.578
   38SBC   C0B826658   9.476   4.481   6.625
   38SBC   C0AD26659   9.524   4.605   6.675
   38SBC   C0AF26660   9.558   4.372   6.628
   38SBC   C0AG26661   9.521   4.248   6.575
   38SBC   C0B726662   9.387   4.239   6.530
   38SBC   C0AE26663   9.679   4.393   6.680
   38SBC   C0AB26664   9.738   4.514   6.721
   38SBC   C0AA26665   9.868   4.531   6.763
   38SBC   C0AJ26666   9.768   4.287   6.667
   38SBC   C0AK26667   9.896   4.308   6.704
   38SBC   C06W26668   9.962   4.194   6.675
   38SBC   C0AI26669   9.740   4.161   6.615
   38SBC   C0BP26670   9.086   4.797   6.599
   38SBC   C0BQ26671   9.032   4.674   6.547
   38SBC   C0BW26672   9.431   4.713   6.672
   38SBC   C0AC26673   9.653   4.622   6.722
   38SBC   C0A626674   9.652   4.979   6.804
   38SBC   C0A326675   9.599   5.210   6.834
   38SBC   C09Z26676   9.685   5.454   6.921
   38SBC   C09W26677   9.955   5.138   6.909
   38SBC   C07226678  10.047   5.031   6.920
   38SBC   C09H26679   9.950   5.480   6.995
   38SBC   C09G26680   9.860   5.584   6.994
   38SBC   C09P26681   9.929   5.693   7.029
   38SBC   C02O26682  10.306   5.715   7.018
   38SBC   C02M26683  10.517   5.601   7.010
   38SBC   C02F26684  10.794   5.628   6.991
   38SBC   C00W26685  10.981   5.767   6.915
   38SBC   C01R26686  11.026   6.013   6.762
   38SBC   C01N26687  10.702   5.966   6.922
   38SBC   C01L26688  10.508   6.092   6.883
   38SBC   C01H26689  10.470   6.384   6.669
   38SBC   C01K26690  10.797   6.219   6.687
   38SBC   C01E26691  10.858   6.395   6.481
   38SBC   C01G26692  10.497   6.493   6.566
   38SBC   C01D26693  10.888   6.488   6.379
   38SBC   C01A26694  10.943   6.672   6.175
   38SBC   H00126695  10.961   6.745   6.098
   38SBC   C01F26696  10.577   6.681   6.364
   38SBC   C03P26697  10.402   6.883   6.276
   38SBC   C03T26698  10.239   6.800   6.425
   38SBC   C08I26699   9.980   6.777   6.527
   38SBC   C08J26700   9.851   6.762   6.575
   38SBC   C08L26701   9.684   6.622   6.697
   38SBC   C09326702   9.519   6.457   6.789
   38SBC   C08Z26703   9.744   6.309   6.882
   38SBC   C09T26704   9.356   6.028   6.895
   38SBC   C09S26705   9.701   6.040   6.991
   38SBC   C09Q26706   9.861   5.812   7.033
   38SBC   C09F26707   9.728   5.569   6.962
   38SBC   C09E26708   9.451   5.809   6.927
   38SBC   C0A026709   9.550   5.446   6.874
   38SBC   C0CU26710   9.287   5.413   6.772
   38SBC   C0CR26711   9.158   5.395   6.714
   38SBC   C0CZ26712   9.071   5.506   6.700
   38SBC   C0DA26713   9.335   5.876   6.881
   38SBC   C0D926714   8.973   5.888   6.887
   38SBC   H00V26715   8.976   5.946   6.979
   38SBC   C0CY26716   9.106   5.630   6.751
   38SBC   C0DF26717   8.856   5.849   6.816
   38SBC   C0DE26718   8.710   5.829   6.827
   38SBC   C0GI26719   8.609   5.913   6.880
   38SBC   H01K26720   8.632   6.011   6.917
   38SBC   C0GJ26721   8.484   5.869   6.871
   38SBC   H01J26722   8.403   5.937   6.895
   38SBC   O00I26723   8.450   5.741   6.823
   38SBC   C0GH26724   8.545   5.659   6.772
   38SBC   C0GG26725   8.503   5.525   6.730
   38SBC   O00G26726   8.374   5.490   6.755
   38SBC   C0G826727   8.332   5.359   6.761
   38SBC   C0G926728   8.218   5.335   6.839
   38SBC   H01G26729   8.167   5.426   6.869
   38SBC   C0GA26730   8.188   5.206   6.880
   38SBC   H01H26731   8.093   5.199   6.930
   38SBC   C0GB26732   8.250   5.091   6.829
   38SBC   C0EP26733   8.363   5.118   6.740
   38SBC   C0E826734   8.433   4.994   6.694
   38SBC   C0CK26735   8.544   4.959   6.604
   38SBC   C0CL26736   8.618   5.059   6.536
   38SBC   C0E926737   8.613   5.202   6.560
   38SBC   C0GE26738   8.527   5.293   6.642
   38SBC   C0E726739   8.383   4.865   6.718
   38SBC   C0CJ26740   8.450   4.760   6.658
   38SBC   C0E626741   8.403   4.629   6.679
   38SBC   H00Y26742   8.461   4.547   6.638
   38SBC   C0EO26743   8.294   4.610   6.762
   38SBC   H01126744   8.258   4.509   6.776
   38SBC   C0G626745   8.227   4.720   6.833
   38SBC   C0G526746   8.114   4.711   6.918
   38SBC   H01F26747   8.066   4.616   6.938
   38SBC   C0GD26748   8.044   4.816   6.954
   38SBC   H01I26749   7.953   4.807   7.011
   38SBC   O00H26750   8.085   4.944   6.927
   38SBC   C0EQ26751   8.272   4.852   6.805
   38SBC   C0GC26752   8.201   4.959   6.856
   38SBC   C0G726753   8.409   5.252   6.709
   38SBC   C0DD26754   8.672   5.713   6.767
   38SBC   C0GF26755   8.580   5.429   6.661
   38SBC   C0CO26756   8.733   5.237   6.501
   38SBC   C0D026757   8.943   5.478   6.644
   38SBC   C0C426758   9.120   5.265   6.663
   38SBC   C0CN26759   8.817   5.134   6.457
   38SBC   C0CP26760   9.049   4.935   6.627
   38SBC   C0CM26761   8.738   5.018   6.459
   38SBC   C0CI26762   8.559   4.814   6.583
   38SBC   C0CD26763   8.688   4.409   6.340
   38SBC   C0BR26764   8.900   4.666   6.506
   38SBC   C0CS26765   9.124   4.565   6.540
   38SBC   C0B626766   9.300   4.349   6.527
   38SBC   C0CG26767   8.904   4.310   6.388
   38SBC   C0CF26768   8.774   4.300   6.332
   38SBC   C0E526769   8.527   4.284   6.207
   38SBC   C0DT26770   8.447   4.052   6.081
   38SBC   C0DL26771   8.789   3.958   6.193
   38SBC   C0DM26772   8.876   3.846   6.192
   38SBC   C0DY26773   8.712   3.719   6.069
   38SBC   C0DU26774   8.412   3.937   6.023
   38SBC   C0F026775   8.261   3.816   5.878
   38SBC   C0F426776   8.232   3.648   5.668
   38SBC   C0FG26777   8.519   3.522   5.847
   38SBC   O00B26778   8.324   3.446   5.558
   38SBC   C0FN26779   8.595   3.424   5.815
   38SBC   C0DZ26780   8.677   3.610   5.993
   38SBC   O00C26781   8.979   3.406   6.028
   38SBC   C0FR26782   9.096   3.403   6.095
   38SBC   O00D26783   9.156   3.299   6.084
   38SBC   C0E026784   8.838   3.727   6.126
   38SBC   C0E326785   9.133   3.519   6.173
   38SBC   C0AW26786   9.259   3.532   6.228
   38SBC   C0AV26787   9.366   3.444   6.209
   38SBC   H00Q26788   9.367   3.359   6.142
   38SBC   C0AU26789   9.492   3.463   6.266
   38SBC   H00R26790   9.570   3.390   6.247
   38SBC   C0AT26791   9.516   3.580   6.336
   38SBC   C0AS26792   9.635   3.640   6.405
   38SBC   C0AR26793   9.747   3.562   6.442
   38SBC   C0BE26794   9.416   3.668   6.352
   38SBC   C0DN26795   8.999   3.858   6.257
   38SBC   C0AX26796   9.288   3.652   6.294
   38SBC   C0BB26797   9.163   3.986   6.376
   38SBC   C0BD26798   9.461   3.785   6.416
   38SBC   C0B226799   9.340   4.118   6.476
   38SBC   C0AH26800   9.608   4.136   6.572
   38SBC   C0BF26801   9.599   3.780   6.451
   38SBC   C0AL26802   9.869   4.100   6.623
   38SBC   C07U26803   9.887   3.747   6.554
   38SBC   C0AQ26804   9.861   3.625   6.497
   38SBC   C0BG26805   9.779   3.421   6.397
   38SBC   C0FY26806  10.002   3.239   6.602
   38SBC   C0BJ26807   9.706   3.301   6.444
   38SBC   H00S26808   9.602   3.293   6.470
   38SBC   C0FZ26809   9.943   3.125   6.650
   38SBC   C07S26810  10.094   3.305   6.682
   38SBC   C0G126811  10.131   3.028   6.934
   38SBC   C07K26812  10.416   3.252   7.042
   38SBC   C07H26813  10.282   3.424   6.856
   38SBC   C06B26814  10.608   3.546   6.810
   38SBC   C06N26815  10.563   3.777   6.822
   38SBC   C06626816  10.207   3.651   6.744
   38SBC   C06226817  10.159   3.953   6.698
   38SBC   C05Y26818  10.510   4.024   6.830
   38SBC   C06126819  10.186   4.096   6.675
   38SBC   C05H26820  10.364   4.321   6.899
   38SBC   C06V26821  10.096   4.196   6.711
   38SBC   C06Y26822   9.950   4.425   6.759
   38SBC   C05C26823  10.266   4.573   6.891
   38SBC   C06Z26824   9.915   4.654   6.803
   38SBC   C07026825  10.002   4.901   6.881
   38SBC   C05B26826  10.311   4.707   6.920
   38SBC   C05726827  10.402   4.971   6.964
   38SBC   C05926828  10.181   5.055   6.940
   39SBC   C05826829   3.075  10.366   7.449
   39SBC   C05A26830   3.147  10.482   7.405
   39SBC   C06Q26831   3.087  10.605   7.395
   39SBC   C06R26832   3.154  10.720   7.348
   39SBC   C06S26833   3.293  10.708   7.311
   39SBC   C06T26834   3.352  10.821   7.256
   39SBC   C06U26835   3.492  10.847   7.203
   39SBC   C06X26836   3.610  10.767   7.207
   39SBC   C06026837   3.719  10.836   7.135
   39SBC   C05Z26838   3.853  10.846   7.176
   39SBC   C06826839   3.887  10.989   7.139
   39SBC   C06726840   4.014  11.046   7.119
   39SBC   C06926841   4.134  10.969   7.145
   39SBC   C06A26842   4.270  11.008   7.096
   39SBC   C07326843   4.302  11.034   6.962
   39SBC   C07P26844   4.386  10.950   6.887
   39SBC   C07O26845   4.429  10.818   6.919
   39SBC   H00D26846   4.388  10.776   7.009
   39SBC   C07N26847   4.513  10.736   6.842
   39SBC   H00E26848   4.543  10.637   6.873
   39SBC   C07M26849   4.552  10.792   6.723
   39SBC   H00F26850   4.603  10.731   6.649
   39SBC   C07L26851   4.513  10.923   6.678
   39SBC   C07Q26852   4.553  10.979   6.552
   39SBC   H00G26853   4.604  10.924   6.475
   39SBC   O00F26854   4.525  11.103   6.515
   39SBC   C07J26855   4.444  11.175   6.597
   39SBC   C07I26856   4.397  11.125   6.720
   39SBC   N00426857   4.300  11.202   6.794
   39SBC   C07R26858   4.277  11.338   6.755
   39SBC   C07T26859   4.333  11.382   6.635
   39SBC   C0FX26860   4.299  11.503   6.578
   39SBC   C0FW26861   4.320  11.546   6.451
   39SBC   C0G026862   4.398  11.456   6.371
   39SBC   C0G226863   4.427  11.486   6.236
   39SBC   H01E26864   4.477  11.411   6.176
   39SBC   C0G326865   4.374  11.601   6.186
   39SBC   H01C26866   4.397  11.632   6.086
   39SBC   C0G426867   4.298  11.689   6.263
   39SBC   H01D26868   4.262  11.780   6.217
   39SBC   O00E26869   4.439  11.341   6.423
   39SBC   C0FV26870   4.268  11.665   6.401
   39SBC   C0FU26871   4.179  11.739   6.485
   39SBC   H01B26872   4.126  11.827   6.450
   39SBC   C0FT26873   4.166  11.697   6.620
   39SBC   C0FS26874   4.074  11.728   6.726
   39SBC   C0BI26875   4.125  11.662   6.842
   39SBC   C0BH26876   4.019  11.656   6.938
   39SBC   C07F26877   3.964  11.532   6.993
   39SBC   C07E26878   4.022  11.407   7.014
   39SBC   C07G26879   4.140  11.359   6.953
   39SBC   C07426880   4.141  11.225   6.972
   39SBC   C06526881   3.952  11.299   7.061
   39SBC   C06426882   3.818  11.313   7.083
   39SBC   C06326883   3.729  11.214   7.110
   39SBC   C07526884   3.595  11.279   7.106
   39SBC   C0AM26885   3.609  11.427   7.086
   39SBC   C0AN26886   3.509  11.534   7.091
   39SBC   C0AO26887   3.364  11.532   7.137
   39SBC   C0B126888   3.277  11.647   7.131
   39SBC   C0B026889   3.311  11.756   7.054
   39SBC   C0AZ26890   3.227  11.863   7.023
   39SBC   C0AY26891   3.276  11.967   6.939
   39SBC   N00726892   3.186  12.056   6.877
   39SBC   C0E226893   3.231  12.156   6.789
   39SBC   C0E126894   3.137  12.242   6.732
   39SBC   C0E426895   3.176  12.355   6.657
   39SBC   C0FF26896   3.084  12.443   6.592
   39SBC   C0FJ26897   3.102  12.566   6.521
   39SBC   C0FK26898   3.209  12.662   6.542
   39SBC   H01626899   3.308  12.636   6.577
   39SBC   C0FL26900   3.144  12.790   6.513
   39SBC   H01726901   3.189  12.888   6.523
   39SBC   C0FM26902   3.005  12.770   6.478
   39SBC   C0FH26903   2.873  12.827   6.468
   39SBC   C0FI26904   2.795  12.709   6.461
   39SBC   C0F326905   2.670  12.711   6.530
   39SBC   C0F226906   2.626  12.589   6.563
   39SBC   C0DW26907   2.709  12.476   6.589
   39SBC   C0FE26908   2.840  12.484   6.559
   39SBC   C0DV26909   2.669  12.379   6.682
   39SBC   C0DX26910   2.766  12.289   6.729
   39SBC   C0DK26911   2.725  12.203   6.832
   39SBC   C0DJ26912   2.596  12.206   6.887
   39SBC   C0DI26913   2.560  12.115   6.980
   39SBC   C0DH26914   2.651  12.032   7.039
   39SBC   C0DG26915   2.784  12.028   6.992
   39SBC   C0BV26916   2.879  11.941   7.045
   39SBC   C0BC26917   3.009  11.951   7.011
   39SBC   C0BA26918   2.840  11.854   7.147
   39SBC   C0B426919   2.930  11.762   7.198
   39SBC   C0B326920   3.058  11.750   7.142
   39SBC   C0B526921   2.884  11.664   7.284
   39SBC   C0BU26922   2.756  11.673   7.340
   39SBC   C0BT26923   2.666  11.767   7.305
   39SBC   C0BS26924   2.534  11.772   7.356
   39SBC   C0CC26925   2.440  11.858   7.294
   39SBC   C0CB26926   2.311  11.862   7.344
   39SBC   C0CH26927   2.215  11.920   7.251
   39SBC   C0DO26928   2.257  12.008   7.151
   39SBC   C0DP26929   2.167  12.101   7.097
   39SBC   C0EA26930   2.022  12.097   7.129
   39SBC   H01226931   1.975  12.017   7.184
   39SBC   O00926932   1.934  12.189   7.079
   39SBC   C0EH26933   1.981  12.307   7.027
   39SBC   C0EG26934   1.904  12.422   7.031
   39SBC   C0EJ26935   1.771  12.457   7.067
   39SBC   H01026936   1.701  12.388   7.111
   39SBC   C0EK26937   1.739  12.597   7.033
   39SBC   H00Z26938   1.644  12.648   7.040
   39SBC   C0EL26939   1.868  12.646   6.988
   39SBC   C0EM26940   1.911  12.778   6.950
   39SBC   C0EW26941   1.834  12.893   6.948
   39SBC   H01326942   1.738  12.896   6.996
   39SBC   C0EX26943   1.892  13.028   6.900
   39SBC   H01426944   1.829  13.115   6.905
   39SBC   C0F126945   2.033  13.029   6.855
   39SBC   C0EU26946   2.103  12.905   6.855
   39SBC   C0ET26947   2.231  12.881   6.806
   39SBC   C0ES26948   2.244  12.739   6.819
   39SBC   C0EE26949   2.140  12.681   6.894
   39SBC   C0ED26950   2.087  12.553   6.923
   39SBC   C0EC26951   2.168  12.437   6.926
   39SBC   C0EB26952   2.296  12.427   6.871
   39SBC   C0EN26953   2.346  12.526   6.781
   39SBC   C0ER26954   2.450  12.481   6.697
   39SBC   C0DS26955   2.373  12.310   6.892
   39SBC   C0DR26956   2.333  12.203   6.972
   39SBC   C0EY26957   2.327  12.659   6.746
   39SBC   C0EZ26958   2.434  12.705   6.672
   39SBC   C0F526959   2.493  12.840   6.633
   39SBC   C0F626960   2.429  12.963   6.663
   39SBC   N00826961   2.495  13.082   6.615
   39SBC   C0F726962   2.630  13.076   6.553
   39SBC   C0FQ26963   2.692  13.198   6.523
   39SBC   H01826964   2.789  13.196   6.474
   39SBC   C0FP26965   2.632  13.320   6.541
   39SBC   H01926966   2.667  13.412   6.498
   39SBC   C0FO26967   2.507  13.328   6.597
   39SBC   H01A26968   2.462  13.425   6.616
   39SBC   C0F826969   2.686  12.949   6.533
   39SBC   C0F926970   2.433  13.208   6.632
   39SBC   C0FA26971   2.308  13.227   6.698
   39SBC   H01526972   2.267  13.326   6.717
   39SBC   C0FB26973   2.236  13.112   6.745
   39SBC   C0FD26974   2.302  12.988   6.735
   39SBC   C0FC26975   2.107  13.141   6.805
   39SBC   O00A26976   2.057  13.256   6.811
   39SBC   C0EV26977   2.047  12.785   6.904
   39SBC   C0EF26978   1.956  12.534   6.981
   39SBC   C0EI26979   2.123  12.319   6.987
   39SBC   C0DQ26980   2.208  12.204   7.015
   39SBC   C0CE26981   2.391  12.016   7.119
   39SBC   H00U26982   2.111  11.918   7.281
   39SBC   C0CA26983   2.282  11.813   7.477
   39SBC   C0C926984   2.365  11.708   7.528
   39SBC   C0C826985   2.318  11.637   7.643
   39SBC   C0C726986   2.343  11.499   7.694
   39SBC   C0C626987   2.276  11.451   7.805
   39SBC   C0C526988   2.231  11.322   7.860
   39SBC   C0CQ26989   2.116  11.326   7.942
   39SBC   C0D126990   2.039  11.439   7.932
   39SBC   C0D826991   1.909  11.415   7.939
   39SBC   C0D726992   1.899  11.281   7.997
   39SBC   C0D626993   1.786  11.199   8.022
   39SBC   C0D526994   1.784  11.065   8.058
   39SBC   C0D426995   1.894  10.972   8.071
   39SBC   C0D326996   1.829  10.847   8.051
   39SBC   C0CX26997   1.930  10.758   7.997
   39SBC   C0CW26998   2.038  10.837   7.939
   39SBC   C0CV26999   2.152  10.814   7.853
   39SBC   C0D227000   2.195  10.688   7.801
   39SBC   C09D27001   2.121  10.566   7.820
   39SBC   C09C27002   2.175  10.440   7.774
   39SBC   C09B27003   2.132  10.309   7.799
   39SBC   C09A27004   2.014  10.305   7.887
   39SBC   C09927005   1.947  10.417   7.924
   39SBC   C09827006   1.866  10.390   8.032
   39SBC   C08Y27007   1.900  10.257   8.079
   39SBC   C08X27008   1.873  10.189   8.208
   39SBC   C08W27009   1.815  10.266   8.319
   39SBC   C08U27010   1.787  10.408   8.328
   39SBC   C08V27011   1.803  10.514   8.237
   39SBC   C0DC27012   1.767  10.631   8.303
   39SBC   H00W27013   1.756  10.732   8.267
   39SBC   C0DB27014   1.713  10.598   8.438
   39SBC   H00X27015   1.677  10.658   8.521
   39SBC   C08T27016   1.736  10.459   8.450
   39SBC   C08S27017   1.694  10.378   8.555
   39SBC   H00N27018   1.661  10.426   8.646
   39SBC   C08R27019   1.711  10.236   8.547
   39SBC   C08Q27020   1.680  10.152   8.655
   39SBC   H00O27021   1.627  10.199   8.737
   39SBC   C08P27022   1.724  10.019   8.670
   39SBC   C08O27023   1.708   9.939   8.788
   39SBC   H00P27024   1.662   9.987   8.872
   39SBC   C08N27025   1.760   9.808   8.799
   39SBC   C08M27026   1.741   9.730   8.920
   39SBC   O00827027   1.673   9.763   9.017
   39SBC   O00727028   1.806   9.616   8.932
   39SBC   C08H27029   1.892   9.572   8.835
   39SBC   C08G27030   1.964   9.449   8.845
   39SBC   C03V27031   1.966   9.365   8.956
   39SBC   H00927032   1.892   9.395   9.028
   39SBC   C03U27033   2.065   9.261   8.971
   39SBC   C03W27034   2.075   9.171   9.083
   39SBC   H00A27035   2.020   9.181   9.175
   39SBC   C03X27036   2.162   9.066   9.076
   39SBC   H00B27037   2.172   8.997   9.158
   39SBC   O00527038   2.246   9.041   8.970
   39SBC   C03O27039   2.227   9.124   8.863
   39SBC   C03N27040   2.296   9.083   8.750
   39SBC   O00027041   2.375   8.973   8.762
   39SBC   C01927042   2.429   8.921   8.649
   39SBC   C01827043   2.439   8.997   8.531
   39SBC   C01727044   2.370   9.119   8.523
   39SBC   C01627045   2.375   9.194   8.407
   39SBC   C01527046   2.463   9.146   8.314
   39SBC   C01427047   2.471   9.215   8.193
   39SBC   C01327048   2.393   9.332   8.168
   39SBC   C01227049   2.446   9.383   8.044
   39SBC   C01127050   2.542   9.286   8.003
   39SBC   C01027051   2.610   9.294   7.884
   39SBC   C00Z27052   2.728   9.224   7.849
   39SBC   C00Y27053   2.778   9.308   7.749
   39SBC   C01O27054   2.708   9.423   7.735
   39SBC   C01P27055   2.764   9.547   7.690
   39SBC   C02L27056   2.690   9.660   7.718
   39SBC   C02K27057   2.567   9.647   7.792
   39SBC   C01M27058   2.527   9.529   7.862
   39SBC   C02J27059   2.494   9.768   7.790
   39SBC   C02I27060   2.368   9.790   7.849
   39SBC   C02H27061   2.298   9.712   7.938
   39SBC   C01Q27062   2.327   9.590   7.997
   39SBC   C02G27063   2.230   9.570   8.101
   39SBC   C08927064   2.128   9.667   8.080
   39SBC   C08827065   2.064   9.698   8.203
   39SBC   C08727066   2.118   9.586   8.288
   39SBC   C08627067   2.075   9.565   8.420
   39SBC   C03S27068   2.121   9.460   8.507
   39SBC   N00627069   2.042   9.479   8.620
   39SBC   C08F27070   1.974   9.590   8.610
   39SBC   C01J27071   2.214   9.350   8.504
   39SBC   C03R27072   2.211   9.272   8.622
   39SBC   C03Q27073   2.134   9.303   8.739
   39SBC   C08E27074   1.985   9.653   8.491
   39SBC   C08D27075   1.928   9.781   8.470
   39SBC   C08K27076   1.852   9.839   8.577
   39SBC   C08C27077   1.934   9.859   8.352
   39SBC   C09127078   1.881   9.990   8.347
   39SBC   C09227079   1.801  10.051   8.446
   39SBC   C08B27080   1.991   9.822   8.224
   39SBC   C09027081   1.975   9.949   8.145
   39SBC   C09427082   2.024   9.961   8.009
   39SBC   C09527083   2.038  10.086   7.946
   39SBC   C09R27084   2.141  10.081   7.852
   39SBC   C09727085   2.210   9.963   7.872
   39SBC   C09627086   2.136   9.893   7.959
   39SBC   C01I27087   2.222   9.501   8.228
   39SBC   C08A27088   2.183   9.766   7.992
   39SBC   C09L27089   2.327   9.915   7.814
   39SBC   C09K27090   2.424   9.973   7.724
   39SBC   C09J27091   2.409  10.097   7.652
   39SBC   C09I27092   2.523  10.172   7.608
   39SBC   C09O27093   2.666  10.150   7.595
   39SBC   C09N27094   2.725  10.016   7.604
   39SBC   C09M27095   2.669   9.895   7.652
   39SBC   C06O27096   2.866  10.015   7.572
   39SBC   C05M27097   2.935  10.133   7.530
   39SBC   C06P27098   2.870  10.258   7.519
   39SBC   C04227099   3.073  10.129   7.502
   39SBC   C04127100   3.142  10.011   7.526
   39SBC   C04027101   3.278  10.010   7.507
   39SBC   C03Z27102   3.353   9.899   7.548
   39SBC   C03Y27103   3.291   9.782   7.574
   39SBC   C02727104   3.365   9.668   7.601
   39SBC   C02627105   3.304   9.550   7.629
   39SBC   C02827106   3.379   9.438   7.653
   39SBC   C02927107   3.517   9.442   7.658
   39SBC   C02B27108   3.590   9.329   7.685
   39SBC   C02C27109   3.728   9.344   7.708
   39SBC   C02X27110   3.797   9.234   7.748
   39SBC   C03E27111   3.929   9.248   7.779
   39SBC   C03G27112   4.000   9.366   7.768
   39SBC   C04Q27113   3.930   9.476   7.718
   39SBC   C04R27114   3.987   9.601   7.703
   39SBC   C04S27115   3.915   9.712   7.665
   39SBC   C04L27116   3.779   9.701   7.644
   39SBC   C04M27117   3.720   9.578   7.652
   39SBC   C04K27118   3.707   9.809   7.595
   39SBC   C04F27119   3.777   9.925   7.571
   39SBC   C04E27120   3.911   9.941   7.593
   39SBC   C04D27121   3.972  10.062   7.565
   39SBC   C05027122   4.112  10.075   7.578
   39SBC   C05127123   4.173  10.195   7.543
   39SBC   C05Q27124   4.310  10.210   7.563
   39SBC   C05V27125   4.372  10.326   7.523
   39SBC   N00527126   4.508  10.338   7.549
   39SBC   C07V27127   4.579  10.233   7.606
   39SBC   C08227128   4.714  10.246   7.626
   39SBC   C08127129   4.779  10.371   7.600
   39SBC   C07C27130   4.709  10.475   7.535
   39SBC   C07B27131   4.774  10.589   7.490
   39SBC   C08027132   4.914  10.606   7.510
   39SBC   C07Z27133   4.971  10.721   7.463
   39SBC   H00L27134   5.077  10.737   7.478
   39SBC   C07927135   4.912  10.826   7.398
   39SBC   C07827136   4.777  10.807   7.370
   39SBC   C07727137   4.702  10.902   7.301
   39SBC   C07X27138   4.765  11.017   7.257
   39SBC   H00I27139   4.707  11.098   7.217
   39SBC   C07Y27140   4.900  11.033   7.273
   39SBC   H00H27141   4.957  11.118   7.239
   39SBC   C07627142   4.570  10.881   7.276
   39SBC   C06C27143   4.497  10.962   7.189
   39SBC   H00C27144   4.535  11.047   7.136
   39SBC   C06F27145   4.503  10.771   7.331
   39SBC   C06E27146   4.368  10.753   7.320
   39SBC   C06G27147   4.289  10.650   7.366
   39SBC   C06H27148   4.362  10.547   7.425
   39SBC   C06I27149   4.498  10.561   7.446
   39SBC   C06L27150   4.149  10.645   7.343
   39SBC   C06M27151   4.071  10.745   7.265
   39SBC   C06K27152   4.083  10.529   7.392
   39SBC   C05S27153   4.159  10.423   7.452
   39SBC   C05U27154   3.947  10.511   7.364
   39SBC   C05X27155   3.869  10.615   7.293
   39SBC   C05G27156   3.734  10.573   7.287
   39SBC   C05F27157   3.685  10.452   7.322
   39SBC   C05E27158   3.549  10.442   7.322
   39SBC   C04827159   3.478  10.341   7.382
   39SBC   C05627160   3.344  10.350   7.389
   39SBC   C04527161   3.274  10.245   7.438
   39SBC   C04727162   3.550  10.240   7.435
   39SBC   C04927163   3.689  10.250   7.437
   39SBC   C04B27164   3.762  10.151   7.486
   39SBC   C04627165   3.485  10.127   7.479
   39SBC   C04H27166   3.560  10.021   7.521
   39SBC   C05D27167   3.492  10.565   7.294
   39SBC   C04A27168   3.758  10.358   7.385
   39SBC   C05T27169   3.893  10.383   7.405
   39SBC   C05527170   3.964  10.286   7.472
   39SBC   C06D27171   4.293  10.847   7.246
   39SBC   C07W27172   4.570  10.673   7.401
   39SBC   C08527173   4.978  10.937   7.344
   39SBC   H00M27174   5.081  10.960   7.363
   39SBC   C08427175   4.981  10.504   7.588
   39SBC   H00J27176   5.088  10.507   7.603
   39SBC   C07A27177   4.705  10.691   7.415
   39SBC   C08327178   4.916  10.390   7.627
   39SBC   H00K27179   4.970  10.319   7.688
   39SBC   O00K27180   4.790  10.146   7.671
   39SBC   C0GO27181   4.727  10.028   7.708
   39SBC   C0GN27182   4.799   9.922   7.757
   39SBC   H01L27183   4.904   9.940   7.768
   39SBC   C0GM27184   4.737   9.796   7.790
   39SBC   C0GL27185   4.819   9.707   7.839
   39SBC   H01M27186   4.922   9.730   7.863
   39SBC   O00J27187   4.769   9.578   7.861
   39SBC   C0GK27188   4.637   9.563   7.848
   39SBC   H01N27189   4.604   9.465   7.880
   39SBC   C05K27190   4.547   9.661   7.811
   39SBC   C05J27191   4.403   9.643   7.787
   39SBC   C04Y27192   4.330   9.521   7.811
   39SBC   C04X27193   4.192   9.500   7.784
   39SBC   O00627194   4.396   9.406   7.863
   39SBC   C05327195   4.336   9.286   7.898
   39SBC   C04O27196   4.203   9.265   7.869
   39SBC   C03C27197   4.124   9.147   7.886
   39SBC   C03B27198   4.134   9.021   7.957
   39SBC   C05427199   4.249   8.974   8.011
   39SBC   C0GR27200   4.272   8.838   8.053
   39SBC   C03M27201   4.176   8.722   8.076
   39SBC   C03I27202   4.035   8.723   8.059
   39SBC   C03J27203   3.959   8.614   8.112
   39SBC   N00227204   3.821   8.590   8.079
   39SBC   C02U27205   3.747   8.485   8.139
   39SBC   C02T27206   3.607   8.476   8.123
   39SBC   C02Z27207   3.540   8.372   8.181
   39SBC   N00127208   3.400   8.373   8.176
   39SBC   C02R27209   3.325   8.274   8.251
   39SBC   C03227210   3.391   8.166   8.303
   39SBC   C03127211   3.535   8.167   8.307
   39SBC   H00727212   3.595   8.091   8.356
   39SBC   C03327213   3.311   8.064   8.358
   39SBC   H00327214   3.363   7.976   8.395
   39SBC   O00427215   3.173   8.061   8.366
   39SBC   C03427216   3.115   8.164   8.298
   39SBC   C03527217   2.977   8.156   8.297
   39SBC   C03627218   2.913   8.251   8.215
   39SBC   H00527219   2.806   8.245   8.201
   39SBC   C03727220   2.982   8.355   8.150
   39SBC   H00627221   2.926   8.424   8.088
   39SBC   C00D27222   3.121   8.367   8.173
   39SBC   C00C27223   3.188   8.475   8.121
   39SBC   C00B27224   3.125   8.603   8.074
   39SBC   C00A27225   2.993   8.670   8.062
   39SBC   C00927226   3.004   8.765   7.958
   39SBC   C00827227   2.940   8.892   7.945
   39SBC   C00727228   2.830   8.915   8.024
   39SBC   C00627229   2.754   9.032   8.005
   39SBC   C00527230   2.651   9.065   8.102
   39SBC   C00427231   2.633   8.992   8.218
   39SBC   C00327232   2.709   8.874   8.236
   39SBC   C00227233   2.689   8.794   8.347
   39SBC   C01C27234   2.590   8.827   8.440
   39SBC   C01B27235   2.559   8.747   8.552
   39SBC   H00027236   2.587   8.645   8.570
   39SBC   C00127237   2.774   8.686   8.369
   39SBC   C00027238   2.886   8.664   8.291
   39SBC   C01U27239   2.963   8.571   8.365
   39SBC   H00227240   3.057   8.524   8.340
   39SBC   C01T27241   2.875   8.518   8.478
   39SBC   O00227242   2.892   8.421   8.552
   39SBC   O00127243   2.769   8.596   8.475
   39SBC   C01S27244   2.807   8.834   8.136
   39SBC   C00N27245   2.999   8.985   7.864
   39SBC   C00M27246   3.127   8.976   7.815
   39SBC   C00J27247   3.200   8.863   7.840
   39SBC   C00I27248   3.338   8.859   7.829
   39SBC   C00H27249   3.406   8.754   7.888
   39SBC   C00G27250   3.341   8.661   7.965
   39SBC   C00F27251   3.407   8.566   8.037
   39SBC   C01X27252   3.545   8.763   7.907
   39SBC   C01W27253   3.610   8.879   7.855
   39SBC   C01V27254   3.540   8.978   7.788
   39SBC   C02027255   3.599   9.098   7.748
   39SBC   C01Z27256   3.744   8.891   7.882
   39SBC   C02Y27257   3.800   9.008   7.836
   39SBC   C03927258   3.937   9.025   7.857
   39SBC   C02W27259   3.819   8.797   7.962
   39SBC   C01Y27260   3.616   8.670   7.984
   39SBC   C00U27261   3.403   8.970   7.784
   39SBC   C00S27262   3.335   9.087   7.753
   39SBC   C00T27263   3.394   9.203   7.709
   39SBC   C00R27264   3.194   9.083   7.763
   39SBC   C00Q27265   3.122   9.200   7.739
   39SBC   C00V27266   3.182   9.314   7.694
   39SBC   C02427267   3.105   9.428   7.664
   39SBC   C00X27268   2.969   9.429   7.683
   39SBC   C00P27269   2.988   9.199   7.769
   39SBC   C00O27270   2.927   9.098   7.841
   39SBC   C00K27271   3.130   8.759   7.905
   39SBC   N00027272   2.899   8.720   8.163
   39SBC   C00L27273   3.201   8.668   7.974
   39SBC   H00427274   2.927   8.068   8.337
   39SBC   C02Q27275   3.187   8.270   8.238
   39SBC   C00E27276   3.326   8.474   8.109
   39SBC   C03027277   3.606   8.277   8.256
   39SBC   O00327278   3.741   8.282   8.268
   39SBC   C02S27279   3.542   8.571   8.045
   39SBC   C03827280   3.810   8.389   8.210
   39SBC   C03L27281   3.948   8.403   8.230
   39SBC   H00827282   3.995   8.326   8.290
   39SBC   C02V27283   3.754   8.682   8.000
   39SBC   C03K27284   4.024   8.506   8.177
   39SBC   C0BK27285   4.167   8.508   8.178
   39SBC   H00T27286   4.203   8.421   8.230
   39SBC   C03H27287   3.958   8.818   7.985
   39SBC   C0BL27288   4.246   8.613   8.134
   39SBC   C0GU27289   4.385   8.611   8.146
   39SBC   H01O27290   4.428   8.528   8.200
   39SBC   C0GT27291   4.475   8.712   8.113
   39SBC   H01P27292   4.580   8.709   8.139
   39SBC   C0GS27293   4.412   8.830   8.072
   39SBC   C0GV27294   4.477   8.955   8.040
   39SBC   C0GW27295   4.614   8.993   8.050
   39SBC   H01Q27296   4.699   8.937   8.086
   39SBC   C0GX27297   4.640   9.121   8.017
   39SBC   H01R27298   4.743   9.145   8.035
   39SBC   O00L27299   4.547   9.207   7.967
   39SBC   C0GQ27300   4.376   9.047   8.002
   39SBC   C03A27301   4.012   8.947   7.946
   39SBC   C05L27302   4.411   9.181   7.958
   39SBC   C04W27303   4.328   9.748   7.734
   39SBC   C05I27304   4.388   9.872   7.699
   39SBC   C05O27305   4.527   9.886   7.710
   39SBC   C05227306   4.314   9.978   7.651
   39SBC   C04V27307   4.187   9.736   7.720
   39SBC   C04U27308   4.118   9.844   7.665
   39SBC   N00927309   4.600   9.785   7.772
   39SBC   C0GP27310   4.590  10.007   7.686
   39SBC   C05W27311   4.515  10.114   7.638
   39SBC   C07D27312   4.573  10.459   7.512
   39SBC   C06J27313   4.298  10.431   7.466
   39SBC   C05P27314   4.381  10.097   7.614
   39SBC   C05R27315   4.099  10.302   7.491
   39SBC   C04Z27316   4.180   9.963   7.625
   39SBC   C04C27317   3.897  10.168   7.509
   39SBC   C04G27318   3.699  10.032   7.531
   39SBC   C04J27319   3.567   9.800   7.591
   39SBC   C04T27320   3.982   9.832   7.640
   39SBC   N00327321   4.123   9.613   7.744
   39SBC   C04P27322   4.133   9.372   7.806
   39SBC   C03D27323   3.998   9.144   7.828
   39SBC   C02127324   3.735   9.113   7.773
   39SBC   C03F27325   3.796   9.466   7.681
   39SBC   C02227326   3.528   9.210   7.707
   39SBC   C02A27327   3.581   9.566   7.635
   39SBC   C02327328   3.319   9.319   7.677
   39SBC   C02527329   3.166   9.543   7.636
   39SBC   C02D27330   3.091   9.660   7.610
   39SBC   C02E27331   2.954   9.658   7.628
   39SBC   C02N27332   2.876   9.778   7.622
   39SBC   C04N27333   3.504   9.679   7.607
   39SBC   C02P27334   3.155   9.780   7.579
   39SBC   C04I27335   3.492   9.906   7.556
   39SBC   C04427336   3.343  10.129   7.469
   39SBC   C04327337   3.073   9.894   7.561
   39SBC   C05N27338   2.939   9.898   7.587
   39SBC   C09U27339   2.739  10.271   7.561
   39SBC   C09V27340   2.682  10.402   7.568
   39SBC   C09X27341   2.553  10.421   7.599
   39SBC   C09Y27342   2.495  10.544   7.628
   39SBC   C0A127343   2.567  10.652   7.611
   39SBC   C0A227344   2.700  10.638   7.558
   39SBC   C0A427345   2.770  10.747   7.525
   39SBC   C07127346   2.896  10.732   7.459
   39SBC   C0A527347   2.965  10.848   7.427
   39SBC   C0A927348   2.911  10.971   7.448
   39SBC   C0A827349   2.792  10.982   7.517
   39SBC   C0AP27350   2.746  11.108   7.544
   39SBC   C0BY27351   2.631  11.119   7.616
   39SBC   C0BX27352   2.549  11.012   7.646
   39SBC   C0C227353   2.424  11.032   7.713
   39SBC   C0C327354   2.350  10.917   7.751
   39SBC   C0CT27355   2.396  10.794   7.709
   39SBC   C0C127356   2.375  11.163   7.737
   39SBC   C0C027357   2.442  11.270   7.666
   39SBC   C0A727358   2.595  10.885   7.615
   39SBC   C0BZ27359   2.568  11.241   7.625
   39SBC   C0BO27360   2.627  11.353   7.569
   39SBC   C0BN27361   2.753  11.347   7.509
   39SBC   C0BM27362   2.793  11.458   7.440
   39SBC   C0B927363   2.918  11.445   7.385
   39SBC   C0B827364   2.990  11.325   7.386
   39SBC   C0AD27365   2.931  11.211   7.438
   39SBC   C0AF27366   3.106  11.314   7.315
   39SBC   C0AG27367   3.169  11.424   7.255
   39SBC   C0B727368   3.095  11.541   7.251
   39SBC   C0AE27369   3.156  11.191   7.297
   39SBC   C0AB27370   3.095  11.072   7.338
   39SBC   C0AA27371   3.151  10.949   7.311
   39SBC   C0AJ27372   3.274  11.180   7.223
   39SBC   C0AK27373   3.330  11.053   7.198
   39SBC   C06W27374   3.452  11.080   7.149
   39SBC   C0AI27375   3.354  11.283   7.173
   39SBC   C0BP27376   2.540  11.461   7.562
   39SBC   C0BQ27377   2.579  11.582   7.486
   39SBC   C0BW27378   2.814  11.222   7.507
   39SBC   C0AC27379   2.982  11.085   7.410
   39SBC   C0A627380   2.719  10.871   7.549
   39SBC   C0A327381   2.516  10.780   7.644
   39SBC   C09Z27382   2.370  10.557   7.685
   39SBC   C09W27383   2.759  10.510   7.537
   39SBC   C07227384   2.891  10.496   7.491
   39SBC   C09H27385   2.474  10.305   7.607
   39SBC   C09G27386   2.341  10.322   7.648
   39SBC   C09P27387   2.303  10.194   7.689
   39SBC   C02O27388   2.537   9.885   7.721
   39SBC   C02M27389   2.745   9.782   7.664
   39SBC   C02F27390   2.892   9.546   7.658
   39SBC   C00W27391   2.917   9.310   7.731
   39SBC   C01R27392   2.798   9.109   7.893
   39SBC   C01N27393   2.602   9.417   7.816
   39SBC   C01L27394   2.437   9.508   7.970
   39SBC   C01H27395   2.300   9.386   8.266
   39SBC   C01K27396   2.566   9.187   8.096
   39SBC   C01E27397   2.548   9.034   8.321
   39SBC   C01G27398   2.296   9.313   8.391
   39SBC   C01D27399   2.526   8.950   8.431
   39SBC   C01A27400   2.483   8.796   8.663
   39SBC   H00127401   2.477   8.724   8.743
   39SBC   C01F27402   2.288   9.156   8.631
   39SBC   C03P27403   2.143   9.234   8.859
   39SBC   C03T27404   2.044   9.408   8.739
   39SBC   C08I27405   1.906   9.642   8.715
   39SBC   C08J27406   1.839   9.765   8.700
   39SBC   C08L27407   1.788   9.965   8.561
   39SBC   C09327408   1.772  10.182   8.433
   39SBC   C08Z27409   1.909  10.054   8.226
   39SBC   C09T27410   1.851  10.514   8.095
   39SBC   C09S27411   1.973  10.204   7.969
   39SBC   C09Q27412   2.193  10.190   7.777
   39SBC   C09F27413   2.293  10.447   7.703
   39SBC   C09E27414   2.007  10.546   7.911
   39SBC   C0A027415   2.323  10.681   7.733
   39SBC   C0CU27416   2.229  10.934   7.821
   39SBC   C0CR27417   2.190  11.066   7.863
   39SBC   C0CZ27418   2.073  11.087   7.942
   39SBC   C0DA27419   1.922  10.612   8.006
   39SBC   C0D927420   1.697  10.865   7.998
   39SBC   H00V27421   1.643  10.794   7.937
   39SBC   C0CY27422   2.005  10.968   7.981
   39SBC   C0DF27423   1.670  11.007   8.001
   39SBC   C0DE27424   1.586  11.116   7.956
   39SBC   C0GI27425   1.454  11.117   7.906
   39SBC   H01K27426   1.396  11.026   7.894
   39SBC   C0GJ27427   1.407  11.237   7.872
   39SBC   H01J27428   1.311  11.236   7.824
   39SBC   O00I27429   1.475  11.355   7.883
   39SBC   C0GH27430   1.609  11.362   7.916
   39SBC   C0GG27431   1.672  11.492   7.896
   39SBC   O00G27432   1.594  11.590   7.861
   39SBC   C0G827433   1.644  11.705   7.812
   39SBC   C0G927434   1.552  11.804   7.788
   39SBC   H01G27435   1.449  11.788   7.817
   39SBC   C0GA27436   1.581  11.932   7.735
   39SBC   H01H27437   1.507  12.011   7.733
   39SBC   C0GB27438   1.708  11.957   7.683
   39SBC   C0EP27439   1.804  11.853   7.703
   39SBC   C0E827440   1.934  11.865   7.630
   39SBC   C0CK27441   2.054  11.795   7.620
   39SBC   C0CL27442   2.093  11.717   7.730
   39SBC   C0E927443   2.004  11.638   7.811
   39SBC   C0GE27444   1.860  11.629   7.827
   39SBC   C0E727445   1.972  11.986   7.576
   39SBC   C0CJ27446   2.096  11.990   7.516
   39SBC   C0E627447   2.140  12.108   7.456
   39SBC   H00Y27448   2.232  12.124   7.402
   39SBC   C0EO27449   2.037  12.204   7.436
   39SBC   H01127450   2.063  12.287   7.373
   39SBC   C0G627451   1.913  12.198   7.490
   39SBC   C0G527452   1.808  12.295   7.477
   39SBC   H01F27453   1.829  12.388   7.425
   39SBC   C0GD27454   1.690  12.282   7.542
   39SBC   H01I27455   1.614  12.357   7.530
   39SBC   O00H27456   1.652  12.171   7.618
   39SBC   C0EQ27457   1.873  12.085   7.564
   39SBC   C0GC27458   1.743  12.073   7.613
   39SBC   C0G727459   1.777  11.731   7.776
   39SBC   C0DD27460   1.664  11.236   7.965
   39SBC   C0GF27461   1.809  11.512   7.898
   39SBC   C0CO27462   2.088  11.553   7.876
   39SBC   C0D027463   2.031  11.223   7.966
   39SBC   C0C427464   2.264  11.186   7.821
   39SBC   C0CN27465   2.219  11.574   7.846
   39SBC   C0CP27466   2.431  11.413   7.632
   39SBC   C0CM27467   2.228  11.682   7.750
   39SBC   C0CI27468   2.154  11.858   7.532
   39SBC   C0CD27469   2.485  11.943   7.187
   39SBC   C0BR27470   2.490  11.684   7.453
   39SBC   C0CS27471   2.712  11.571   7.426
   39SBC   C0B627472   2.965  11.551   7.304
   39SBC   C0CG27473   2.706  11.853   7.197
   39SBC   C0CF27474   2.616  11.940   7.140
   39SBC   C0E527475   2.426  12.109   7.020
   39SBC   C0DT27476   2.505  12.298   6.840
   39SBC   C0DL27477   2.821  12.114   6.887
   39SBC   C0DM27478   2.955  12.127   6.846
   39SBC   C0DY27479   2.903  12.300   6.695
   39SBC   C0DU27480   2.542  12.379   6.736
   39SBC   C0F027481   2.504  12.591   6.634
   39SBC   C0F427482   2.616  12.831   6.562
   39SBC   C0FG27483   2.878  12.588   6.468
   39SBC   O00B27484   2.820  12.952   6.491
   39SBC   C0FN27485   3.003  12.630   6.452
   39SBC   C0DZ27486   2.948  12.406   6.617
   39SBC   O00C27487   3.316  12.376   6.644
   39SBC   C0FR27488   3.414  12.292   6.685
   39SBC   O00D27489   3.531  12.334   6.657
   39SBC   C0E027490   2.999  12.220   6.757
   39SBC   C0E327491   3.370  12.172   6.761
   39SBC   C0AW27492   3.460  12.070   6.808
   39SBC   C0AV27493   3.596  12.058   6.777
   39SBC   H00Q27494   3.645  12.127   6.710
   39SBC   C0AU27495   3.674  11.950   6.816
   39SBC   H00R27496   3.767  11.936   6.763
   39SBC   C0AT27497   3.621  11.849   6.902
   39SBC   C0AS27498   3.664  11.724   6.964
   39SBC   C0AR27499   3.790  11.663   6.938
   39SBC   C0BE27500   3.486  11.869   6.931
   39SBC   C0DN27501   3.049  12.048   6.915
   39SBC   C0AX27502   3.405  11.974   6.888
   39SBC   C0BB27503   3.099  11.856   7.062
   39SBC   C0BD27504   3.444  11.755   7.001
   39SBC   C0B227505   3.145  11.646   7.179
   39SBC   C0AH27506   3.298  11.416   7.195
   39SBC   C0BF27507   3.544  11.657   7.025
   39SBC   C0AL27508   3.471  11.221   7.117
   39SBC   C07U27509   3.750  11.438   7.057
   39SBC   C0AQ27510   3.827  11.546   7.006
   39SBC   C0BG27511   3.911  11.726   6.887
   39SBC   C0FY27512   4.201  11.553   6.801
   39SBC   C0BJ27513   3.935  11.761   6.746
   39SBC   H00S27514   3.868  11.793   6.667
   39SBC   C0FZ27515   4.238  11.588   6.670
   39SBC   C07S27516   4.209  11.421   6.847
   39SBC   C0G127517   4.401  11.297   6.546
   39SBC   C07K27518   4.432  10.996   6.764
   39SBC   C07H27519   4.245  11.149   6.918
   39SBC   C06B27520   4.361  10.945   7.182
   39SBC   C06N27521   4.157  10.849   7.220
   39SBC   C06627522   4.036  11.185   7.063
   39SBC   C06227523   3.765  11.069   7.103
   39SBC   C05Y27524   3.927  10.735   7.245
   39SBC   C06127525   3.668  10.963   7.094
   39SBC   C05H27526   3.611  10.644   7.269
   39SBC   C06V27527   3.535  10.969   7.152
   39SBC   C06Y27528   3.275  10.935   7.258
   39SBC   C05C27529   3.350  10.580   7.311
   39SBC   C06Z27530   3.087  10.840   7.359
   39SBC   C07027531   2.963  10.611   7.451
   39SBC   C05B27532   3.281  10.470   7.363
   39SBC   C05727533   3.137  10.245   7.461
   39SBC   C05927534   2.946  10.369   7.488
   40SBC   C05827535   3.676   6.825   4.746
   40SBC   C05A27536   3.745   6.947   4.722
   40SBC   C06Q27537   3.711   7.063   4.788
   40SBC   C06R27538   3.780   7.183   4.758
   40SBC   C06S27539   3.886   7.193   4.674
   40SBC   C06T27540   3.958   7.318   4.669
   40SBC   C06U27541   4.073   7.356   4.591
   40SBC   C06X27542   4.164   7.283   4.506
   40SBC   C06027543   4.260   7.374   4.440
   40SBC   C05Z27544   4.394   7.363   4.416
   40SBC   C06827545   4.447   7.499   4.429
   40SBC   C06727546   4.563   7.559   4.369
   40SBC   C06927547   4.642   7.482   4.277
   40SBC   C06A27548   4.735   7.530   4.181
   40SBC   C07327549   4.738   7.650   4.103
   40SBC   C07P27550   4.752   7.641   3.957
   40SBC   C07O27551   4.728   7.520   3.886
   40SBC   H00D27552   4.704   7.432   3.943
   40SBC   C07N27553   4.729   7.521   3.746
   40SBC   H00E27554   4.704   7.435   3.685
   40SBC   C07M27555   4.763   7.640   3.679
   40SBC   H00F27556   4.758   7.631   3.572
   40SBC   C07L27557   4.789   7.760   3.751
   40SBC   C07Q27558   4.816   7.879   3.686
   40SBC   H00G27559   4.822   7.884   3.578
   40SBC   O00F27560   4.853   7.989   3.756
   40SBC   C07J27561   4.831   7.992   3.888
   40SBC   C07I27562   4.797   7.873   3.959
   40SBC   N00427563   4.780   7.878   4.102
   40SBC   C07R27564   4.797   8.004   4.170
   40SBC   C07T27565   4.829   8.118   4.094
   40SBC   C0FX27566   4.829   8.244   4.154
   40SBC   C0FW27567   4.851   8.366   4.086
   40SBC   C0G027568   4.876   8.353   3.946
   40SBC   C0G227569   4.889   8.468   3.867
   40SBC   H01E27570   4.890   8.457   3.760
   40SBC   C0G327571   4.882   8.596   3.937
   40SBC   H01C27572   4.898   8.679   3.871
   40SBC   C0G427573   4.851   8.602   4.073
   40SBC   H01D27574   4.852   8.700   4.118
   40SBC   O00E27575   4.865   8.231   3.880
   40SBC   C0FV27576   4.833   8.488   4.152
   40SBC   C0FU27577   4.806   8.484   4.295
   40SBC   H01B27578   4.781   8.575   4.349
   40SBC   C0FT27579   4.813   8.362   4.366
   40SBC   C0FS27580   4.787   8.314   4.503
   40SBC   C0BI27581   4.818   8.173   4.509
   40SBC   C0BH27582   4.745   8.113   4.612
   40SBC   C07F27583   4.649   8.006   4.586
   40SBC   C07E27584   4.663   7.902   4.492
   40SBC   C07G27585   4.731   7.899   4.374
   40SBC   C07427586   4.699   7.784   4.310
   40SBC   C06527587   4.573   7.794   4.490
   40SBC   C06427588   4.460   7.804   4.575
   40SBC   C06327589   4.358   7.710   4.581
   40SBC   C07527590   4.258   7.777   4.667
   40SBC   C0AM27591   4.304   7.905   4.716
   40SBC   C0AN27592   4.229   8.002   4.798
   40SBC   C0AO27593   4.099   7.992   4.881
   40SBC   C0B127594   4.039   8.103   4.951
   40SBC   C0B027595   4.093   8.228   4.948
   40SBC   C0AZ27596   4.040   8.341   4.997
   40SBC   C0AY27597   4.109   8.463   4.983
   40SBC   N00727598   4.063   8.579   5.042
   40SBC   C0E227599   4.135   8.701   5.024
   40SBC   C0E127600   4.077   8.819   5.072
   40SBC   C0E427601   4.131   8.940   5.033
   40SBC   C0FF27602   4.078   9.060   5.078
   40SBC   C0FJ27603   4.106   9.196   5.043
   40SBC   C0FK27604   4.114   9.242   4.906
   40SBC   H01627605   4.137   9.169   4.829
   40SBC   C0FL27606   4.064   9.377   4.900
   40SBC   H01727607   4.038   9.444   4.820
   40SBC   C0FM27608   4.013   9.411   5.034
   40SBC   C0FH27609   3.918   9.494   5.101
   40SBC   C0FI27610   3.879   9.404   5.204
   40SBC   C0F327611   3.751   9.394   5.249
   40SBC   C0F227612   3.722   9.277   5.315
   40SBC   C0DW27613   3.789   9.160   5.291
   40SBC   C0FE27614   3.912   9.162   5.228
   40SBC   C0DV27615   3.727   9.037   5.307
   40SBC   C0DX27616   3.785   8.920   5.254
   40SBC   C0DK27617   3.716   8.801   5.281
   40SBC   C0DJ27618   3.591   8.798   5.342
   40SBC   C0DI27619   3.522   8.678   5.358
   40SBC   C0DH27620   3.584   8.560   5.319
   40SBC   C0DG27621   3.710   8.562   5.257
   40SBC   C0BV27622   3.764   8.446   5.201
   40SBC   C0BC27623   3.880   8.447   5.126
   40SBC   C0BA27624   3.693   8.328   5.217
   40SBC   C0B427625   3.744   8.214   5.155
   40SBC   C0B327626   3.865   8.211   5.086
   40SBC   C0B527627   3.672   8.097   5.161
   40SBC   C0BU27628   3.552   8.090   5.235
   40SBC   C0BT27629   3.502   8.199   5.303
   40SBC   C0BS27630   3.392   8.189   5.390
   40SBC   C0CC27631   3.336   8.310   5.429
   40SBC   C0CB27632   3.218   8.314   5.505
   40SBC   C0CH27633   3.144   8.431   5.491
   40SBC   C0DO27634   3.198   8.556   5.463
   40SBC   C0DP27635   3.129   8.677   5.493
   40SBC   C0EA27636   3.000   8.674   5.558
   40SBC   H01227637   2.946   8.582   5.575
   40SBC   O00927638   2.938   8.787   5.596
   40SBC   C0EH27639   2.995   8.907   5.555
   40SBC   C0EG27640   2.928   9.026   5.577
   40SBC   C0EJ27641   2.811   9.063   5.654
   40SBC   H01027642   2.754   9.000   5.721
   40SBC   C0EK27643   2.784   9.208   5.644
   40SBC   H00Z27644   2.702   9.259   5.691
   40SBC   C0EL27645   2.893   9.249   5.562
   40SBC   C0EM27646   2.929   9.383   5.518
   40SBC   C0EW27647   2.865   9.503   5.552
   40SBC   H01327648   2.772   9.500   5.607
   40SBC   C0EX27649   2.921   9.630   5.507
   40SBC   H01427650   2.876   9.725   5.532
   40SBC   C0F127651   3.041   9.632   5.423
   40SBC   C0EU27652   3.107   9.513   5.401
   40SBC   C0ET27653   3.227   9.493   5.331
   40SBC   C0ES27654   3.244   9.354   5.340
   40SBC   C0EE27655   3.136   9.290   5.401
   40SBC   C0ED27656   3.095   9.158   5.454
   40SBC   C0EC27657   3.177   9.041   5.448
   40SBC   C0EB27658   3.312   9.039   5.402
   40SBC   C0EN27659   3.391   9.157   5.374
   40SBC   C0ER27660   3.534   9.146   5.378
   40SBC   C0DS27661   3.392   8.919   5.403
   40SBC   C0DR27662   3.326   8.799   5.418
   40SBC   C0EY27663   3.369   9.298   5.351
   40SBC   C0EZ27664   3.489   9.365   5.318
   40SBC   C0F527665   3.531   9.488   5.256
   40SBC   C0F627666   3.443   9.597   5.243
   40SBC   N00827667   3.504   9.715   5.182
   40SBC   C0F727668   3.628   9.714   5.121
   40SBC   C0FQ27669   3.660   9.827   5.049
   40SBC   H01827670   3.744   9.819   4.982
   40SBC   C0FP27671   3.587   9.939   5.042
   40SBC   H01927672   3.611  10.032   4.992
   40SBC   C0FO27673   3.473   9.941   5.118
   40SBC   H01A27674   3.412  10.029   5.122
   40SBC   C0F827675   3.707   9.600   5.136
   40SBC   C0F927676   3.426   9.832   5.184
   40SBC   C0FA27677   3.305   9.844   5.260
   40SBC   H01527678   3.257   9.940   5.263
   40SBC   C0FB27679   3.238   9.728   5.305
   40SBC   C0FD27680   3.309   9.605   5.286
   40SBC   C0FC27681   3.109   9.745   5.376
   40SBC   O00A27682   3.053   9.856   5.389
   40SBC   C0EV27683   3.051   9.391   5.442
   40SBC   C0EF27684   2.979   9.143   5.531
   40SBC   C0EI27685   3.125   8.915   5.494
   40SBC   C0DQ27686   3.193   8.796   5.465
   40SBC   C0CE27687   3.326   8.556   5.417
   40SBC   H00U27688   3.042   8.430   5.526
   40SBC   C0CA27689   3.175   8.193   5.577
   40SBC   C0C927690   3.235   8.066   5.528
   40SBC   C0C827691   3.207   7.950   5.605
   40SBC   C0C727692   3.211   7.805   5.580
   40SBC   C0C627693   3.176   7.714   5.683
   40SBC   C0C527694   3.126   7.580   5.690
   40SBC   C0CQ27695   3.048   7.550   5.807
   40SBC   C0D127696   2.997   7.657   5.875
   40SBC   C0D827697   2.869   7.633   5.917
   40SBC   C0D727698   2.854   7.487   5.903
   40SBC   C0D627699   2.730   7.419   5.923
   40SBC   C0D527700   2.710   7.279   5.907
   40SBC   C0D427701   2.802   7.181   5.845
   40SBC   C0D327702   2.718   7.079   5.799
   40SBC   C0CX27703   2.789   7.019   5.693
   40SBC   C0CW27704   2.887   7.114   5.645
   40SBC   C0CV27705   2.981   7.113   5.535
   40SBC   C0D227706   2.988   7.012   5.439
   40SBC   C09D27707   2.910   6.890   5.442
   40SBC   C09C27708   2.925   6.796   5.339
   40SBC   C09B27709   2.867   6.670   5.346
   40SBC   C09A27710   2.776   6.640   5.453
   40SBC   C09927711   2.740   6.734   5.539
   40SBC   C09827712   2.701   6.667   5.667
   40SBC   C08Y27713   2.738   6.528   5.660
   40SBC   C08X27714   2.753   6.428   5.759
   40SBC   C08W27715   2.749   6.465   5.903
   40SBC   C08U27716   2.746   6.600   5.962
   40SBC   C08V27717   2.749   6.728   5.907
   40SBC   C0DC27718   2.739   6.824   6.014
   40SBC   H00W27719   2.742   6.930   5.995
   40SBC   C0DB27720   2.732   6.758   6.143
   40SBC   H00X27721   2.731   6.795   6.244
   40SBC   C08T27722   2.743   6.619   6.105
   40SBC   C08S27723   2.746   6.514   6.184
   40SBC   H00N27724   2.721   6.532   6.288
   40SBC   C08R27725   2.750   6.382   6.132
   40SBC   C08Q27726   2.741   6.268   6.215
   40SBC   H00O27727   2.723   6.282   6.321
   40SBC   C08P27728   2.760   6.131   6.175
   40SBC   C08O27729   2.757   6.018   6.260
   40SBC   H00P27730   2.753   6.042   6.365
   40SBC   C08N27731   2.770   5.887   6.215
   40SBC   C08M27732   2.769   5.777   6.301
   40SBC   O00827733   2.755   5.786   6.420
   40SBC   O00727734   2.787   5.654   6.243
   40SBC   C08H27735   2.813   5.635   6.112
   40SBC   C08G27736   2.846   5.503   6.059
   40SBC   C03V27737   2.823   5.377   6.120
   40SBC   H00927738   2.797   5.382   6.225
   40SBC   C03U27739   2.853   5.254   6.052
   40SBC   C03W27740   2.839   5.122   6.099
   40SBC   H00A27741   2.807   5.112   6.202
   40SBC   C03X27742   2.868   5.013   6.028
   40SBC   H00B27743   2.868   4.918   6.079
   40SBC   O00527744   2.895   5.016   5.897
   40SBC   C03O27745   2.906   5.138   5.842
   40SBC   C03N27746   2.962   5.145   5.711
   40SBC   O00027747   3.014   5.031   5.656
   40SBC   C01927748   3.092   5.042   5.548
   40SBC   C01827749   3.126   5.166   5.488
   40SBC   C01727750   3.063   5.282   5.539
   40SBC   C01627751   3.079   5.401   5.468
   40SBC   C01527752   3.165   5.398   5.359
   40SBC   C01427753   3.179   5.511   5.280
   40SBC   C01327754   3.111   5.632   5.312
   40SBC   C01227755   3.152   5.722   5.204
   40SBC   C01127756   3.221   5.638   5.115
   40SBC   C01027757   3.230   5.683   4.988
   40SBC   C00Z27758   3.321   5.623   4.898
   40SBC   C00Y27759   3.366   5.734   4.820
   40SBC   C01O27760   3.304   5.855   4.855
   40SBC   C01P27761   3.361   5.980   4.836
   40SBC   C02L27762   3.309   6.081   4.903
   40SBC   C02K27763   3.215   6.049   5.007
   40SBC   C01M27764   3.185   5.916   5.058
   40SBC   C02J27765   3.160   6.159   5.071
   40SBC   C02I27766   3.064   6.163   5.169
   40SBC   C02H27767   3.005   6.064   5.246
   40SBC   C01Q27768   3.034   5.926   5.255
   40SBC   C02G27769   2.961   5.875   5.365
   40SBC   C08927770   2.866   5.971   5.407
   40SBC   C08827771   2.851   5.961   5.545
   40SBC   C08727772   2.904   5.827   5.568
   40SBC   C08627773   2.897   5.763   5.690
   40SBC   C03S27774   2.925   5.623   5.721
   40SBC   N00627775   2.878   5.604   5.852
   40SBC   C08F27776   2.848   5.723   5.902
   40SBC   C01J27777   2.966   5.512   5.650
   40SBC   C03R27778   2.952   5.389   5.716
   40SBC   C03Q27779   2.910   5.379   5.852
   40SBC   C08E27780   2.858   5.826   5.814
   40SBC   C08D27781   2.817   5.956   5.852
   40SBC   C08K27782   2.797   5.983   5.990
   40SBC   C08C27783   2.816   6.066   5.771
   40SBC   C09127784   2.783   6.191   5.824
   40SBC   C09227785   2.774   6.223   5.958
   40SBC   C08B27786   2.825   6.076   5.630
   40SBC   C09027787   2.799   6.222   5.595
   40SBC   C09427788   2.787   6.274   5.464
   40SBC   C09527789   2.795   6.409   5.439
   40SBC   C09R27790   2.865   6.433   5.319
   40SBC   C09727791   2.919   6.318   5.278
   40SBC   C09627792   2.863   6.223   5.359
   40SBC   C01I27793   2.964   5.764   5.451
   40SBC   C08A27794   2.908   6.091   5.340
   40SBC   C09L27795   3.017   6.290   5.180
   40SBC   C09K27796   3.101   6.371   5.097
   40SBC   C09J27797   3.076   6.507   5.066
   40SBC   C09I27798   3.179   6.592   5.015
   40SBC   C09O27799   3.306   6.575   4.946
   40SBC   C09N27800   3.353   6.452   4.901
   40SBC   C09M27801   3.306   6.320   4.928
   40SBC   C06O27802   3.470   6.461   4.818
   40SBC   C05M27803   3.536   6.583   4.789
   40SBC   C06P27804   3.489   6.701   4.845
   40SBC   C04227805   3.661   6.589   4.725
   40SBC   C04127806   3.713   6.469   4.678
   40SBC   C04027807   3.829   6.468   4.601
   40SBC   C03Z27808   3.889   6.354   4.556
   40SBC   C03Y27809   3.832   6.233   4.579
   40SBC   C02727810   3.895   6.112   4.546
   40SBC   C02627811   3.830   5.994   4.564
   40SBC   C02827812   3.895   5.877   4.537
   40SBC   C02927813   4.022   5.871   4.480
   40SBC   C02B27814   4.092   5.753   4.450
   40SBC   C02C27815   4.225   5.760   4.415
   40SBC   C02X27816   4.295   5.642   4.409
   40SBC   C03E27817   4.422   5.652   4.376
   40SBC   C03G27818   4.498   5.761   4.366
   40SBC   C04Q27819   4.433   5.881   4.383
   40SBC   C04R27820   4.497   6.003   4.377
   40SBC   C04S27821   4.427   6.121   4.398
   40SBC   C04L27822   4.291   6.120   4.423
   40SBC   C04M27823   4.223   5.997   4.422
   40SBC   C04K27824   4.224   6.238   4.447
   40SBC   C04F27825   4.288   6.359   4.433
   40SBC   C04E27826   4.424   6.363   4.400
   40SBC   C04D27827   4.489   6.485   4.374
   40SBC   C05027828   4.621   6.487   4.353
   40SBC   C05127829   4.682   6.612   4.326
   40SBC   C05Q27830   4.819   6.616   4.301
   40SBC   C05V27831   4.874   6.739   4.270
   40SBC   N00527832   5.012   6.738   4.242
   40SBC   C07V27833   5.087   6.623   4.252
   40SBC   C08227834   5.226   6.625   4.219
   40SBC   C08127835   5.287   6.736   4.164
   40SBC   C07C27836   5.213   6.848   4.158
   40SBC   C07B27837   5.274   6.968   4.108
   40SBC   C08027838   5.407   6.973   4.067
   40SBC   C07Z27839   5.465   7.097   4.032
   40SBC   H00L27840   5.570   7.103   4.010
   40SBC   C07927841   5.394   7.216   4.023
   40SBC   C07827842   5.255   7.209   4.055
   40SBC   C07727843   5.174   7.326   4.042
   40SBC   C07X27844   5.234   7.453   4.002
   40SBC   H00I27845   5.172   7.541   4.004
   40SBC   C07Y27846   5.372   7.456   3.969
   40SBC   H00H27847   5.423   7.544   3.932
   40SBC   C07627848   5.048   7.322   4.096
   40SBC   C06C27849   4.960   7.436   4.095
   40SBC   H00C27850   4.981   7.529   4.046
   40SBC   C06F27851   4.997   7.205   4.163
   40SBC   C06E27852   4.868   7.207   4.228
   40SBC   C06G27853   4.800   7.097   4.270
   40SBC   C06H27854   4.867   6.977   4.249
   40SBC   C06I27855   5.004   6.974   4.208
   40SBC   C06L27856   4.667   7.104   4.314
   40SBC   C06M27857   4.594   7.228   4.326
   40SBC   C06K27858   4.602   6.980   4.328
   40SBC   C05S27859   4.668   6.857   4.312
   40SBC   C05U27860   4.464   6.980   4.362
   40SBC   C05X27861   4.391   7.103   4.395
   40SBC   C05G27862   4.256   7.070   4.427
   40SBC   C05F27863   4.201   6.943   4.437
   40SBC   C05E27864   4.078   6.940   4.493
   40SBC   C04827865   4.014   6.823   4.517
   40SBC   C05627866   3.899   6.828   4.584
   40SBC   C04527867   3.835   6.709   4.619
   40SBC   C04727868   4.079   6.704   4.488
   40SBC   C04927869   4.204   6.711   4.429
   40SBC   C04B27870   4.278   6.595   4.416
   40SBC   C04627871   4.018   6.587   4.518
   40SBC   C04H27872   4.083   6.468   4.490
   40SBC   C05D27873   4.036   7.064   4.539
   40SBC   C04A27874   4.273   6.828   4.414
   40SBC   C05T27875   4.405   6.847   4.380
   40SBC   C05527876   4.475   6.728   4.362
   40SBC   C06D27877   4.797   7.322   4.230
   40SBC   C07W27878   5.069   7.085   4.158
   40SBC   C08527879   5.449   7.338   3.989
   40SBC   H00M27880   5.552   7.340   3.958
   40SBC   C08427881   5.480   6.853   4.083
   40SBC   H00J27882   5.578   6.845   4.040
   40SBC   C07A27883   5.202   7.087   4.107
   40SBC   C08327884   5.425   6.737   4.128
   40SBC   H00K27885   5.483   6.646   4.139
   40SBC   O00K27886   5.297   6.504   4.222
   40SBC   C0GO27887   5.237   6.392   4.268
   40SBC   C0GN27888   5.317   6.282   4.257
   40SBC   H01L27889   5.422   6.302   4.242
   40SBC   C0GM27890   5.257   6.151   4.289
   40SBC   C0GL27891   5.330   6.041   4.292
   40SBC   H01M27892   5.437   6.050   4.281
   40SBC   O00J27893   5.276   5.921   4.322
   40SBC   C0GK27894   5.138   5.912   4.335
   40SBC   H01N27895   5.102   5.814   4.364
   40SBC   C05K27896   5.057   6.024   4.331
   40SBC   C05J27897   4.917   6.010   4.339
   40SBC   C04Y27898   4.844   5.889   4.334
   40SBC   C04X27899   4.703   5.882   4.342
   40SBC   O00627900   4.905   5.771   4.309
   40SBC   C05327901   4.853   5.644   4.346
   40SBC   C04O27902   4.713   5.638   4.345
   40SBC   C03C27903   4.633   5.521   4.358
   40SBC   C03B27904   4.656   5.382   4.378
   40SBC   C05427905   4.777   5.331   4.407
   40SBC   C0GR27906   4.800   5.192   4.447
   40SBC   C03M27907   4.719   5.073   4.482
   40SBC   C03I27908   4.579   5.072   4.500
   40SBC   C03J27909   4.516   4.952   4.541
   40SBC   N00227910   4.377   4.950   4.577
   40SBC   C02U27911   4.315   4.835   4.630
   40SBC   C02T27912   4.180   4.835   4.669
   40SBC   C02Z27913   4.124   4.714   4.717
   40SBC   N00127914   3.982   4.710   4.752
   40SBC   C02R27915   3.923   4.585   4.799
   40SBC   C03227916   4.001   4.469   4.806
   40SBC   C03127917   4.140   4.480   4.769
   40SBC   H00727918   4.188   4.384   4.751
   40SBC   C03327919   3.925   4.349   4.839
   40SBC   H00327920   3.972   4.252   4.848
   40SBC   O00427921   3.793   4.344   4.871
   40SBC   C03427922   3.725   4.463   4.868
   40SBC   C03527923   3.593   4.453   4.897
   40SBC   C03627924   3.511   4.567   4.899
   40SBC   H00527925   3.404   4.551   4.905
   40SBC   C03727926   3.572   4.688   4.865
   40SBC   H00627927   3.498   4.766   4.855
   40SBC   C00D27928   3.711   4.705   4.832
   40SBC   C00C27929   3.768   4.822   4.795
   40SBC   C00B27930   3.703   4.952   4.805
   40SBC   C00A27931   3.576   5.020   4.855
   40SBC   C00927932   3.585   5.155   4.798
   40SBC   C00827933   3.524   5.274   4.836
   40SBC   C00727934   3.441   5.271   4.948
   40SBC   C00627935   3.372   5.386   4.977
   40SBC   C00527936   3.298   5.390   5.097
   40SBC   C00427937   3.298   5.279   5.183
   40SBC   C00327938   3.365   5.155   5.147
   40SBC   C00227939   3.347   5.041   5.223
   40SBC   C01C27940   3.255   5.042   5.323
   40SBC   C01B27941   3.213   4.921   5.380
   40SBC   H00027942   3.240   4.821   5.349
   40SBC   C00127943   3.420   4.928   5.186
   40SBC   C00027944   3.507   4.931   5.077
   40SBC   C01U27945   3.608   4.836   5.108
   40SBC   H00227946   3.704   4.819   5.062
   40SBC   C01T27947   3.565   4.765   5.227
   40SBC   O00227948   3.616   4.670   5.286
   40SBC   O00127949   3.454   4.823   5.276
   40SBC   C01S27950   3.443   5.156   5.030
   40SBC   C00N27951   3.561   5.391   4.765
   40SBC   C00M27952   3.672   5.397   4.682
   40SBC   C00J27953   3.745   5.285   4.664
   40SBC   C00I27954   3.872   5.280   4.615
   40SBC   C00H27955   3.947   5.167   4.624
   40SBC   C00G27956   3.899   5.053   4.682
   40SBC   C00F27957   3.966   4.937   4.696
   40SBC   C01X27958   4.085   5.173   4.593
   40SBC   C01W27959   4.138   5.289   4.539
   40SBC   C01V27960   4.057   5.402   4.530
   40SBC   C02027961   4.107   5.522   4.491
   40SBC   C01Z27962   4.268   5.287   4.496
   40SBC   C02Y27963   4.312   5.406   4.452
   40SBC   C03927964   4.440   5.411   4.397
   40SBC   C02W27965   4.353   5.175   4.506
   40SBC   C01Y27966   4.159   5.059   4.603
   40SBC   C00U27967   3.925   5.397   4.569
   40SBC   C00S27968   3.847   5.515   4.569
   40SBC   C00T27969   3.899   5.634   4.531
   40SBC   C00R27970   3.725   5.512   4.632
   40SBC   C00Q27971   3.655   5.631   4.657
   40SBC   C00V27972   3.703   5.753   4.616
   40SBC   C02427973   3.642   5.870   4.648
   40SBC   C00X27974   3.525   5.862   4.715
   40SBC   C00P27975   3.538   5.619   4.728
   40SBC   C00O27976   3.491   5.503   4.788
   40SBC   C00K27977   3.693   5.167   4.719
   40SBC   N00027978   3.517   5.032   4.987
   40SBC   C00L27979   3.764   5.049   4.723
   40SBC   H00427980   3.544   4.361   4.924
   40SBC   C02Q27981   3.788   4.586   4.831
   40SBC   C00E27982   3.908   4.826   4.753
   40SBC   C03027983   4.200   4.596   4.723
   40SBC   O00327984   4.328   4.598   4.675
   40SBC   C02S27985   4.103   4.944   4.659
   40SBC   C03827986   4.387   4.716   4.633
   40SBC   C03L27987   4.523   4.720   4.599
   40SBC   H00827988   4.572   4.627   4.626
   40SBC   C02V27989   4.296   5.061   4.564
   40SBC   C03K27990   4.592   4.832   4.560
   40SBC   C0BK27991   4.729   4.839   4.544
   40SBC   H00T27992   4.794   4.756   4.567
   40SBC   C03H27993   4.491   5.181   4.476
   40SBC   C0BL27994   4.800   4.954   4.508
   40SBC   C0GU27995   4.940   4.952   4.498
   40SBC   H01O27996   5.001   4.865   4.520
   40SBC   C0GT27997   5.012   5.063   4.474
   40SBC   H01P27998   5.119   5.069   4.483
   40SBC   C0GS27999   4.944   5.177   4.454
   40SBC   C0GV28000   5.001   5.304   4.425
   40SBC   C0GW28001   5.139   5.338   4.407
   40SBC   H01Q28002   5.207   5.257   4.429
   40SBC   C0GX28003   5.170   5.468   4.367
   40SBC   H01R28004   5.276   5.489   4.359
   40SBC   O00L28005   5.073   5.566   4.344
   40SBC   C0GQ28006   4.901   5.402   4.398
   40SBC   C03A28007   4.537   5.312   4.419
   40SBC   C05L28008   4.939   5.534   4.366
   40SBC   C04W28009   4.843   6.128   4.332
   40SBC   C05I28010   4.902   6.253   4.323
   40SBC   C05O28011   5.035   6.264   4.303
   40SBC   C05228012   4.827   6.372   4.315
   40SBC   C04V28013   4.706   6.124   4.348
   40SBC   C04U28014   4.630   6.243   4.351
   40SBC   N00928015   5.116   6.146   4.303
   40SBC   C0GP28016   5.098   6.388   4.283
   40SBC   C05W28017   5.023   6.503   4.278
   40SBC   C07D28018   5.076   6.852   4.199
   40SBC   C06J28019   4.803   6.857   4.274
   40SBC   C05P28020   4.888   6.498   4.298
   40SBC   C05R28021   4.608   6.731   4.332
   40SBC   C04Z28022   4.692   6.367   4.333
   40SBC   C04C28023   4.412   6.601   4.378
   40SBC   C04G28024   4.215   6.477   4.449
   40SBC   C04J28025   4.091   6.231   4.482
   40SBC   C04T28026   4.497   6.242   4.394
   40SBC   N00328027   4.635   6.001   4.355
   40SBC   C04P28028   4.638   5.757   4.342
   40SBC   C03D28029   4.492   5.531   4.354
   40SBC   C02128030   4.237   5.521   4.446
   40SBC   C03F28031   4.292   5.883   4.402
   40SBC   C02228032   4.030   5.636   4.485
   40SBC   C02A28033   4.091   5.992   4.465
   40SBC   C02328034   3.829   5.754   4.550
   40SBC   C02528035   3.704   5.988   4.620
   40SBC   C02D28036   3.650   6.107   4.667
   40SBC   C02E28037   3.527   6.104   4.728
   40SBC   C02N28038   3.470   6.218   4.788
   40SBC   C04N28039   4.027   6.106   4.499
   40SBC   C02P28040   3.712   6.230   4.651
   40SBC   C04I28041   4.022   6.347   4.514
   40SBC   C04428042   3.892   6.589   4.576
   40SBC   C04328043   3.653   6.344   4.699
   40SBC   C05N28044   3.525   6.343   4.765
   40SBC   C09U28045   3.376   6.696   4.922
   40SBC   C09V28046   3.339   6.820   4.983
   40SBC   C09X28047   3.229   6.832   5.059
   40SBC   C09Y28048   3.197   6.934   5.143
   40SBC   C0A128049   3.281   7.043   5.138
   40SBC   C0A228050   3.386   7.049   5.043
   40SBC   C0A428051   3.456   7.163   5.029
   40SBC   C07128052   3.565   7.168   4.940
   40SBC   C0A528053   3.629   7.283   4.917
   40SBC   C0A928054   3.594   7.399   4.988
   40SBC   C0A828055   3.486   7.392   5.077
   40SBC   C0AP28056   3.442   7.505   5.135
   40SBC   C0BY28057   3.346   7.493   5.233
   40SBC   C0BX28058   3.292   7.377   5.282
   40SBC   C0C228059   3.203   7.376   5.387
   40SBC   C0C328060   3.137   7.252   5.412
   40SBC   C0CT28061   3.158   7.144   5.325
   40SBC   C0C128062   3.181   7.491   5.470
   40SBC   C0C028063   3.242   7.616   5.421
   40SBC   C0A728064   3.318   7.268   5.199
   40SBC   C0BZ28065   3.310   7.612   5.302
   40SBC   C0BO28066   3.353   7.736   5.256
   40SBC   C0BN28067   3.458   7.749   5.170
   40SBC   C0BM28068   3.529   7.864   5.171
   40SBC   C0B928069   3.652   7.866   5.102
   40SBC   C0B828070   3.693   7.752   5.038
   40SBC   C0AD28071   3.619   7.634   5.041
   40SBC   C0AF28072   3.809   7.758   4.965
   40SBC   C0AG28073   3.891   7.872   4.961
   40SBC   C0B728074   3.845   7.982   5.031
   40SBC   C0AE28075   3.841   7.641   4.899
   40SBC   C0AB28076   3.768   7.528   4.894
   40SBC   C0AA28077   3.804   7.418   4.826
   40SBC   C0AJ28078   3.953   7.652   4.818
   40SBC   C0AK28079   3.988   7.540   4.749
   40SBC   C06W28080   4.087   7.585   4.675
   40SBC   C0AI28081   4.041   7.765   4.806
   40SBC   C0BP28082   3.322   7.827   5.355
   40SBC   C0BQ28083   3.375   7.961   5.338
   40SBC   C0BW28084   3.501   7.632   5.110
   40SBC   C0AC28085   3.663   7.520   4.979
   40SBC   C0A628086   3.414   7.273   5.097
   40SBC   C0A328087   3.248   7.154   5.221
   40SBC   C09Z28088   3.094   6.929   5.237
   40SBC   C09W28089   3.417   6.936   4.972
   40SBC   C07228090   3.525   6.938   4.887
   40SBC   C09H28091   3.142   6.725   5.062
   40SBC   C09G28092   3.033   6.724   5.150
   40SBC   C09P28093   2.998   6.589   5.164
   40SBC   C02O28094   3.192   6.294   5.025
   40SBC   C02M28095   3.361   6.208   4.874
   40SBC   C02F28096   3.466   5.981   4.754
   40SBC   C00W28097   3.476   5.740   4.750
   40SBC   C01R28098   3.391   5.497   4.888
   40SBC   C01N28099   3.224   5.817   4.964
   40SBC   C01L28100   3.121   5.858   5.174
   40SBC   C01H28101   3.027   5.638   5.425
   40SBC   C01K28102   3.242   5.509   5.155
   40SBC   C01E28103   3.223   5.285   5.303
   40SBC   C01G28104   3.019   5.521   5.520
   40SBC   C01D28105   3.199   5.164   5.366
   40SBC   C01A28106   3.130   4.923   5.493
   40SBC   H00128107   3.103   4.830   5.541
   40SBC   C01F28108   2.990   5.273   5.654
   40SBC   C03P28109   2.888   5.259   5.915
   40SBC   C03T28110   2.878   5.492   5.924
   40SBC   C08I28111   2.818   5.744   6.034
   40SBC   C08J28112   2.794   5.871   6.078
   40SBC   C08L28113   2.775   6.116   6.041
   40SBC   C09328114   2.758   6.358   5.995
   40SBC   C08Z28115   2.772   6.293   5.722
   40SBC   C09T28116   2.733   6.764   5.763
   40SBC   C09S28117   2.764   6.518   5.519
   40SBC   C09Q28118   2.908   6.559   5.268
   40SBC   C09F28119   3.006   6.823   5.242
   40SBC   C09E28120   2.822   6.843   5.549
   40SBC   C0A028121   3.079   7.029   5.335
   40SBC   C0CU28122   3.050   7.240   5.521
   40SBC   C0CR28123   3.046   7.356   5.612
   40SBC   C0CZ28124   2.972   7.337   5.729
   40SBC   C0DA28125   2.798   6.877   5.683
   40SBC   C0D928126   2.578   7.132   5.791
   40SBC   H00V28127   2.493   7.100   5.732
   40SBC   C0CY28128   2.896   7.218   5.742
   40SBC   C0DF28129   2.581   7.244   5.878
   40SBC   C0DE28130   2.506   7.373   5.897
   40SBC   C0GI28131   2.364   7.397   5.894
   40SBC   H01K28132   2.307   7.311   5.862
   40SBC   C0GJ28133   2.325   7.521   5.928
   40SBC   H01J28134   2.221   7.548   5.936
   40SBC   O00I28135   2.418   7.623   5.962
   40SBC   C0GH28136   2.556   7.611   5.949
   40SBC   C0GG28137   2.634   7.726   5.973
   40SBC   O00G28138   2.565   7.830   6.018
   40SBC   C0G828139   2.617   7.955   6.008
   40SBC   C0G928140   2.524   8.052   6.043
   40SBC   H01G28141   2.430   8.026   6.089
   40SBC   C0GA28142   2.562   8.185   6.024
   40SBC   H01H28143   2.488   8.262   6.041
   40SBC   C0GB28144   2.683   8.230   5.963
   40SBC   C0EP28145   2.765   8.127   5.910
   40SBC   C0E828146   2.875   8.173   5.823
   40SBC   C0CK28147   2.975   8.113   5.747
   40SBC   C0CL28148   3.019   7.983   5.771
   40SBC   C0E928149   2.959   7.884   5.855
   40SBC   C0GE28150   2.822   7.869   5.916
   40SBC   C0E728151   2.914   8.309   5.818
   40SBC   C0CJ28152   3.039   8.342   5.756
   40SBC   C0E628153   3.094   8.467   5.774
   40SBC   H00Y28154   3.189   8.494   5.732
   40SBC   C0EO28155   3.009   8.568   5.832
   40SBC   H01128156   3.046   8.669   5.830
   40SBC   C0G628157   2.881   8.538   5.883
   40SBC   C0G528158   2.777   8.632   5.933
   40SBC   H01F28159   2.794   8.739   5.926
   40SBC   C0GD28160   2.661   8.596   5.990
   40SBC   H01I28161   2.592   8.674   6.018
   40SBC   O00H28162   2.626   8.463   6.000
   40SBC   C0EQ28163   2.834   8.401   5.886
   40SBC   C0GC28164   2.712   8.368   5.948
   40SBC   C0G728165   2.740   7.987   5.944
   40SBC   C0DD28166   2.599   7.480   5.922
   40SBC   C0GF28167   2.774   7.737   5.944
   40SBC   C0CO28168   3.045   7.779   5.856
   40SBC   C0D028169   2.966   7.447   5.816
   40SBC   C0C428170   3.112   7.480   5.585
   40SBC   C0CN28171   3.166   7.810   5.788
   40SBC   C0CP28172   3.240   7.755   5.450
   40SBC   C0CM28173   3.159   7.945   5.744
   40SBC   C0CI28174   3.065   8.216   5.683
   40SBC   C0CD28175   3.393   8.436   5.392
   40SBC   C0BR28176   3.328   8.068   5.414
   40SBC   C0CS28177   3.486   7.968   5.249
   40SBC   C0B628178   3.724   7.982   5.101
   40SBC   C0CG28179   3.574   8.320   5.291
   40SBC   C0CF28180   3.514   8.440   5.332
   40SBC   C0E528181   3.391   8.677   5.399
   40SBC   C0DT28182   3.528   8.916   5.368
   40SBC   C0DL28183   3.774   8.683   5.240
   40SBC   C0DM28184   3.893   8.690   5.168
   40SBC   C0DY28185   3.905   8.931   5.191
   40SBC   C0DU28186   3.601   9.030   5.356
   40SBC   C0F028187   3.588   9.270   5.338
   40SBC   C0F428188   3.662   9.498   5.218
   40SBC   C0FG28189   3.963   9.289   5.205
   40SBC   O00B28190   3.835   9.599   5.065
   40SBC   C0FN28191   4.064   9.307   5.114
   40SBC   C0DZ28192   3.972   9.052   5.173
   40SBC   O00C28193   4.253   8.941   4.970
   40SBC   C0FR28194   4.304   8.839   4.908
   40SBC   O00D28195   4.404   8.862   4.836
   40SBC   C0E028196   3.958   8.812   5.145
   40SBC   C0E328197   4.249   8.709   4.944
   40SBC   C0AW28198   4.307   8.590   4.904
   40SBC   C0AV28199   4.446   8.574   4.857
   40SBC   H00Q28200   4.514   8.657   4.844
   40SBC   C0AU28201   4.497   8.448   4.829
   40SBC   H00R28202   4.597   8.440   4.790
   40SBC   C0AT28203   4.412   8.339   4.826
   40SBC   C0AS28204   4.413   8.202   4.781
   40SBC   C0AR28205   4.522   8.146   4.702
   40SBC   C0BE28206   4.289   8.351   4.888
   40SBC   C0DN28207   3.942   8.572   5.112
   40SBC   C0AX28208   4.236   8.473   4.933
   40SBC   C0BB28209   3.924   8.335   5.068
   40SBC   C0BD28210   4.218   8.233   4.888
   40SBC   C0B228211   3.918   8.095   5.025
   40SBC   C0AH28212   4.019   7.879   4.891
   40SBC   C0BF28213   4.291   8.131   4.820
   40SBC   C0AL28214   4.136   7.717   4.710
   40SBC   C07U28215   4.432   7.917   4.653
   40SBC   C0AQ28216   4.530   8.016   4.655
   40SBC   C0BG28217   4.656   8.214   4.668
   40SBC   C0FY28218   4.827   8.125   4.375
   40SBC   C0BJ28219   4.662   8.330   4.577
   40SBC   H00S28220   4.592   8.411   4.560
   40SBC   C0FZ28221   4.837   8.243   4.295
   40SBC   C07S28222   4.796   8.004   4.313
   40SBC   C0G128223   4.844   8.116   3.953
   40SBC   C07K28224   4.776   7.755   3.887
   40SBC   C07H28225   4.742   7.763   4.177
   40SBC   C06B28226   4.836   7.431   4.154
   40SBC   C06N28227   4.667   7.340   4.276
   40SBC   C06628228   4.608   7.703   4.393
   40SBC   C06228229   4.347   7.577   4.502
   40SBC   C05Y28230   4.460   7.232   4.383
   40SBC   C06128231   4.233   7.500   4.496
   40SBC   C05H28232   4.147   7.147   4.487
   40SBC   C06V28233   4.134   7.485   4.592
   40SBC   C06Y28234   3.913   7.423   4.749
   40SBC   C05C28235   3.914   7.075   4.609
   40SBC   C06Z28236   3.739   7.290   4.835
   40SBC   C07028237   3.603   7.056   4.872
   40SBC   C05B28238   3.851   6.951   4.633
   40SBC   C05728239   3.722   6.707   4.696
   40SBC   C05928240   3.562   6.823   4.825
   41SBC   C05828241   9.638   4.686  15.029
   41SBC   C05A28242   9.681   4.573  15.104
   41SBC   C06Q28243   9.807   4.574  15.165
   41SBC   C06R28244   9.863   4.459  15.229
   41SBC   C06S28245   9.792   4.335  15.225
   41SBC   C06T28246   9.850   4.223  15.293
   41SBC   C06U28247   9.791   4.087  15.319
   41SBC   C06X28248   9.668   4.017  15.290
   41SBC   C06028249   9.659   3.886  15.341
   41SBC   C05Z28250   9.602   3.763  15.289
   41SBC   C06828251   9.700   3.659  15.341
   41SBC   C06728252   9.694   3.510  15.341
   41SBC   C06928253   9.569   3.444  15.302
   41SBC   C06A28254   9.539   3.301  15.306
   41SBC   C07328255   9.614   3.198  15.252
   41SBC   C07P28256   9.563   3.128  15.137
   41SBC   C07O28257   9.455   3.160  15.052
   41SBC   H00D28258   9.409   3.258  15.062
   41SBC   C07N28259   9.401   3.072  14.961
   41SBC   H00E28260   9.310   3.091  14.905
   41SBC   C07M28261   9.467   2.951  14.937
   41SBC   H00F28262   9.442   2.879  14.860
   41SBC   C07L28263   9.591   2.926  15.000
   41SBC   C07Q28264   9.674   2.815  14.970
   41SBC   H00G28265   9.633   2.746  14.898
   41SBC   O00F28266   9.792   2.787  15.023
   41SBC   C07J28267   9.835   2.864  15.125
   41SBC   C07I28268   9.751   2.980  15.175
   41SBC   N00428269   9.798   3.060  15.278
   41SBC   C07R28270   9.912   3.017  15.351
   41SBC   C07T28271   9.991   2.904  15.302
   41SBC   C0FX28272  10.113   2.872  15.346
   41SBC   C0FW28273  10.207   2.794  15.282
   41SBC   C0G028274  10.160   2.723  15.169
   41SBC   C0G228275  10.248   2.641  15.105
   41SBC   H01E28276  10.228   2.578  15.020
   41SBC   C0G328277  10.380   2.635  15.148
   41SBC   H01C28278  10.451   2.569  15.100
   41SBC   C0G428279  10.433   2.708  15.254
   41SBC   H01D28280  10.537   2.695  15.279
   41SBC   O00E28281  10.033   2.738  15.121
   41SBC   C0FV28282  10.347   2.791  15.325
   41SBC   C0FU28283  10.379   2.872  15.440
   41SBC   H01B28284  10.480   2.884  15.476
   41SBC   C0FT28285  10.282   2.938  15.513
   41SBC   C0FS28286  10.284   3.053  15.601
   41SBC   C0BI28287  10.150   3.090  15.635
   41SBC   C0BH28288  10.150   3.220  15.683
   41SBC   C07F28289  10.094   3.325  15.605
   41SBC   C07E28290   9.974   3.328  15.529
   41SBC   C07G28291   9.908   3.219  15.476
   41SBC   C07428292   9.803   3.269  15.398
   41SBC   C06528293   9.916   3.443  15.475
   41SBC   C06428294   9.986   3.560  15.488
   41SBC   C06328295   9.962   3.686  15.438
   41SBC   C07528296  10.078   3.763  15.488
   41SBC   C0AM28297  10.182   3.689  15.554
   41SBC   C0AN28298  10.320   3.732  15.600
   41SBC   C0AO28299  10.395   3.857  15.574
   41SBC   C0B128300  10.536   3.862  15.595
   41SBC   C0B028301  10.606   3.763  15.654
   41SBC   C0AZ28302  10.743   3.754  15.673
   41SBC   C0AY28303  10.798   3.649  15.746
   41SBC   N00728304  10.937   3.632  15.741
   41SBC   C0E228305  10.993   3.512  15.772
   41SBC   C0E128306  11.129   3.495  15.758
   41SBC   C0E428307  11.178   3.365  15.770
   41SBC   C0FF28308  11.314   3.334  15.743
   41SBC   C0FJ28309  11.379   3.203  15.716
   41SBC   C0FK28310  11.314   3.101  15.638
   41SBC   H01628311  11.206   3.091  15.627
   41SBC   C0FL28312  11.422   3.032  15.561
   41SBC   H01728313  11.413   2.959  15.482
   41SBC   C0FM28314  11.549   3.100  15.594
   41SBC   C0FH28315  11.672   3.142  15.531
   41SBC   C0FI28316  11.697   3.270  15.595
   41SBC   C0F328317  11.757   3.363  15.510
   41SBC   C0F228318  11.726   3.488  15.552
   41SBC   C0DW28319  11.609   3.527  15.628
   41SBC   C0FE28320  11.537   3.429  15.695
   41SBC   C0DV28321  11.559   3.655  15.614
   41SBC   C0DX28322  11.428   3.682  15.657
   41SBC   C0DK28323  11.369   3.801  15.620
   41SBC   C0DJ28324  11.445   3.898  15.550
   41SBC   C0DI28325  11.391   4.018  15.510
   41SBC   C0DH28326  11.257   4.038  15.539
   41SBC   C0DG28327  11.178   3.943  15.600
   41SBC   C0BV28328  11.038   3.961  15.599
   41SBC   C0BC28329  10.958   3.854  15.644
   41SBC   C0BA28330  10.982   4.072  15.550
   41SBC   C0B428331  10.841   4.080  15.546
   41SBC   C0B328332  10.757   3.967  15.572
   41SBC   C0B528333  10.778   4.197  15.511
   41SBC   C0BU28334  10.859   4.310  15.487
   41SBC   C0BT28335  11.001   4.299  15.483
   41SBC   C0BS28336  11.085   4.410  15.455
   41SBC   C0CC28337  11.224   4.391  15.435
   41SBC   C0CB28338  11.305   4.495  15.402
   41SBC   C0CH28339  11.421   4.458  15.331
   41SBC   C0DO28340  11.486   4.336  15.355
   41SBC   C0DP28341  11.620   4.309  15.319
   41SBC   C0EA28342  11.707   4.415  15.259
   41SBC   H01228343  11.680   4.518  15.242
   41SBC   O00928344  11.828   4.383  15.210
   41SBC   C0EH28345  11.872   4.251  15.217
   41SBC   C0EG28346  11.985   4.220  15.137
   41SBC   C0EJ28347  12.074   4.296  15.045
   41SBC   H01028348  12.075   4.403  15.030
   41SBC   C0EK28349  12.163   4.201  14.986
   41SBC   H00Z28350  12.236   4.216  14.908
   41SBC   C0EL28351  12.118   4.073  15.036
   41SBC   C0EM28352  12.155   3.942  14.998
   41SBC   C0EW28353  12.249   3.900  14.903
   41SBC   H01328354  12.304   3.975  14.848
   41SBC   C0EX28355  12.271   3.759  14.876
   41SBC   H01428356  12.339   3.728  14.798
   41SBC   C0F128357  12.204   3.661  14.953
   41SBC   C0EU28358  12.109   3.705  15.041
   41SBC   C0ET28359  12.029   3.625  15.126
   41SBC   C0ES28360  11.955   3.714  15.199
   41SBC   C0EE28361  11.988   3.841  15.165
   41SBC   C0ED28362  11.950   3.977  15.192
   41SBC   C0EC28363  11.839   4.008  15.278
   41SBC   C0EB28364  11.762   3.919  15.362
   41SBC   C0EN28365  11.811   3.787  15.385
   41SBC   C0ER28366  11.747   3.719  15.485
   41SBC   C0DS28367  11.644   3.956  15.421
   41SBC   C0DR28368  11.591   4.081  15.397
   41SBC   C0EY28369  11.901   3.692  15.323
   41SBC   C0EZ28370  11.887   3.563  15.376
   41SBC   C0F528371  11.896   3.425  15.322
   41SBC   C0F628372  11.975   3.396  15.211
   41SBC   N00828373  11.967   3.254  15.173
   41SBC   C0F728374  11.877   3.162  15.235
   41SBC   C0FQ28375  11.869   3.035  15.180
   41SBC   H01828376  11.810   2.961  15.233
   41SBC   C0FP28377  11.952   2.990  15.083
   41SBC   H01928378  11.946   2.885  15.056
   41SBC   C0FO28379  12.040   3.079  15.028
   41SBC   H01A28380  12.099   3.029  14.953
   41SBC   C0F828381  11.812   3.202  15.355
   41SBC   C0F928382  12.049   3.214  15.063
   41SBC   C0FA28383  12.133   3.298  14.985
   41SBC   H01528384  12.207   3.258  14.916
   41SBC   C0FB28385  12.130   3.436  15.019
   41SBC   C0FD28386  12.048   3.484  15.124
   41SBC   C0FC28387  12.218   3.517  14.936
   41SBC   O00A28388  12.291   3.465  14.849
   41SBC   C0EV28389  12.088   3.838  15.066
   41SBC   C0EF28390  12.010   4.086  15.119
   41SBC   C0EI28391  11.797   4.145  15.279
   41SBC   C0DQ28392  11.671   4.179  15.336
   41SBC   C0CE28393  11.412   4.240  15.420
   41SBC   H00U28394  11.465   4.532  15.266
   41SBC   C0CA28395  11.262   4.629  15.419
   41SBC   C0C928396  11.124   4.659  15.421
   41SBC   C0C828397  11.082   4.799  15.414
   41SBC   C0C728398  10.953   4.869  15.391
   41SBC   C0C628399  10.964   5.013  15.376
   41SBC   C0C528400  10.894   5.123  15.316
   41SBC   C0CQ28401  10.976   5.233  15.268
   41SBC   C0D128402  11.114   5.225  15.270
   41SBC   C0D828403  11.173   5.287  15.165
   41SBC   C0D728404  11.071   5.365  15.110
   41SBC   C0D628405  11.078   5.438  14.989
   41SBC   C0D528406  10.967   5.487  14.921
   41SBC   C0D428407  10.835   5.513  14.959
   41SBC   C0D328408  10.763   5.536  14.837
   41SBC   C0CX28409  10.624   5.497  14.858
   41SBC   C0CW28410  10.628   5.413  14.980
   41SBC   C0CV28411  10.526   5.337  15.054
   41SBC   C0D228412  10.386   5.349  15.022
   41SBC   C09D28413  10.328   5.461  14.959
   41SBC   C09C28414  10.188   5.478  14.946
   41SBC   C09B28415  10.122   5.575  14.864
   41SBC   C09A28416  10.214   5.676  14.809
   41SBC   C09928417  10.337   5.699  14.852
   41SBC   C09828418  10.405   5.766  14.752
   41SBC   C08Y28419  10.314   5.785  14.634
   41SBC   C08X28420  10.344   5.799  14.495
   41SBC   C08W28421  10.482   5.822  14.445
   41SBC   C08U28422  10.605   5.812  14.524
   41SBC   C08V28423  10.634   5.763  14.658
   41SBC   C0DC28424  10.770   5.794  14.681
   41SBC   H00W28425  10.813   5.773  14.778
   41SBC   C0DB28426  10.831   5.842  14.565
   41SBC   H00X28427  10.932   5.872  14.541
   41SBC   C08T28428  10.733   5.843  14.467
   41SBC   C08S28429  10.740   5.884  14.336
   41SBC   H00N28430  10.839   5.909  14.299
   41SBC   C08R28431  10.624   5.891  14.253
   41SBC   C08Q28432  10.631   5.912  14.119
   41SBC   H00O28433  10.729   5.929  14.078
   41SBC   C08P28434  10.521   5.916  14.026
   41SBC   C08O28435  10.533   5.948  13.887
   41SBC   H00P28436  10.632   5.966  13.847
   41SBC   C08N28437  10.419   5.964  13.808
   41SBC   C08M28438  10.434   6.007  13.672
   41SBC   O00828439  10.538   6.034  13.618
   41SBC   O00728440  10.319   6.022  13.597
   41SBC   C08H28441  10.194   5.993  13.644
   41SBC   C08G28442  10.074   5.997  13.559
   41SBC   C03V28443  10.059   6.032  13.419
   41SBC   H00928444  10.145   6.051  13.356
   41SBC   C03U28445   9.939   6.030  13.353
   41SBC   C03W28446   9.931   6.050  13.213
   41SBC   H00A28447  10.023   6.057  13.157
   41SBC   C03X28448   9.809   6.041  13.150
   41SBC   H00B28449   9.805   6.050  13.043
   41SBC   O00528450   9.690   6.022  13.218
   41SBC   C03O28451   9.700   5.995  13.353
   41SBC   C03N28452   9.585   5.958  13.428
   41SBC   O00028453   9.469   5.963  13.370
   41SBC   C01928454   9.368   5.887  13.413
   41SBC   C01828455   9.363   5.829  13.544
   41SBC   C01728456   9.483   5.845  13.620
   41SBC   C01628457   9.484   5.808  13.754
   41SBC   C01528458   9.371   5.744  13.800
   41SBC   C01428459   9.369   5.699  13.935
   41SBC   C01328460   9.480   5.711  14.018
   41SBC   C01228461   9.437   5.636  14.135
   41SBC   C01128462   9.299   5.603  14.109
   41SBC   C01028463   9.215   5.548  14.205
   41SBC   C00Z28464   9.107   5.474  14.179
   41SBC   C00Y28465   9.101   5.381  14.286
   41SBC   C01O28466   9.203   5.397  14.371
   41SBC   C01P28467   9.255   5.301  14.463
   41SBC   C02L28468   9.379   5.323  14.519
   41SBC   C02K28469   9.448   5.435  14.467
   41SBC   C01M28470   9.412   5.514  14.351
   41SBC   C02J28471   9.565   5.461  14.542
   41SBC   C02I28472   9.657   5.564  14.525
   41SBC   C02H28473   9.673   5.656  14.425
   41SBC   C01Q28474   9.611   5.669  14.305
   41SBC   C02G28475   9.683   5.760  14.223
   41SBC   C08928476   9.784   5.809  14.298
   41SBC   C08828477   9.892   5.846  14.219
   41SBC   C08728478   9.832   5.845  14.084
   41SBC   C08628479   9.903   5.867  13.960
   41SBC   C03S28480   9.843   5.884  13.831
   41SBC   N00628481   9.951   5.922  13.752
   41SBC   C08F28482  10.067   5.927  13.825
   41SBC   C01J28483   9.716   5.884  13.767
   41SBC   C03R28484   9.715   5.919  13.630
   41SBC   C03Q28485   9.826   5.962  13.560
   41SBC   C08E28486  10.042   5.888  13.953
   41SBC   C08D28487  10.148   5.880  14.050
   41SBC   C08K28488  10.279   5.902  13.996
   41SBC   C08C28489  10.145   5.855  14.187
   41SBC   C09128490  10.263   5.838  14.264
   41SBC   C09228491  10.389   5.866  14.215
   41SBC   C08B28492  10.031   5.834  14.271
   41SBC   C09028493  10.088   5.819  14.405
   41SBC   C09428494  10.012   5.789  14.524
   41SBC   C09528495  10.067   5.735  14.638
   41SBC   C09R28496   9.972   5.649  14.702
   41SBC   C09728497   9.859   5.647  14.624
   41SBC   C09628498   9.881   5.736  14.521
   41SBC   C01I28499   9.692   5.797  14.081
   41SBC   C08A28500   9.782   5.738  14.423
   41SBC   C09L28501   9.747   5.559  14.630
   41SBC   C09K28502   9.710   5.449  14.723
   41SBC   C09J28503   9.787   5.400  14.830
   41SBC   C09I28504   9.782   5.269  14.886
   41SBC   C09O28505   9.702   5.146  14.866
   41SBC   C09N28506   9.583   5.145  14.780
   41SBC   C09M28507   9.538   5.247  14.688
   41SBC   C06O28508   9.508   5.023  14.794
   41SBC   C05M28509   9.548   4.914  14.874
   41SBC   C06P28510   9.666   4.919  14.943
   41SBC   C04228511   9.476   4.796  14.877
   41SBC   C04128512   9.365   4.781  14.797
   41SBC   C04028513   9.304   4.652  14.787
   41SBC   C03Z28514   9.192   4.636  14.698
   41SBC   C03Y28515   9.141   4.738  14.624
   41SBC   C02728516   9.037   4.719  14.535
   41SBC   C02628517   9.001   4.815  14.450
   41SBC   C02828518   8.904   4.792  14.348
   41SBC   C02928519   8.844   4.668  14.339
   41SBC   C02B28520   8.746   4.648  14.244
   41SBC   C02C28521   8.685   4.527  14.231
   41SBC   C02X28522   8.584   4.512  14.141
   41SBC   C03E28523   8.528   4.389  14.133
   41SBC   C03G28524   8.567   4.276  14.197
   41SBC   C04Q28525   8.672   4.296  14.288
   41SBC   C04R28526   8.719   4.193  14.364
   41SBC   C04S28527   8.824   4.214  14.460
   41SBC   C04L28528   8.878   4.342  14.475
   41SBC   C04M28529   8.827   4.441  14.403
   41SBC   C04K28530   8.978   4.363  14.571
   41SBC   C04F28531   9.022   4.254  14.644
   41SBC   C04E28532   8.968   4.126  14.623
   41SBC   C04D28533   9.019   4.017  14.697
   41SBC   C05028534   8.968   3.891  14.681
   41SBC   C05128535   9.002   3.795  14.771
   41SBC   C05Q28536   8.939   3.672  14.759
   41SBC   C05V28537   8.962   3.578  14.862
   41SBC   N00528538   8.889   3.460  14.862
   41SBC   C07V28539   8.808   3.436  14.753
   41SBC   C08228540   8.739   3.310  14.746
   41SBC   C08128541   8.743   3.221  14.859
   41SBC   C07C28542   8.832   3.241  14.963
   41SBC   C07B28543   8.856   3.139  15.058
   41SBC   C08028544   8.773   3.031  15.073
   41SBC   C07Z28545   8.788   2.957  15.195
   41SBC   H00L28546   8.720   2.874  15.200
   41SBC   C07928547   8.897   2.967  15.282
   41SBC   C07828548   8.987   3.064  15.250
   41SBC   C07728549   9.111   3.068  15.320
   41SBC   C07X28550   9.143   2.968  15.414
   41SBC   H00I28551   9.242   2.963  15.458
   41SBC   C07Y28552   9.049   2.866  15.447
   41SBC   H00H28553   9.075   2.787  15.517
   41SBC   C07628554   9.198   3.180  15.306
   41SBC   C06C28555   9.329   3.176  15.349
   41SBC   H00C28556   9.377   3.092  15.398
   41SBC   C06F28557   9.159   3.282  15.222
   41SBC   C06E28558   9.230   3.403  15.214
   41SBC   C06G28559   9.199   3.511  15.136
   41SBC   C06H28560   9.089   3.494  15.049
   41SBC   C06I28561   9.016   3.373  15.050
   41SBC   C06L28562   9.283   3.626  15.130
   41SBC   C06M28563   9.410   3.632  15.202
   41SBC   C06K28564   9.242   3.735  15.048
   41SBC   C05S28565   9.135   3.712  14.959
   41SBC   C05U28566   9.306   3.858  15.060
   41SBC   C05X28567   9.419   3.870  15.147
   41SBC   C05G28568   9.472   4.006  15.143
   41SBC   C05F28569   9.409   4.102  15.066
   41SBC   C05E28570   9.464   4.231  15.083
   41SBC   C04828571   9.425   4.337  15.006
   41SBC   C05628572   9.499   4.452  15.021
   41SBC   C04528573   9.455   4.559  14.945
   41SBC   C04728574   9.328   4.316  14.913
   41SBC   C04928575   9.272   4.188  14.895
   41SBC   C04B28576   9.169   4.169  14.807
   41SBC   C04628577   9.286   4.423  14.837
   41SBC   C04H28578   9.191   4.398  14.746
   41SBC   C05D28579   9.582   4.215  15.161
   41SBC   C04A28580   9.314   4.081  14.970
   41SBC   C05T28581   9.262   3.957  14.971
   41SBC   C05528582   9.166   3.940  14.877
   41SBC   C06D28583   9.353   3.408  15.279
   41SBC   C07W28584   9.044   3.275  15.148
   41SBC   C08528585   8.926   2.868  15.383
   41SBC   H00M28586   8.858   2.785  15.391
   41SBC   C08428587   8.673   3.013  14.970
   41SBC   H00J28588   8.607   2.930  14.988
   41SBC   C07A28589   8.962   3.161  15.149
   41SBC   C08328590   8.667   3.103  14.866
   41SBC   H00K28591   8.588   3.095  14.793
   41SBC   O00K28592   8.673   3.279  14.630
   41SBC   C0GO28593   8.649   3.373  14.542
   41SBC   C0GN28594   8.570   3.346  14.425
   41SBC   H01L28595   8.534   3.244  14.422
   41SBC   C0GM28596   8.547   3.443  14.318
   41SBC   C0GL28597   8.490   3.399  14.202
   41SBC   H01M28598   8.448   3.300  14.188
   41SBC   O00J28599   8.458   3.492  14.107
   41SBC   C0GK28600   8.501   3.626  14.129
   41SBC   H01N28601   8.482   3.703  14.056
   41SBC   C05K28602   8.560   3.664  14.244
   41SBC   C05J28603   8.582   3.803  14.272
   41SBC   C04Y28604   8.530   3.915  14.207
   41SBC   C04X28605   8.570   4.045  14.237
   41SBC   O00628606   8.438   3.900  14.104
   41SBC   C05328607   8.384   4.006  14.032
   41SBC   C04O28608   8.414   4.137  14.068
   41SBC   C03C28609   8.355   4.256  14.013
   41SBC   C03B28610   8.270   4.295  13.897
   41SBC   C05428611   8.239   4.202  13.799
   41SBC   C0GR28612   8.189   4.235  13.670
   41SBC   C03M28613   8.155   4.361  13.594
   41SBC   C03I28614   8.194   4.490  13.635
   41SBC   C03J28615   8.166   4.598  13.546
   41SBC   N00228616   8.229   4.729  13.561
   41SBC   C02U28617   8.217   4.831  13.466
   41SBC   C02T28618   8.281   4.952  13.479
   41SBC   C02Z28619   8.262   5.049  13.381
   41SBC   N00128620   8.336   5.173  13.389
   41SBC   C02R28621   8.327   5.269  13.288
   41SBC   C03228622   8.233   5.255  13.185
   41SBC   C03128623   8.164   5.137  13.178
   41SBC   H00728624   8.097   5.111  13.096
   41SBC   C03328625   8.218   5.371  13.093
   41SBC   H00328626   8.141   5.371  13.018
   41SBC   O00428627   8.284   5.488  13.103
   41SBC   C03428628   8.368   5.495  13.208
   41SBC   C03528629   8.429   5.615  13.214
   41SBC   C03628630   8.509   5.649  13.326
   41SBC   H00528631   8.545   5.751  13.331
   41SBC   C03728632   8.542   5.550  13.417
   41SBC   H00628633   8.596   5.585  13.504
   41SBC   C00D28634   8.486   5.420  13.406
   41SBC   C00C28635   8.502   5.319  13.497
   41SBC   C00B28636   8.603   5.330  13.605
   41SBC   C00A28637   8.705   5.426  13.665
   41SBC   C00928638   8.721   5.378  13.797
   41SBC   C00828639   8.831   5.402  13.889
   41SBC   C00728640   8.927   5.488  13.850
   41SBC   C00628641   9.028   5.516  13.942
   41SBC   C00528642   9.137   5.593  13.898
   41SBC   C00428643   9.145   5.639  13.765
   41SBC   C00328644   9.043   5.602  13.675
   41SBC   C00228645   9.052   5.643  13.540
   41SBC   C01C28646   9.154   5.733  13.504
   41SBC   C01B28647   9.145   5.802  13.380
   41SBC   H00028648   9.053   5.792  13.324
   41SBC   C00128649   8.962   5.595  13.452
   41SBC   C00028650   8.860   5.506  13.492
   41SBC   C01U28651   8.806   5.450  13.372
   41SBC   H00228652   8.722   5.386  13.352
   41SBC   C01T28653   8.875   5.519  13.261
   41SBC   O00228654   8.851   5.516  13.140
   41SBC   O00128655   8.973   5.593  13.315
   41SBC   C01S28656   8.931   5.524  13.718
   41SBC   C00N28657   8.832   5.316  13.998
   41SBC   C00M28658   8.760   5.198  14.006
   41SBC   C00J28659   8.665   5.169  13.918
   41SBC   C00I28660   8.606   5.050  13.901
   41SBC   C00H28661   8.521   5.029  13.800
   41SBC   C00G28662   8.510   5.113  13.695
   41SBC   C00F28663   8.435   5.093  13.588
   41SBC   C01X28664   8.451   4.909  13.793
   41SBC   C01W28665   8.481   4.810  13.879
   41SBC   C01V28666   8.577   4.833  13.977
   41SBC   C02028667   8.616   4.730  14.063
   41SBC   C01Z28668   8.419   4.685  13.868
   41SBC   C02Y28669   8.456   4.599  13.964
   41SBC   C03928670   8.383   4.478  13.960
   41SBC   C02W28671   8.322   4.657  13.765
   41SBC   C01Y28672   8.378   4.879  13.683
   41SBC   C00U28673   8.634   4.953  13.990
   41SBC   C00S28674   8.732   4.974  14.081
   41SBC   C00T28675   8.763   4.876  14.172
   41SBC   C00R28676   8.795   5.094  14.095
   41SBC   C00Q28677   8.888   5.119  14.190
   41SBC   C00V28678   8.916   5.020  14.286
   41SBC   C02428679   9.019   5.039  14.379
   41SBC   C00X28680   9.083   5.159  14.381
   41SBC   C00P28681   8.956   5.237  14.184
   41SBC   C00O28682   8.940   5.335  14.084
   41SBC   C00K28683   8.640   5.269  13.820
   41SBC   N00028684   8.832   5.481  13.620
   41SBC   C00L28685   8.579   5.233  13.700
   41SBC   H00428686   8.407   5.696  13.146
   41SBC   C02Q28687   8.395   5.394  13.306
   41SBC   C00E28688   8.426   5.197  13.496
   41SBC   C03028689   8.179   5.032  13.271
   41SBC   O00328690   8.110   4.913  13.267
   41SBC   C02S28691   8.363   4.976  13.584
   41SBC   C03828692   8.135   4.812  13.355
   41SBC   C03L28693   8.072   4.690  13.340
   41SBC   H00828694   8.025   4.673  13.244
   41SBC   C02V28695   8.310   4.759  13.674
   41SBC   C03K28696   8.092   4.583  13.426
   41SBC   C0BK28697   8.042   4.453  13.406
   41SBC   H00T28698   7.967   4.438  13.330
   41SBC   C03H28699   8.260   4.527  13.754
   41SBC   C0BL28700   8.083   4.339  13.476
   41SBC   C0GU28701   8.063   4.207  13.424
   41SBC   H01O28702   8.009   4.191  13.332
   41SBC   C0GT28703   8.097   4.090  13.489
   41SBC   H01P28704   8.078   3.996  13.438
   41SBC   C0GS28705   8.159   4.107  13.612
   41SBC   C0GV28706   8.192   4.004  13.703
   41SBC   C0GW28707   8.186   3.864  13.677
   41SBC   H01Q28708   8.136   3.825  13.590
   41SBC   C0GX28709   8.229   3.788  13.781
   41SBC   H01R28710   8.244   3.685  13.753
   41SBC   O00L28711   8.286   3.835  13.901
   41SBC   C0GQ28712   8.253   4.059  13.810
   41SBC   C03A28713   8.292   4.435  13.866
   41SBC   C05L28714   8.301   3.973  13.915
   41SBC   C04W28715   8.673   3.829  14.382
   41SBC   C05I28716   8.723   3.724  14.463
   41SBC   C05O28717   8.675   3.598  14.458
   41SBC   C05228718   8.814   3.748  14.565
   41SBC   C04V28719   8.722   3.958  14.412
   41SBC   C04U28720   8.820   3.983  14.508
   41SBC   N00928721   8.590   3.572  14.347
   41SBC   C0GP28722   8.701   3.500  14.549
   41SBC   C05W28723   8.787   3.527  14.650
   41SBC   C07D28724   8.915   3.357  14.960
   41SBC   C06J28725   9.062   3.597  14.959
   41SBC   C05P28726   8.852   3.650  14.652
   41SBC   C05R28727   9.105   3.814  14.867
   41SBC   C04Z28728   8.866   3.872  14.580
   41SBC   C04C28729   9.120   4.041  14.790
   41SBC   C04G28730   9.128   4.277  14.732
   41SBC   C04J28731   9.029   4.487  14.593
   41SBC   C04T28732   8.866   4.107  14.531
   41SBC   N00328733   8.671   4.063  14.333
   41SBC   C04P28734   8.513   4.154  14.170
   41SBC   C03D28735   8.415   4.378  14.047
   41SBC   C02128736   8.548   4.615  14.063
   41SBC   C03F28737   8.729   4.423  14.305
   41SBC   C02228738   8.711   4.754  14.159
   41SBC   C02A28739   8.885   4.567  14.420
   41SBC   C02328740   8.860   4.896  14.268
   41SBC   C02528741   9.062   4.937  14.463
   41SBC   C02D28742   9.164   4.963  14.556
   41SBC   C02E28743   9.234   5.081  14.549
   41SBC   C02N28744   9.350   5.108  14.629
   41SBC   C04N28745   8.980   4.592  14.519
   41SBC   C02P28746   9.205   4.863  14.637
   41SBC   C04I28747   9.136   4.509  14.680
   41SBC   C04428748   9.349   4.544  14.854
   41SBC   C04328749   9.322   4.883  14.715
   41SBC   C05N28750   9.393   5.005  14.715
   41SBC   C09U28751   9.746   5.035  14.943
   41SBC   C09V28752   9.867   5.030  15.014
   41SBC   C09X28753   9.947   5.143  15.021
   41SBC   C09Y28754  10.080   5.143  15.055
   41SBC   C0A128755  10.133   5.032  15.114
   41SBC   C0A228756  10.042   4.921  15.127
   41SBC   C0A428757  10.091   4.811  15.196
   41SBC   C07128758  10.011   4.695  15.206
   41SBC   C0A528759  10.063   4.581  15.272
   41SBC   C0A928760  10.194   4.583  15.320
   41SBC   C0A828761  10.273   4.694  15.300
   41SBC   C0AP28762  10.409   4.689  15.334
   41SBC   C0BY28763  10.486   4.794  15.308
   41SBC   C0BX28764  10.445   4.909  15.251
   41SBC   C0C228765  10.537   5.015  15.231
   41SBC   C0C328766  10.486   5.129  15.169
   41SBC   C0CT28767  10.353   5.132  15.128
   41SBC   C0C128768  10.675   5.008  15.263
   41SBC   C0C028769  10.722   4.875  15.314
   41SBC   C0A728770  10.307   4.918  15.220
   41SBC   C0BZ28771  10.621   4.778  15.338
   41SBC   C0BO28772  10.676   4.659  15.388
   41SBC   C0BN28773  10.597   4.544  15.396
   41SBC   C0BM28774  10.664   4.433  15.433
   41SBC   C0B928775  10.583   4.322  15.457
   41SBC   C0B828776  10.445   4.335  15.440
   41SBC   C0AD28777  10.386   4.458  15.398
   41SBC   C0AF28778  10.371   4.223  15.459
   41SBC   C0AG28779  10.424   4.093  15.496
   41SBC   C0B728780  10.561   4.082  15.503
   41SBC   C0AE28781  10.240   4.235  15.438
   41SBC   C0AB28782  10.176   4.353  15.382
   41SBC   C0AA28783  10.044   4.353  15.333
   41SBC   C0AJ28784  10.168   4.118  15.443
   41SBC   C0AK28785  10.037   4.125  15.398
   41SBC   C06W28786   9.992   3.997  15.415
   41SBC   C0AI28787  10.203   3.993  15.491
   41SBC   C0BP28788  10.813   4.667  15.405
   41SBC   C0BQ28789  10.889   4.542  15.430
   41SBC   C0BW28790  10.465   4.563  15.375
   41SBC   C0AC28791  10.253   4.465  15.367
   41SBC   C0A628792  10.222   4.807  15.238
   41SBC   C0A328793  10.266   5.028  15.158
   41SBC   C09Z28794  10.164   5.252  15.035
   41SBC   C09W28795   9.914   4.917  15.074
   41SBC   C07228796   9.835   4.804  15.084
   41SBC   C09H28797   9.896   5.261  14.968
   41SBC   C09G28798   9.973   5.369  14.963
   41SBC   C09P28799   9.915   5.450  14.867
   41SBC   C02O28800   9.605   5.378  14.660
   41SBC   C02M28801   9.421   5.230  14.613
   41SBC   C02F28802   9.186   5.186  14.470
   41SBC   C00W28803   9.050   5.254  14.280
   41SBC   C01R28804   9.020   5.450  14.067
   41SBC   C01N28805   9.279   5.494  14.317
   41SBC   C01L28806   9.491   5.604  14.265
   41SBC   C01H28807   9.598   5.780  13.974
   41SBC   C01K28808   9.253   5.629  13.984
   41SBC   C01E28809   9.255   5.715  13.719
   41SBC   C01G28810   9.602   5.821  13.833
   41SBC   C01D28811   9.254   5.760  13.589
   41SBC   C01A28812   9.254   5.878  13.334
   41SBC   H00128813   9.248   5.910  13.232
   41SBC   C01F28814   9.595   5.907  13.560
   41SBC   C03P28815   9.823   5.995  13.421
   41SBC   C03T28816   9.948   5.967  13.622
   41SBC   C08I28817  10.186   5.947  13.775
   41SBC   C08J28818  10.296   5.938  13.861
   41SBC   C08L28819  10.393   5.900  14.081
   41SBC   C09328820  10.499   5.855  14.308
   41SBC   C08Z28821  10.234   5.817  14.396
   41SBC   C09T28822  10.531   5.716  14.757
   41SBC   C09S28823  10.190   5.747  14.689
   41SBC   C09Q28824   9.993   5.557  14.810
   41SBC   C09F28825  10.114   5.367  14.986
   41SBC   C09E28826  10.391   5.578  14.897
   41SBC   C0A028827  10.303   5.247  15.062
   41SBC   C0CU28828  10.577   5.233  15.133
   41SBC   C0CR28829  10.712   5.228  15.174
   41SBC   C0CZ28830  10.801   5.331  15.127
   41SBC   C0DA28831  10.526   5.596  14.841
   41SBC   C0D928832  10.851   5.506  14.726
   41SBC   H00V28833  10.824   5.482  14.625
   41SBC   C0CY28834  10.752   5.419  15.035
   41SBC   C0DF28835  10.981   5.484  14.784
   41SBC   C0DE28836  11.118   5.456  14.763
   41SBC   C0GI28837  11.198   5.446  14.649
   41SBC   H01K28838  11.159   5.472  14.552
   41SBC   C0GJ28839  11.334   5.435  14.668
   41SBC   H01J28840  11.397   5.449  14.581
   41SBC   O00I28841  11.393   5.408  14.787
   41SBC   C0GH28842  11.316   5.379  14.900
   41SBC   C0GG28843  11.377   5.302  15.005
   41SBC   O00G28844  11.512   5.280  14.997
   41SBC   C0G828845  11.573   5.185  15.070
   41SBC   C0G928846  11.712   5.171  15.052
   41SBC   H01G28847  11.753   5.249  14.989
   41SBC   C0GA28848  11.784   5.077  15.126
   41SBC   H01H28849  11.891   5.089  15.120
   41SBC   C0GB28850  11.726   4.987  15.213
   41SBC   C0EP28851  11.580   4.996  15.224
   41SBC   C0E828852  11.509   4.886  15.290
   41SBC   C0CK28853  11.379   4.842  15.316
   41SBC   C0CL28854  11.275   4.932  15.336
   41SBC   C0E928855  11.287   5.064  15.279
   41SBC   C0GE28856  11.370   5.134  15.179
   41SBC   C0E728857  11.587   4.790  15.359
   41SBC   C0CJ28858  11.506   4.709  15.445
   41SBC   C0E628859  11.568   4.631  15.541
   41SBC   H00Y28860  11.520   4.555  15.602
   41SBC   C0EO28861  11.709   4.641  15.557
   41SBC   H01128862  11.755   4.579  15.633
   41SBC   C0G628863  11.791   4.722  15.468
   41SBC   C0G528864  11.935   4.736  15.469
   41SBC   H01F28865  11.999   4.686  15.540
   41SBC   C0GD28866  11.996   4.819  15.382
   41SBC   H01I28867  12.103   4.827  15.390
   41SBC   O00H28868  11.934   4.894  15.291
   41SBC   C0EQ28869  11.725   4.802  15.370
   41SBC   C0GC28870  11.796   4.894  15.297
   41SBC   C0G728871  11.506   5.099  15.158
   41SBC   C0DD28872  11.181   5.419  14.889
   41SBC   C0GF28873  11.308   5.250  15.115
   41SBC   C0CO28874  11.173   5.118  15.328
   41SBC   C0D028875  10.943   5.314  15.162
   41SBC   C0C428876  10.763   5.122  15.252
   41SBC   C0CN28877  11.097   5.031  15.404
   41SBC   C0CP28878  10.834   4.808  15.369
   41SBC   C0CM28879  11.165   4.913  15.424
   41SBC   C0CI28880  11.373   4.720  15.393
   41SBC   C0CD28881  11.279   4.265  15.450
   41SBC   C0BR28882  11.032   4.540  15.435
   41SBC   C0CS28883  10.804   4.431  15.450
   41SBC   C0B628884  10.643   4.198  15.486
   41SBC   C0CG28885  11.062   4.176  15.508
   41SBC   C0CF28886  11.198   4.161  15.500
   41SBC   C0E528887  11.465   4.115  15.442
   41SBC   C0DT28888  11.572   3.870  15.501
   41SBC   C0DL28889  11.232   3.823  15.641
   41SBC   C0DM28890  11.155   3.717  15.688
   41SBC   C0DY28891  11.349   3.576  15.710
   41SBC   C0DU28892  11.626   3.752  15.547
   41SBC   C0F028893  11.789   3.589  15.483
   41SBC   C0F428894  11.828   3.332  15.397
   41SBC   C0FG28895  11.594   3.297  15.687
   41SBC   O00B28896  11.733   3.105  15.416
   41SBC   C0FN28897  11.523   3.184  15.710
   41SBC   C0DZ28898  11.400   3.448  15.717
   41SBC   O00C28899  11.099   3.259  15.800
   41SBC   C0FR28900  10.974   3.277  15.828
   41SBC   O00D28901  10.918   3.173  15.861
   41SBC   C0E028902  11.210   3.599  15.718
   41SBC   C0E328903  10.912   3.403  15.808
   41SBC   C0AW28904  10.778   3.423  15.835
   41SBC   C0AV28905  10.680   3.322  15.869
   41SBC   H00Q28906  10.700   3.220  15.900
   41SBC   C0AU28907  10.537   3.341  15.859
   41SBC   H00R28908  10.470   3.257  15.873
   41SBC   C0AT28909  10.495   3.460  15.803
   41SBC   C0AS28910  10.372   3.503  15.732
   41SBC   C0AR28911  10.287   3.403  15.670
   41SBC   C0BE28912  10.589   3.556  15.779
   41SBC   C0DN28913  11.018   3.736  15.690
   41SBC   C0AX28914  10.724   3.545  15.795
   41SBC   C0BB28915  10.821   3.856  15.627
   41SBC   C0BD28916  10.526   3.661  15.708
   41SBC   C0B228917  10.618   3.966  15.552
   41SBC   C0AH28918  10.342   3.978  15.524
   41SBC   C0BF28919  10.394   3.634  15.678
   41SBC   C0AL28920  10.089   3.910  15.472
   41SBC   C07U28921  10.111   3.562  15.558
   41SBC   C0AQ28922  10.165   3.441  15.615
   41SBC   C0BG28923  10.282   3.263  15.696
   41SBC   C0FY28924  10.072   3.030  15.531
   41SBC   C0BJ28925  10.367   3.164  15.637
   41SBC   H00S28926  10.469   3.181  15.606
   41SBC   C0FZ28927  10.151   2.929  15.466
   41SBC   C07S28928   9.958   3.087  15.462
   41SBC   C0G128929   9.958   2.840  15.183
   41SBC   C07K28930   9.633   3.014  15.102
   41SBC   C07H28931   9.730   3.175  15.319
   41SBC   C06B28932   9.404   3.287  15.328
   41SBC   C06N28933   9.447   3.503  15.258
   41SBC   C06628934   9.799   3.415  15.396
   41SBC   C06228935   9.821   3.730  15.396
   41SBC   C05Y28936   9.477   3.757  15.216
   41SBC   C06128937   9.778   3.865  15.413
   41SBC   C05H28938   9.573   4.082  15.209
   41SBC   C06V28939   9.859   3.983  15.387
   41SBC   C06Y28940   9.977   4.234  15.337
   41SBC   C05C28941   9.664   4.332  15.166
   41SBC   C06Z28942   9.989   4.466  15.280
   41SBC   C07028943   9.886   4.692  15.152
   41SBC   C05B28944   9.609   4.453  15.100
   41SBC   C05728945   9.520   4.682  14.951
   41SBC   C05928946   9.712   4.804  15.019
   42SBC   C05828947  12.893   9.508  11.879
   42SBC   C05A28948  12.833   9.529  12.006
   42SBC   C06Q28949  12.844   9.430  12.103
   42SBC   C06R28950  12.782   9.448  12.229
   42SBC   C06S28951  12.713   9.563  12.263
   42SBC   C06T28952  12.652   9.575  12.389
   42SBC   C06U28953  12.605   9.697  12.463
   42SBC   C06X28954  12.584   9.827  12.424
   42SBC   C06028955  12.553   9.917  12.537
   42SBC   C05Z28956  12.443  10.009  12.548
   42SBC   C06828957  12.387   9.985  12.682
   42SBC   C06728958  12.270  10.051  12.746
   42SBC   C06928959  12.198  10.165  12.693
   42SBC   C06A28960  12.072  10.226  12.734
   42SBC   C07328961  11.975  10.196  12.830
   42SBC   C07P28962  11.834  10.226  12.807
   42SBC   C07O28963  11.778  10.252  12.681
   42SBC   H00D28964  11.822  10.236  12.584
   42SBC   C07N28965  11.644  10.276  12.659
   42SBC   H00E28966  11.604  10.287  12.559
   42SBC   C07M28967  11.558  10.287  12.765
   42SBC   H00F28968  11.454  10.306  12.745
   42SBC   C07L28969  11.605  10.250  12.892
   42SBC   C07Q28970  11.517  10.230  13.007
   42SBC   H00G28971  11.414  10.261  13.001
   42SBC   O00F28972  11.559  10.169  13.116
   42SBC   C07J28973  11.690  10.154  13.140
   42SBC   C07I28974  11.784  10.178  13.039
   42SBC   N00428975  11.924  10.152  13.060
   42SBC   C07R28976  11.963  10.126  13.195
   42SBC   C07T28977  11.863  10.112  13.292
   42SBC   C0FX28978  11.897  10.058  13.413
   42SBC   C0FW28979  11.804  10.002  13.501
   42SBC   C0G028980  11.662  10.020  13.467
   42SBC   C0G228981  11.571   9.981  13.561
   42SBC   H01E28982  11.466   9.995  13.545
   42SBC   C0G328983  11.609   9.916  13.677
   42SBC   H01C28984  11.535   9.886  13.750
   42SBC   C0G428985  11.740   9.888  13.705
   42SBC   H01D28986  11.768   9.841  13.798
   42SBC   O00E28987  11.622  10.083  13.355
   42SBC   C0FV28988  11.844   9.927  13.615
   42SBC   C0FU28989  11.978   9.910  13.643
   42SBC   H01B28990  12.013   9.849  13.725
   42SBC   C0FT28991  12.070   9.979  13.565
   42SBC   C0FS28992  12.213   9.973  13.550
   42SBC   C0BI28993  12.254  10.048  13.439
   42SBC   C0BH28994  12.363   9.984  13.372
   42SBC   C07F28995  12.360   9.940  13.233
   42SBC   C07E28996  12.301  10.005  13.118
   42SBC   C07G28997  12.192  10.084  13.115
   42SBC   C07428998  12.148  10.098  12.981
   42SBC   C06528999  12.324   9.963  12.990
   42SBC   C06429000  12.408   9.852  12.986
   42SBC   C06329001  12.440   9.790  12.864
   42SBC   C07529002  12.502   9.660  12.911
   42SBC   C0AM29003  12.517   9.644  13.052
   42SBC   C0AN29004  12.571   9.531  13.128
   42SBC   C0AO29005  12.625   9.395  13.085
   42SBC   C0B129006  12.666   9.299  13.179
   42SBC   C0B029007  12.659   9.319  13.314
   42SBC   C0AZ29008  12.687   9.230  13.415
   42SBC   C0AY29009  12.651   9.253  13.549
   42SBC   N00729010  12.677   9.161  13.646
   42SBC   C0E229011  12.646   9.195  13.781
   42SBC   C0E129012  12.677   9.100  13.876
   42SBC   C0E429013  12.636   9.122  14.009
   42SBC   C0FF29014  12.675   9.039  14.113
   42SBC   C0FJ29015  12.644   9.039  14.258
   42SBC   C0FK29016  12.500   9.052  14.284
   42SBC   H01629017  12.420   9.098  14.228
   42SBC   C0FL29018  12.468   8.964  14.399
   42SBC   H01729019  12.367   8.932  14.421
   42SBC   C0FM29020  12.593   8.899  14.433
   42SBC   C0FH29021  12.631   8.764  14.475
   42SBC   C0FI29022  12.745   8.744  14.397
   42SBC   C0F329023  12.766   8.616  14.353
   42SBC   C0F229024  12.825   8.603  14.231
   42SBC   C0DW29025  12.831   8.700  14.135
   42SBC   C0FE29026  12.794   8.830  14.169
   42SBC   C0DV29027  12.844   8.666  14.002
   42SBC   C0DX29028  12.828   8.769  13.909
   42SBC   C0DK29029  12.843   8.730  13.774
   42SBC   C0DJ29030  12.865   8.599  13.738
   42SBC   C0DI29031  12.866   8.562  13.605
   42SBC   C0DH29032  12.852   8.656  13.506
   42SBC   C0DG29033  12.830   8.789  13.544
   42SBC   C0BV29034  12.805   8.880  13.444
   42SBC   C0BC29035  12.764   9.009  13.475
   42SBC   C0BA29036  12.817   8.847  13.308
   42SBC   C0B429037  12.796   8.944  13.212
   42SBC   C0B329038  12.753   9.072  13.243
   42SBC   C0B529039  12.823   8.919  13.080
   42SBC   C0BU29040  12.879   8.791  13.044
   42SBC   C0BT29041  12.895   8.690  13.141
   42SBC   C0BS29042  12.948   8.559  13.110
   42SBC   C0CC29043  12.945   8.460  13.208
   42SBC   C0CB29044  12.989   8.335  13.176
   42SBC   C0CH29045  12.938   8.231  13.263
   42SBC   C0DO29046  12.900   8.256  13.397
   42SBC   C0DP29047  12.903   8.160  13.495
   42SBC   C0EA29048  12.896   8.019  13.462
   42SBC   H01229049  12.881   7.986  13.360
   42SBC   O00929050  12.918   7.920  13.552
   42SBC   C0EH29051  12.891   7.956  13.678
   42SBC   C0EG29052  12.888   7.854  13.777
   42SBC   C0EJ29053  12.911   7.716  13.765
   42SBC   H01029054  12.940   7.668  13.672
   42SBC   C0EK29055  12.901   7.655  13.899
   42SBC   H00Z29056  12.914   7.551  13.926
   42SBC   C0EL29057  12.877   7.765  13.987
   42SBC   C0EM29058  12.849   7.779  14.126
   42SBC   C0EW29059  12.851   7.675  14.223
   42SBC   H01329060  12.869   7.573  14.193
   42SBC   C0EX29061  12.830   7.704  14.367
   42SBC   H01429062  12.824   7.623  14.438
   42SBC   C0F129063  12.797   7.841  14.405
   42SBC   C0EU29064  12.783   7.938  14.302
   42SBC   C0ET29065  12.751   8.074  14.322
   42SBC   C0ES29066  12.768   8.126  14.188
   42SBC   C0EE29067  12.809   8.023  14.100
   42SBC   C0ED29068  12.851   8.008  13.964
   42SBC   C0EC29069  12.859   8.117  13.867
   42SBC   C0EB29070  12.864   8.259  13.896
   42SBC   C0EN29071  12.859   8.304  14.040
   42SBC   C0ER29072  12.877   8.440  14.060
   42SBC   C0DS29073  12.873   8.359  13.800
   42SBC   C0DR29074  12.883   8.326  13.663
   42SBC   C0EY29075  12.824   8.251  14.169
   42SBC   C0EZ29076  12.812   8.356  14.264
   42SBC   C0F529077  12.749   8.375  14.395
   42SBC   C0F629078  12.720   8.262  14.478
   42SBC   N00829079  12.666   8.306  14.604
   42SBC   C0F729080  12.609   8.438  14.629
   42SBC   C0FQ29081  12.537   8.463  14.742
   42SBC   H01829082  12.492   8.560  14.754
   42SBC   C0FP29083  12.525   8.369  14.841
   42SBC   H01929084  12.456   8.387  14.921
   42SBC   C0FO29085  12.575   8.241  14.822
   42SBC   H01A29086  12.555   8.163  14.895
   42SBC   C0F829087  12.635   8.536  14.530
   42SBC   C0F929088  12.647   8.202  14.701
   42SBC   C0FA29089  12.695   8.069  14.685
   42SBC   H01529090  12.678   8.001  14.767
   42SBC   C0FB29091  12.741   8.029  14.555
   42SBC   C0FD29092  12.735   8.122  14.452
   42SBC   C0FC29093  12.765   7.884  14.537
   42SBC   O00A29094  12.772   7.800  14.630
   42SBC   C0EV29095  12.820   7.909  14.172
   42SBC   C0EF29096  12.878   7.882  13.911
   42SBC   C0EI29097  12.875   8.094  13.726
   42SBC   C0DQ29098  12.888   8.195  13.629
   42SBC   C0CE29099  12.890   8.389  13.432
   42SBC   H00U29100  12.945   8.129  13.230
   42SBC   C0CA29101  13.080   8.313  13.068
   42SBC   C0C929102  13.079   8.414  12.963
   42SBC   C0C829103  13.181   8.405  12.859
   42SBC   C0C729104  13.202   8.470  12.730
   42SBC   C0C629105  13.326   8.440  12.667
   42SBC   C0C529106  13.376   8.428  12.528
   42SBC   C0CQ29107  13.474   8.332  12.505
   42SBC   C0D129108  13.498   8.233  12.598
   42SBC   C0D829109  13.520   8.121  12.532
   42SBC   C0D729110  13.560   8.160  12.405
   42SBC   C0D629111  13.614   8.076  12.302
   42SBC   C0D529112  13.666   8.122  12.178
   42SBC   C0D429113  13.660   8.255  12.114
   42SBC   C0D329114  13.661   8.241  11.981
   42SBC   C0CX29115  13.592   8.361  11.918
   42SBC   C0CW29116  13.515   8.422  12.022
   42SBC   C0CV29117  13.425   8.537  12.037
   42SBC   C0D229118  13.385   8.625  11.931
   42SBC   C09D29119  13.424   8.611  11.790
   42SBC   C09C29120  13.386   8.701  11.688
   42SBC   C09B29121  13.430   8.707  11.555
   42SBC   C09A29122  13.528   8.610  11.525
   42SBC   C09929123  13.554   8.500  11.607
   42SBC   C09829124  13.685   8.454  11.575
   42SBC   C08Y29125  13.746   8.543  11.474
   42SBC   C08X29126  13.886   8.559  11.438
   42SBC   C08W29127  13.993   8.490  11.500
   42SBC   C08U29128  13.982   8.407  11.622
   42SBC   C08V29129  13.868   8.358  11.706
   42SBC   C0DC29130  13.920   8.236  11.767
   42SBC   H00W29131  13.861   8.177  11.836
   42SBC   C0DB29132  14.055   8.212  11.730
   42SBC   H00X29133  14.113   8.127  11.764
   42SBC   C08T29134  14.090   8.315  11.642
   42SBC   C08S29135  14.210   8.331  11.590
   42SBC   H00N29136  14.287   8.258  11.611
   42SBC   C08R29137  14.236   8.431  11.499
   42SBC   C08Q29138  14.363   8.457  11.445
   42SBC   H00O29139  14.440   8.397  11.490
   42SBC   C08P29140  14.397   8.553  11.349
   42SBC   C08O29141  14.528   8.565  11.290
   42SBC   H00P29142  14.609   8.497  11.311
   42SBC   C08N29143  14.545   8.671  11.195
   42SBC   C08M29144  14.676   8.681  11.124
   42SBC   O00829145  14.771   8.608  11.139
   42SBC   O00729146  14.689   8.792  11.035
   42SBC   C08H29147  14.586   8.876  11.012
   42SBC   C08G29148  14.602   8.973  10.905
   42SBC   C03V29149  14.709   8.999  10.815
   42SBC   H00929150  14.792   8.930  10.823
   42SBC   C03U29151  14.714   9.101  10.721
   42SBC   C03W29152  14.828   9.135  10.634
   42SBC   H00A29153  14.923   9.088  10.651
   42SBC   C03X29154  14.815   9.227  10.539
   42SBC   H00B29155  14.899   9.259  10.478
   42SBC   O00529156  14.697   9.291  10.518
   42SBC   C03O29157  14.591   9.269  10.599
   42SBC   C03N29158  14.487   9.356  10.595
   42SBC   O00029159  14.486   9.449  10.495
   42SBC   C01929160  14.397   9.547  10.498
   42SBC   C01829161  14.285   9.547  10.589
   42SBC   C01729162  14.275   9.441  10.676
   42SBC   C01629163  14.161   9.423  10.753
   42SBC   C01529164  14.055   9.515  10.724
   42SBC   C01429165  13.935   9.489  10.793
   42SBC   C01329166  13.909   9.377  10.872
   42SBC   C01229167  13.772   9.399  10.921
   42SBC   C01129168  13.724   9.519  10.858
   42SBC   C01029169  13.599   9.561  10.864
   42SBC   C00Z29170  13.549   9.680  10.826
   42SBC   C00Y29171  13.427   9.692  10.892
   42SBC   C01O29172  13.396   9.573  10.955
   42SBC   C01P29173  13.331   9.575  11.075
   42SBC   C02L29174  13.335   9.463  11.158
   42SBC   C02K29175  13.437   9.377  11.129
   42SBC   C01M29176  13.546   9.396  11.032
   42SBC   C02J29177  13.437   9.260  11.206
   42SBC   C02I29178  13.514   9.145  11.190
   42SBC   C02H29179  13.633   9.122  11.126
   42SBC   C01Q29180  13.714   9.207  11.052
   42SBC   C02G29181  13.834   9.140  11.027
   42SBC   C08929182  13.819   9.006  11.063
   42SBC   C08829183  13.946   8.963  11.107
   42SBC   C08729184  14.030   9.060  11.040
   42SBC   C08629185  14.170   9.039  11.031
   42SBC   C03S29186  14.256   9.110  10.944
   42SBC   N00629187  14.379   9.048  10.954
   42SBC   C08F29188  14.370   8.951  11.047
   42SBC   C01J29189  14.255   9.221  10.856
   42SBC   C03R29190  14.366   9.241  10.773
   42SBC   C03Q29191  14.482   9.158  10.783
   42SBC   C08E29192  14.243   8.943  11.102
   42SBC   C08D29193  14.212   8.833  11.189
   42SBC   C08K29194  14.314   8.742  11.220
   42SBC   C08C29195  14.083   8.793  11.235
   42SBC   C09129196  14.058   8.680  11.316
   42SBC   C09229197  14.166   8.610  11.368
   42SBC   C08B29198  13.958   8.845  11.197
   42SBC   C09029199  13.859   8.762  11.264
   42SBC   C09429200  13.708   8.779  11.247
   42SBC   C09529201  13.616   8.734  11.352
   42SBC   C09R29202  13.502   8.812  11.361
   42SBC   C09729203  13.522   8.919  11.278
   42SBC   C09629204  13.644   8.902  11.215
   42SBC   C01I29205  13.965   9.172  10.973
   42SBC   C08A29206  13.699   9.002  11.132
   42SBC   C09L29207  13.459   9.046  11.269
   42SBC   C09K29208  13.346   9.099  11.342
   42SBC   C09J29209  13.279   9.039  11.449
   42SBC   C09I29210  13.221   9.116  11.556
   42SBC   C09O29211  13.177   9.252  11.581
   42SBC   C09N29212  13.174   9.349  11.480
   42SBC   C09M29213  13.251   9.346  11.360
   42SBC   C06O29214  13.101   9.466  11.509
   42SBC   C05M29215  13.036   9.482  11.632
   42SBC   C06P29216  13.036   9.383  11.730
   42SBC   C04229217  12.958   9.594  11.663
   42SBC   C04129218  12.964   9.705  11.575
   42SBC   C04029219  12.908   9.825  11.612
   42SBC   C03Z29220  12.920   9.940  11.530
   42SBC   C03Y29221  12.998   9.933  11.414
   42SBC   C02729222  13.025  10.056  11.343
   42SBC   C02629223  13.101  10.049  11.225
   42SBC   C02829224  13.138  10.165  11.157
   42SBC   C02929225  13.092  10.286  11.212
   42SBC   C02B29226  13.127  10.403  11.146
   42SBC   C02C29227  13.089  10.523  11.206
   42SBC   C02X29228  13.148  10.638  11.158
   42SBC   C03E29229  13.124  10.754  11.222
   42SBC   C03G29230  13.047  10.772  11.330
   42SBC   C04Q29231  12.987  10.656  11.380
   42SBC   C04R29232  12.899  10.668  11.485
   42SBC   C04S29233  12.857  10.551  11.546
   42SBC   C04L29234  12.898  10.426  11.497
   42SBC   C04M29235  12.974  10.418  11.381
   42SBC   C04K29236  12.865  10.308  11.558
   42SBC   C04F29237  12.795  10.317  11.680
   42SBC   C04E29238  12.757  10.439  11.727
   42SBC   C04D29239  12.687  10.442  11.847
   42SBC   C05029240  12.644  10.564  11.895
   42SBC   C05129241  12.568  10.565  12.012
   42SBC   C05Q29242  12.524  10.688  12.063
   42SBC   C05V29243  12.430  10.688  12.166
   42SBC   N00529244  12.375  10.814  12.211
   42SBC   C07V29245  12.422  10.928  12.151
   42SBC   C08229246  12.374  11.055  12.198
   42SBC   C08129247  12.281  11.067  12.301
   42SBC   C07C29248  12.231  10.950  12.352
   42SBC   C07B29249  12.125  10.955  12.445
   42SBC   C08029250  12.062  11.077  12.476
   42SBC   C07Z29251  11.950  11.073  12.561
   42SBC   H00L29252  11.896  11.165  12.572
   42SBC   C07929253  11.907  10.955  12.630
   42SBC   C07829254  11.983  10.834  12.606
   42SBC   C07729255  11.951  10.715  12.674
   42SBC   C07X29256  11.843  10.721  12.770
   42SBC   H00I29257  11.795  10.634  12.812
   42SBC   C07Y29258  11.768  10.838  12.788
   42SBC   H00H29259  11.670  10.828  12.833
   42SBC   C07629260  12.021  10.599  12.649
   42SBC   C06C29261  11.987  10.476  12.710
   42SBC   H00C29262  11.909  10.471  12.785
   42SBC   C06F29263  12.118  10.595  12.545
   42SBC   C06E29264  12.189  10.483  12.513
   42SBC   C06G29265  12.272  10.462  12.412
   42SBC   C06H29266  12.300  10.578  12.338
   42SBC   C06I29267  12.244  10.705  12.374
   42SBC   C06L29268  12.335  10.340  12.385
   42SBC   C06M29269  12.334  10.229  12.474
   42SBC   C06K29270  12.411  10.337  12.265
   42SBC   C05S29271  12.444  10.449  12.190
   42SBC   C05U29272  12.475  10.217  12.227
   42SBC   C05X29273  12.469  10.099  12.310
   42SBC   C05G29274  12.522   9.982  12.244
   42SBC   C05F29275  12.571   9.987  12.114
   42SBC   C05E29276  12.626   9.865  12.080
   42SBC   C04829277  12.692   9.853  11.958
   42SBC   C05629278  12.750   9.735  11.933
   42SBC   C04529279  12.822   9.723  11.816
   42SBC   C04729280  12.702   9.965  11.881
   42SBC   C04929281  12.660  10.090  11.925
   42SBC   C04B29282  12.686  10.203  11.855
   42SBC   C04629283  12.769   9.960  11.763
   42SBC   C04H29284  12.797  10.077  11.689
   42SBC   C05D29285  12.627   9.776  12.184
   42SBC   C04A29286  12.594  10.102  12.045
   42SBC   C05T29287  12.546  10.213  12.104
   42SBC   C05529288  12.573  10.327  12.029
   42SBC   C06D29289  12.166  10.371  12.593
   42SBC   C07W29290  12.154  10.714  12.480
   42SBC   C08529291  11.806  10.960  12.724
   42SBC   H00M29292  11.755  11.055  12.731
   42SBC   C08429293  12.107  11.193  12.415
   42SBC   H00J29294  12.065  11.293  12.422
   42SBC   C07A29295  12.090  10.834  12.511
   42SBC   C08329296  12.216  11.188  12.333
   42SBC   H00K29297  12.255  11.279  12.288
   42SBC   O00K29298  12.419  11.174  12.148
   42SBC   C0GO29299  12.502  11.166  12.044
   42SBC   C0GN29300  12.554  11.280  11.992
   42SBC   H01L29301  12.539  11.373  12.046
   42SBC   C0GM29302  12.649  11.282  11.888
   42SBC   C0GL29303  12.697  11.399  11.843
   42SBC   H01M29304  12.663  11.493  11.884
   42SBC   O00J29305  12.788  11.402  11.749
   42SBC   C0GK29306  12.837  11.285  11.697
   42SBC   H01N29307  12.904  11.303  11.614
   42SBC   C05K29308  12.788  11.164  11.729
   42SBC   C05J29309  12.824  11.043  11.662
   42SBC   C04Y29310  12.910  11.030  11.549
   42SBC   C04X29311  12.937  10.905  11.491
   42SBC   O00629312  12.954  11.141  11.482
   42SBC   C05329313  13.051  11.145  11.381
   42SBC   C04O29314  13.095  11.014  11.337
   42SBC   C03C29315  13.192  10.989  11.233
   42SBC   C03B29316  13.285  11.065  11.157
   42SBC   C05429317  13.286  11.201  11.162
   42SBC   C0GR29318  13.382  11.271  11.082
   42SBC   C03M29319  13.491  11.240  10.987
   42SBC   C03I29320  13.523  11.109  10.936
   42SBC   C03J29321  13.635  11.098  10.854
   42SBC   N00229322  13.670  10.974  10.792
   42SBC   C02U29323  13.786  10.956  10.714
   42SBC   C02T29324  13.813  10.832  10.654
   42SBC   C02Z29325  13.934  10.821  10.586
   42SBC   N00129326  13.978  10.693  10.537
   42SBC   C02R29327  14.103  10.673  10.477
   42SBC   C03229328  14.187  10.786  10.458
   42SBC   C03129329  14.140  10.915  10.496
   42SBC   H00729330  14.202  11.002  10.482
   42SBC   C03329331  14.306  10.760  10.387
   42SBC   H00329332  14.374  10.841  10.364
   42SBC   O00429333  14.352  10.635  10.353
   42SBC   C03429334  14.261  10.530  10.359
   42SBC   C03529335  14.289  10.407  10.296
   42SBC   C03629336  14.196  10.305  10.293
   42SBC   H00529337  14.223  10.215  10.241
   42SBC   C03729338  14.069  10.322  10.351
   42SBC   H00629339  13.996  10.243  10.339
   42SBC   C00D29340  14.050  10.437  10.429
   42SBC   C00C29341  13.936  10.452  10.506
   42SBC   C00B29342  13.850  10.339  10.537
   42SBC   C00A29343  13.849  10.190  10.531
   42SBC   C00929344  13.712  10.155  10.568
   42SBC   C00829345  13.675  10.032  10.629
   42SBC   C00729346  13.768   9.932  10.637
   42SBC   C00629347  13.735   9.805  10.699
   42SBC   C00529348  13.839   9.707  10.709
   42SBC   C00429349  13.967   9.725  10.648
   42SBC   C00329350  13.994   9.846  10.588
   42SBC   C00229351  14.123   9.867  10.532
   42SBC   C01C29352  14.217   9.765  10.523
   42SBC   C01B29353  14.329   9.772  10.428
   42SBC   H00029354  14.359   9.857  10.367
   42SBC   C00129355  14.163   9.999  10.513
   42SBC   C00029356  14.085  10.100  10.568
   42SBC   C01U29357  14.173  10.208  10.593
   42SBC   H00229358  14.160  10.308  10.631
   42SBC   C01T29359  14.312  10.161  10.545
   42SBC   O00229360  14.419  10.225  10.535
   42SBC   O00129361  14.295  10.034  10.496
   42SBC   C01S29362  13.897   9.946  10.589
   42SBC   C00N29363  13.557  10.033  10.703
   42SBC   C00M29364  13.492  10.151  10.735
   42SBC   C00J29365  13.531  10.271  10.682
   42SBC   C00I29366  13.495  10.394  10.731
   42SBC   C00H29367  13.565  10.510  10.705
   42SBC   C00G29368  13.682  10.501  10.637
   42SBC   C00F29369  13.771  10.603  10.613
   42SBC   C01X29370  13.540  10.627  10.767
   42SBC   C01W29371  13.430  10.634  10.849
   42SBC   C01V29372  13.365  10.516  10.884
   42SBC   C02029373  13.267  10.517  10.984
   42SBC   C01Z29374  13.403  10.754  10.911
   42SBC   C02Y29375  13.307  10.743  11.008
   42SBC   C03929376  13.276  10.863  11.069
   42SBC   C02W29377  13.474  10.871  10.888
   42SBC   C01Y29378  13.622  10.739  10.745
   42SBC   C00U29379  13.400  10.396  10.828
   42SBC   C00S29380  13.345  10.276  10.875
   42SBC   C00T29381  13.256  10.276  10.982
   42SBC   C00R29382  13.394  10.157  10.833
   42SBC   C00Q29383  13.349  10.039  10.891
   42SBC   C00V29384  13.258  10.040  10.994
   42SBC   C02429385  13.225   9.924  11.064
   42SBC   C00X29386  13.281   9.806  11.026
   42SBC   C00P29387  13.409   9.916  10.855
   42SBC   C00O29388  13.519   9.913  10.763
   42SBC   C00K29389  13.639  10.268  10.596
   42SBC   N00029390  13.940  10.084  10.565
   42SBC   C00L29391  13.720  10.379  10.581
   42SBC   H00429392  14.381  10.392  10.242
   42SBC   C02Q29393  14.138  10.548  10.429
   42SBC   C00E29394  13.894  10.580  10.550
   42SBC   C03029395  14.016  10.933  10.562
   42SBC   O00329396  13.981  11.053  10.621
   42SBC   C02S29397  13.738  10.728  10.671
   42SBC   C03829398  13.870  11.069  10.694
   42SBC   C03L29399  13.844  11.190  10.757
   42SBC   H00829400  13.917  11.268  10.743
   42SBC   C02V29401  13.582  10.862  10.802
   42SBC   C03K29402  13.728  11.202  10.837
   42SBC   C0BK29403  13.683  11.324  10.885
   42SBC   H00T29404  13.736  11.414  10.859
   42SBC   C03H29405  13.448  10.993  10.951
   42SBC   C0BL29406  13.567  11.353  10.955
   42SBC   C0GU29407  13.523  11.482  10.979
   42SBC   H01O29408  13.595  11.559  10.955
   42SBC   C0GT29409  13.406  11.520  11.048
   42SBC   H01P29410  13.367  11.620  11.056
   42SBC   C0GS29411  13.354  11.409  11.114
   42SBC   C0GV29412  13.241  11.419  11.200
   42SBC   C0GW29413  13.186  11.534  11.267
   42SBC   H01Q29414  13.220  11.634  11.245
   42SBC   C0GX29415  13.088  11.506  11.355
   42SBC   H01R29416  13.048  11.593  11.405
   42SBC   O00L29417  13.042  11.381  11.390
   42SBC   C0GQ29418  13.201  11.290  11.240
   42SBC   C03A29419  13.352  10.983  11.060
   42SBC   C05L29420  13.096  11.271  11.333
   42SBC   C04W29421  12.769  10.925  11.714
   42SBC   C05I29422  12.686  10.924  11.831
   42SBC   C05O29423  12.641  11.041  11.888
   42SBC   C05229424  12.642  10.803  11.887
   42SBC   C04V29425  12.792  10.801  11.658
   42SBC   C04U29426  12.755  10.678  11.717
   42SBC   N00929427  12.694  11.161  11.836
   42SBC   C0GP29428  12.550  11.045  11.988
   42SBC   C05W29429  12.507  10.919  12.046
   42SBC   C07D29430  12.282  10.823  12.316
   42SBC   C06J29431  12.391  10.571  12.230
   42SBC   C05P29432  12.560  10.804  12.001
   42SBC   C05R29433  12.522  10.450  12.078
   42SBC   C04Z29434  12.683  10.678  11.834
   42SBC   C04C29435  12.648  10.321  11.908
   42SBC   C04G29436  12.755  10.199  11.740
   42SBC   C04J29437  12.911  10.186  11.512
   42SBC   C04T29438  12.789  10.556  11.666
   42SBC   N00329439  12.873  10.794  11.544
   42SBC   C04P29440  13.029  10.897  11.386
   42SBC   C03D29441  13.194  10.865  11.176
   42SBC   C02129442  13.239  10.632  11.049
   42SBC   C03F29443  13.008  10.534  11.318
   42SBC   C02229444  13.215  10.399  11.034
   42SBC   C02A29445  13.018  10.295  11.327
   42SBC   C02329446  13.215  10.162  11.043
   42SBC   C02529447  13.146   9.930  11.177
   42SBC   C02D29448  13.133   9.812  11.256
   42SBC   C02E29449  13.193   9.695  11.222
   42SBC   C02N29450  13.181   9.574  11.305
   42SBC   C04N29451  12.982  10.181  11.395
   42SBC   C02P29452  13.062   9.815  11.378
   42SBC   C04I29453  12.873  10.068  11.572
   42SBC   C04429454  12.828   9.832  11.729
   42SBC   C04329455  13.040   9.700  11.455
   42SBC   C05N29456  13.103   9.578  11.425
   42SBC   C09U29457  13.110   9.264  11.705
   42SBC   C09V29458  13.114   9.167  11.806
   42SBC   C09X29459  13.182   9.051  11.793
   42SBC   C09Y29460  13.204   8.950  11.885
   42SBC   C0A129461  13.146   8.967  12.004
   42SBC   C0A229462  13.060   9.078  12.024
   42SBC   C0A429463  13.000   9.090  12.147
   42SBC   C07129464  12.924   9.206  12.171
   42SBC   C0A529465  12.867   9.229  12.295
   42SBC   C0A929466  12.889   9.133  12.395
   42SBC   C0A829467  12.962   9.016  12.372
   42SBC   C0AP29468  12.980   8.925  12.469
   42SBC   C0BY29469  13.057   8.814  12.434
   42SBC   C0BX29470  13.130   8.797  12.323
   42SBC   C0C229471  13.219   8.688  12.315
   42SBC   C0C329472  13.288   8.668  12.192
   42SBC   C0CT29473  13.258   8.763  12.089
   42SBC   C0C129474  13.236   8.594  12.420
   42SBC   C0C029475  13.143   8.607  12.535
   42SBC   C0A729476  13.115   8.895  12.231
   42SBC   C0BZ29477  13.065   8.721  12.533
   42SBC   C0BO29478  12.997   8.737  12.652
   42SBC   C0BN29479  12.934   8.853  12.690
   42SBC   C0BM29480  12.892   8.864  12.820
   42SBC   C0B929481  12.835   8.984  12.855
   42SBC   C0B829482  12.810   9.079  12.754
   42SBC   C0AD29483  12.853   9.057  12.625
   42SBC   C0AF29484  12.748   9.198  12.788
   42SBC   C0AG29485  12.719   9.232  12.916
   42SBC   C0B729486  12.750   9.138  13.016
   42SBC   C0AE29487  12.718   9.282  12.683
   42SBC   C0AB29488  12.751   9.259  12.549
   42SBC   C0AA29489  12.735   9.355  12.449
   42SBC   C0AJ29490  12.641   9.390  12.711
   42SBC   C0AK29491  12.607   9.480  12.612
   42SBC   C06W29492  12.573   9.592  12.681
   42SBC   C0AI29493  12.610   9.434  12.841
   42SBC   C0BP29494  13.030   8.635  12.737
   42SBC   C0BQ29495  12.983   8.644  12.880
   42SBC   C0BW29496  12.925   8.949  12.592
   42SBC   C0AC29497  12.828   9.146  12.521
   42SBC   C0A629498  13.025   8.999  12.250
   42SBC   C0A329499  13.175   8.875  12.108
   42SBC   C09Z29500  13.281   8.839  11.859
   42SBC   C09W29501  13.048   9.179  11.929
   42SBC   C07229502  12.976   9.296  11.950
   42SBC   C09H29503  13.223   9.027  11.661
   42SBC   C09G29504  13.283   8.906  11.632
   42SBC   C09P29505  13.315   8.910  11.503
   42SBC   C02O29506  13.335   9.237  11.309
   42SBC   C02M29507  13.252   9.461  11.269
   42SBC   C02F29508  13.269   9.692  11.111
   42SBC   C00W29509  13.371   9.807  10.924
   42SBC   C01R29510  13.605   9.799  10.754
   42SBC   C01N29511  13.508   9.497  10.945
   42SBC   C01L29512  13.676   9.330  11.007
   42SBC   C01H29513  14.009   9.282  10.894
   42SBC   C01K29514  13.821   9.584  10.785
   42SBC   C01E29515  14.068   9.629  10.649
   42SBC   C01G29516  14.144   9.310  10.843
   42SBC   C01D29517  14.193   9.647  10.587
   42SBC   C01A29518  14.416   9.662  10.417
   42SBC   H00129519  14.499   9.659  10.348
   42SBC   C01F29520  14.376   9.346  10.681
   42SBC   C03P29521  14.593   9.173  10.704
   42SBC   C03T29522  14.493   9.057  10.878
   42SBC   C08I29523  14.466   8.861  11.078
   42SBC   C08J29524  14.442   8.758  11.165
   42SBC   C08L29525  14.291   8.638  11.311
   42SBC   C09329526  14.129   8.511  11.452
   42SBC   C08Z29527  13.922   8.658  11.345
   42SBC   C09T29528  13.735   8.405  11.698
   42SBC   C09S29529  13.635   8.629  11.443
   42SBC   C09Q29530  13.406   8.807  11.462
   42SBC   C09F29531  13.316   8.809  11.730
   42SBC   C09E29532  13.527   8.519  11.745
   42SBC   C0A029533  13.311   8.742  11.960
   42SBC   C0CU29534  13.372   8.560  12.170
   42SBC   C0CR29535  13.400   8.478  12.283
   42SBC   C0CZ29536  13.487   8.369  12.266
   42SBC   C0DA29537  13.622   8.426  11.797
   42SBC   C0D929538  13.628   8.098  11.944
   42SBC   H00V29539  13.611   8.066  11.842
   42SBC   C0CY29540  13.556   8.351  12.142
   42SBC   C0DF29541  13.643   8.028  12.075
   42SBC   C0DE29542  13.606   7.909  12.146
   42SBC   C0GI29543  13.575   7.783  12.097
   42SBC   H01K29544  13.596   7.760  11.994
   42SBC   C0GJ29545  13.519   7.693  12.184
   42SBC   H01J29546  13.489   7.597  12.143
   42SBC   O00I29547  13.485   7.723  12.317
   42SBC   C0GH29548  13.525   7.841  12.375
   42SBC   C0GG29549  13.487   7.860  12.512
   42SBC   O00G29550  13.450   7.747  12.579
   42SBC   C0G829551  13.409   7.753  12.711
   42SBC   C0G929552  13.390   7.631  12.778
   42SBC   H01G29553  13.409   7.540  12.723
   42SBC   C0GA29554  13.354   7.635  12.913
   42SBC   H01H29555  13.337   7.542  12.966
   42SBC   C0GB29556  13.322   7.747  12.987
   42SBC   C0EP29557  13.317   7.866  12.913
   42SBC   C0E829558  13.242   7.977  12.979
   42SBC   C0CK29559  13.197   8.106  12.943
   42SBC   C0CL29560  13.279   8.179  12.857
   42SBC   C0E929561  13.375   8.125  12.765
   42SBC   C0GE29562  13.412   7.994  12.708
   42SBC   C0E729563  13.222   7.975  13.114
   42SBC   C0CJ29564  13.173   8.090  13.170
   42SBC   C0E629565  13.192   8.107  13.314
   42SBC   H00Y29566  13.173   8.201  13.362
   42SBC   C0EO29567  13.209   7.983  13.385
   42SBC   H01129568  13.218   7.992  13.492
   42SBC   C0G629569  13.238   7.858  13.327
   42SBC   C0G529570  13.268   7.734  13.404
   42SBC   H01F29571  13.265   7.727  13.511
   42SBC   C0GD29572  13.297   7.620  13.331
   42SBC   H01I29573  13.297   7.526  13.385
   42SBC   O00H29574  13.315   7.624  13.192
   42SBC   C0EQ29575  13.252   7.856  13.188
   42SBC   C0GC29576  13.300   7.743  13.126
   42SBC   C0G729577  13.374   7.877  12.781
   42SBC   C0DD29578  13.583   7.938  12.286
   42SBC   C0GF29579  13.483   7.986  12.585
   42SBC   C0CO29580  13.434   8.239  12.717
   42SBC   C0D029581  13.504   8.285  12.382
   42SBC   C0C429582  13.335   8.501  12.412
   42SBC   C0CN29583  13.389   8.359  12.770
   42SBC   C0CP29584  13.118   8.551  12.666
   42SBC   C0CM29585  13.293   8.323  12.870
   42SBC   C0CI29586  13.146   8.179  13.060
   42SBC   C0CD29587  12.902   8.493  13.338
   42SBC   C0BR29588  12.996   8.537  12.978
   42SBC   C0CS29589  12.921   8.766  12.912
   42SBC   C0B629590  12.801   9.012  12.985
   42SBC   C0CG29591  12.868   8.721  13.275
   42SBC   C0CF29592  12.878   8.624  13.373
   42SBC   C0E529593  12.878   8.426  13.567
   42SBC   C0DT29594  12.877   8.495  13.833
   42SBC   C0DL29595  12.814   8.827  13.677
   42SBC   C0DM29596  12.770   8.951  13.709
   42SBC   C0DY29597  12.780   8.895  13.943
   42SBC   C0DU29598  12.877   8.537  13.961
   42SBC   C0F029599  12.843   8.470  14.187
   42SBC   C0F429600  12.723   8.507  14.424
   42SBC   C0FG29601  12.768   8.852  14.311
   42SBC   O00B29602  12.582   8.664  14.551
   42SBC   C0FN29603  12.695   8.959  14.361
   42SBC   C0DZ29604  12.750   8.926  14.075
   42SBC   O00C29605  12.571   9.240  14.044
   42SBC   C0FR29606  12.550   9.335  13.960
   42SBC   O00D29607  12.497   9.437  14.004
   42SBC   C0E029608  12.748   8.987  13.842
   42SBC   C0E329609  12.585   9.315  13.822
   42SBC   C0AW29610  12.582   9.419  13.725
   42SBC   C0AV29611  12.544   9.553  13.746
   42SBC   H00Q29612  12.505   9.599  13.836
   42SBC   C0AU29613  12.519   9.641  13.636
   42SBC   H00R29614  12.478   9.737  13.663
   42SBC   C0AT29615  12.552   9.600  13.506
   42SBC   C0AS29616  12.516   9.648  13.372
   42SBC   C0AR29617  12.441   9.761  13.353
   42SBC   C0BE29618  12.598   9.470  13.491
   42SBC   C0DN29619  12.739   9.041  13.611
   42SBC   C0AX29620  12.613   9.378  13.595
   42SBC   C0BB29621  12.742   9.104  13.374
   42SBC   C0BD29622  12.600   9.440  13.352
   42SBC   C0B229623  12.719   9.169  13.147
   42SBC   C0AH29624  12.657   9.354  12.951
   42SBC   C0BF29625  12.561   9.545  13.271
   42SBC   C0AL29626  12.558   9.569  12.821
   42SBC   C07U29627  12.451   9.765  13.099
   42SBC   C0AQ29628  12.422   9.818  13.224
   42SBC   C0BG29629  12.395   9.867  13.447
   42SBC   C0FY29630  12.136  10.090  13.368
   42SBC   C0BJ29631  12.290   9.849  13.550
   42SBC   H00S29632  12.257   9.758  13.598
   42SBC   C0FZ29633  12.031  10.054  13.454
   42SBC   C07S29634  12.100  10.105  13.224
   42SBC   C0G129635  11.725  10.121  13.269
   42SBC   C07K29636  11.743  10.220  12.912
   42SBC   C07H29637  12.021  10.151  12.952
   42SBC   C06B29638  12.061  10.362  12.679
   42SBC   C06N29639  12.236  10.249  12.581
   42SBC   C06629640  12.248  10.039  12.893
   42SBC   C06229641  12.458   9.869  12.742
   42SBC   C05Y29642  12.415  10.113  12.444
   42SBC   C06129643  12.557   9.834  12.650
   42SBC   C05H29644  12.568   9.850  12.288
   42SBC   C06V29645  12.573   9.702  12.601
   42SBC   C06Y29646  12.658   9.467  12.473
   42SBC   C05C29647  12.702   9.658  12.163
   42SBC   C06Z29648  12.793   9.343  12.324
   42SBC   C07029649  12.915   9.311  12.076
   42SBC   C05B29650  12.755   9.638  12.032
   42SBC   C05729651  12.889   9.608  11.784
   42SBC   C05929652  12.967   9.395  11.854
   43SBC   C05829653   5.359   6.224   4.981
   43SBC   C05A29654   5.424   6.102   5.016
   43SBC   C06Q29655   5.559   6.101   5.041
   43SBC   C06R29656   5.623   5.982   5.075
   43SBC   C06S29657   5.556   5.857   5.071
   43SBC   C06T29658   5.631   5.740   5.110
   43SBC   C06U29659   5.594   5.601   5.102
   43SBC   C06X29660   5.470   5.535   5.088
   43SBC   C06029661   5.494   5.398   5.073
   43SBC   C05Z29662   5.418   5.280   5.118
   43SBC   C06829663   5.519   5.181   5.154
   43SBC   C06729664   5.511   5.032   5.164
   43SBC   C06929665   5.385   4.967   5.133
   43SBC   C06A29666   5.361   4.831   5.097
   43SBC   C07329667   5.444   4.743   5.027
   43SBC   C07P29668   5.392   4.679   4.908
   43SBC   C07O29669   5.269   4.692   4.845
   43SBC   H00D29670   5.194   4.748   4.898
   43SBC   C07N29671   5.227   4.639   4.724
   43SBC   H00E29672   5.127   4.647   4.683
   43SBC   C07M29673   5.314   4.548   4.668
   43SBC   H00F29674   5.294   4.502   4.572
   43SBC   C07L29675   5.438   4.519   4.732
   43SBC   C07Q29676   5.532   4.430   4.670
   43SBC   H00G29677   5.505   4.374   4.582
   43SBC   O00F29678   5.660   4.407   4.718
   43SBC   C07J29679   5.694   4.476   4.830
   43SBC   C07I29680   5.609   4.567   4.895
   43SBC   N00429681   5.649   4.631   5.014
   43SBC   C07R29682   5.780   4.588   5.074
   43SBC   C07T29683   5.865   4.505   4.999
   43SBC   C0FX29684   5.993   4.470   5.039
   43SBC   C0FW29685   6.091   4.409   4.965
   43SBC   C0G029686   6.046   4.357   4.842
   43SBC   C0G229687   6.129   4.275   4.763
   43SBC   H01E29688   6.085   4.229   4.676
   43SBC   C0G329689   6.261   4.257   4.800
   43SBC   H01C29690   6.336   4.203   4.744
   43SBC   C0G429691   6.312   4.327   4.911
   43SBC   H01D29692   6.419   4.318   4.925
   43SBC   O00E29693   5.912   4.374   4.802
   43SBC   C0FV29694   6.226   4.402   5.001
   43SBC   C0FU29695   6.265   4.465   5.122
   43SBC   H01B29696   6.368   4.471   5.154
   43SBC   C0FT29697   6.164   4.528   5.201
   43SBC   C0FS29698   6.156   4.623   5.306
   43SBC   C0BI29699   6.023   4.635   5.354
   43SBC   C0BH29700   6.000   4.746   5.440
   43SBC   C07F29701   5.918   4.859   5.406
   43SBC   C07E29702   5.800   4.857   5.326
   43SBC   C07G29703   5.750   4.755   5.247
   43SBC   C07429704   5.645   4.807   5.173
   43SBC   C06529705   5.738   4.978   5.290
   43SBC   C06429706   5.812   5.094   5.312
   43SBC   C06329707   5.776   5.217   5.257
   43SBC   C07529708   5.892   5.305   5.292
   43SBC   C0AM29709   5.993   5.239   5.369
   43SBC   C0AN29710   6.129   5.283   5.419
   43SBC   C0AO29711   6.199   5.418   5.409
   43SBC   C0B129712   6.334   5.439   5.456
   43SBC   C0B029713   6.404   5.339   5.522
   43SBC   C0AZ29714   6.533   5.351   5.581
   43SBC   C0AY29715   6.596   5.241   5.644
   43SBC   N00729716   6.720   5.248   5.705
   43SBC   C0E229717   6.782   5.136   5.761
   43SBC   C0E129718   6.902   5.157   5.815
   43SBC   C0E429719   6.968   5.050   5.869
   43SBC   C0FF29720   7.089   5.061   5.937
   43SBC   C0FJ29721   7.182   4.965   5.997
   43SBC   C0FK29722   7.222   4.845   5.923
   43SBC   H01629723   7.165   4.808   5.839
   43SBC   C0FL29724   7.366   4.824   5.949
   43SBC   H01729725   7.441   4.765   5.898
   43SBC   C0FM29726   7.406   4.909   6.060
   43SBC   C0FH29727   7.526   4.995   6.087
   43SBC   C0FI29728   7.470   5.123   6.112
   43SBC   C0F329729   7.548   5.233   6.073
   43SBC   C0F229730   7.472   5.337   6.025
   43SBC   C0DW29731   7.336   5.329   5.990
   43SBC   C0FE29732   7.264   5.221   6.020
   43SBC   C0DV29733   7.284   5.424   5.902
   43SBC   C0DX29734   7.154   5.415   5.865
   43SBC   C0DK29735   7.104   5.518   5.785
   43SBC   C0DJ29736   7.179   5.631   5.755
   43SBC   C0DI29737   7.123   5.731   5.681
   43SBC   C0DH29738   6.991   5.724   5.643
   43SBC   C0DG29739   6.919   5.612   5.661
   43SBC   C0BV29740   6.787   5.602   5.619
   43SBC   C0BC29741   6.725   5.480   5.624
   43SBC   C0BA29742   6.723   5.709   5.560
   43SBC   C0B429743   6.597   5.701   5.509
   43SBC   C0B329744   6.537   5.576   5.506
   43SBC   C0B529745   6.539   5.809   5.452
   43SBC   C0BU29746   6.602   5.932   5.446
   43SBC   C0BT29747   6.733   5.945   5.497
   43SBC   C0BS29748   6.809   6.060   5.475
   43SBC   C0CC29749   6.941   6.066   5.506
   43SBC   C0CB29750   7.023   6.181   5.482
   43SBC   C0CH29751   7.162   6.160   5.500
   43SBC   C0DO29752   7.225   6.055   5.548
   43SBC   C0DP29753   7.359   6.052   5.567
   43SBC   C0EA29754   7.447   6.162   5.525
   43SBC   H01229755   7.411   6.254   5.482
   43SBC   O00929756   7.578   6.169   5.553
   43SBC   C0EH29757   7.640   6.056   5.606
   43SBC   C0EG29758   7.780   6.050   5.611
   43SBC   C0EJ29759   7.889   6.142   5.572
   43SBC   H01029760   7.884   6.244   5.536
   43SBC   C0EK29761   8.014   6.069   5.590
   43SBC   H00Z29762   8.111   6.109   5.568
   43SBC   C0EL29763   7.980   5.949   5.661
   43SBC   C0EM29764   8.062   5.841   5.711
   43SBC   C0EW29765   8.202   5.834   5.710
   43SBC   H01329766   8.268   5.910   5.672
   43SBC   C0EX29767   8.272   5.721   5.772
   43SBC   H01429768   8.379   5.724   5.784
   43SBC   C0F129769   8.192   5.615   5.834
   43SBC   C0EU29770   8.051   5.623   5.829
   43SBC   C0ET29771   7.953   5.538   5.886
   43SBC   C0ES29772   7.826   5.600   5.846
   43SBC   C0EE29773   7.847   5.721   5.779
   43SBC   C0ED29774   7.770   5.829   5.725
   43SBC   C0EC29775   7.628   5.835   5.720
   43SBC   C0EB29776   7.537   5.744   5.778
   43SBC   C0EN29777   7.583   5.631   5.859
   43SBC   C0ER29778   7.490   5.548   5.917
   43SBC   C0DS29779   7.400   5.742   5.754
   43SBC   C0DR29780   7.341   5.843   5.680
   43SBC   C0EY29781   7.705   5.562   5.893
   43SBC   C0EZ29782   7.695   5.451   5.971
   43SBC   C0F529783   7.769   5.331   5.996
   43SBC   C0F629784   7.910   5.318   5.986
   43SBC   N00829785   7.964   5.193   6.033
   43SBC   C0F729786   7.884   5.080   6.057
   43SBC   C0FQ29787   7.948   4.959   6.088
   43SBC   H01829788   7.895   4.872   6.122
   43SBC   C0FP29789   8.088   4.942   6.086
   43SBC   H01929790   8.129   4.845   6.111
   43SBC   C0FO29791   8.164   5.056   6.067
   43SBC   H01A29792   8.269   5.033   6.062
   43SBC   C0F829793   7.745   5.094   6.049
   43SBC   C0F929794   8.104   5.184   6.035
   43SBC   C0FA29795   8.195   5.288   6.015
   43SBC   H01529796   8.300   5.269   6.031
   43SBC   C0FB29797   8.140   5.405   5.953
   43SBC   C0FD29798   8.003   5.416   5.944
   43SBC   C0FC29799   8.235   5.501   5.905
   43SBC   O00A29800   8.359   5.493   5.929
   43SBC   C0EV29801   7.990   5.736   5.767
   43SBC   C0EF29802   7.839   5.942   5.666
   43SBC   C0EI29803   7.562   5.950   5.656
   43SBC   C0DQ29804   7.419   5.950   5.642
   43SBC   C0CE29805   7.146   5.951   5.584
   43SBC   H00U29806   7.215   6.248   5.467
   43SBC   C0CA29807   6.964   6.299   5.433
   43SBC   C0C929808   6.836   6.288   5.372
   43SBC   C0C829809   6.803   6.384   5.271
   43SBC   C0C729810   6.674   6.435   5.224
   43SBC   C0C629811   6.687   6.530   5.119
   43SBC   C0C529812   6.605   6.639   5.065
   43SBC   C0CQ29813   6.676   6.742   5.001
   43SBC   C0D129814   6.813   6.748   5.010
   43SBC   C0D829815   6.856   6.874   5.032
   43SBC   C0D729816   6.748   6.956   4.980
   43SBC   C0D629817   6.739   7.098   4.984
   43SBC   C0D529818   6.625   7.175   4.933
   43SBC   C0D429819   6.487   7.133   4.908
   43SBC   C0D329820   6.406   7.241   4.952
   43SBC   C0CX29821   6.278   7.183   4.998
   43SBC   C0CW29822   6.291   7.039   4.984
   43SBC   C0CV29823   6.210   6.918   4.989
   43SBC   C0D229824   6.072   6.921   4.951
   43SBC   C09D29825   6.001   7.034   4.903
   43SBC   C09C29826   5.871   7.025   4.848
   43SBC   C09B29827   5.783   7.131   4.823
   43SBC   C09A29828   5.834   7.258   4.855
   43SBC   C09929829   5.967   7.274   4.880
   43SBC   C09829830   5.980   7.398   4.943
   43SBC   C08Y29831   5.851   7.464   4.959
   43SBC   C08X29832   5.819   7.579   5.032
   43SBC   C08W29833   5.921   7.650   5.110
   43SBC   C08U29834   6.056   7.610   5.147
   43SBC   C08V29835   6.120   7.485   5.130
   43SBC   C0DC29836   6.238   7.494   5.210
   43SBC   H00W29837   6.304   7.408   5.213
   43SBC   C0DB29838   6.250   7.622   5.261
   43SBC   H00X29839   6.329   7.666   5.321
   43SBC   C08T29840   6.136   7.694   5.228
   43SBC   C08S29841   6.100   7.819   5.265
   43SBC   H00N29842   6.162   7.880   5.330
   43SBC   C08R29843   5.971   7.861   5.246
   43SBC   C08Q29844   5.925   7.990   5.291
   43SBC   H00O29845   6.003   8.055   5.327
   43SBC   C08P29846   5.792   8.032   5.287
   43SBC   C08O29847   5.745   8.155   5.343
   43SBC   H00P29848   5.814   8.228   5.384
   43SBC   C08N29849   5.599   8.184   5.339
   43SBC   C08M29850   5.549   8.315   5.387
   43SBC   O00829851   5.611   8.418   5.418
   43SBC   O00729852   5.411   8.334   5.396
   43SBC   C08H29853   5.322   8.230   5.370
   43SBC   C08G29854   5.185   8.248   5.387
   43SBC   C03V29855   5.112   8.356   5.437
   43SBC   H00929856   5.175   8.441   5.461
   43SBC   C03U29857   4.970   8.354   5.458
   43SBC   C03W29858   4.896   8.464   5.511
   43SBC   H00A29859   4.936   8.560   5.541
   43SBC   C03X29860   4.762   8.456   5.521
   43SBC   H00B29861   4.707   8.545   5.547
   43SBC   O00529862   4.694   8.337   5.508
   43SBC   C03O29863   4.763   8.233   5.457
   43SBC   C03N29864   4.703   8.110   5.446
   43SBC   O00029865   4.580   8.100   5.504
   43SBC   C01929866   4.520   7.979   5.505
   43SBC   C01829867   4.574   7.865   5.439
   43SBC   C01729868   4.696   7.878   5.379
   43SBC   C01629869   4.753   7.773   5.306
   43SBC   C01529870   4.678   7.662   5.307
   43SBC   C01429871   4.724   7.556   5.222
   43SBC   C01329872   4.851   7.550   5.157
   43SBC   C01229873   4.859   7.418   5.093
   43SBC   C01129874   4.727   7.367   5.112
   43SBC   C01029875   4.695   7.251   5.059
   43SBC   C00Z29876   4.585   7.178   5.078
   43SBC   C00Y29877   4.614   7.054   5.017
   43SBC   C01O29878   4.737   7.052   4.958
   43SBC   C01P29879   4.813   6.935   4.952
   43SBC   C02L29880   4.948   6.951   4.937
   43SBC   C02K29881   5.000   7.087   4.944
   43SBC   C01M29882   4.918   7.202   4.976
   43SBC   C02J29883   5.138   7.096   4.910
   43SBC   C02I29884   5.220   7.206   4.895
   43SBC   C02H29885   5.182   7.338   4.923
   43SBC   C01Q29886   5.071   7.404   4.985
   43SBC   C02G29887   5.106   7.539   5.024
   43SBC   C08929888   5.236   7.554   4.961
   43SBC   C08829889   5.303   7.649   5.032
   43SBC   C08729890   5.197   7.715   5.118
   43SBC   C08629891   5.209   7.831   5.199
   43SBC   C03S29892   5.097   7.906   5.261
   43SBC   N00629893   5.158   8.022   5.297
   43SBC   C08F29894   5.290   8.022   5.274
   43SBC   C01J29895   4.961   7.893   5.287
   43SBC   C03R29896   4.896   8.006   5.342
   43SBC   C03Q29897   4.966   8.123   5.382
   43SBC   C08E29898   5.327   7.908   5.212
   43SBC   C08D29899   5.464   7.877   5.183
   43SBC   C08K29900   5.559   7.970   5.235
   43SBC   C08C29901   5.516   7.768   5.110
   43SBC   C09129902   5.653   7.743   5.108
   43SBC   C09229903   5.749   7.827   5.168
   43SBC   C08B29904   5.451   7.674   5.026
   43SBC   C09029905   5.558   7.586   4.983
   43SBC   C09429906   5.537   7.474   4.893
   43SBC   C09529907   5.634   7.383   4.854
   43SBC   C09R29908   5.578   7.251   4.825
   43SBC   C09729909   5.441   7.263   4.847
   43SBC   C09629910   5.413   7.400   4.877
   43SBC   C01I29911   5.069   7.650   5.110
   43SBC   C08A29912   5.282   7.434   4.912
   43SBC   C09L29913   5.344   7.164   4.854
   43SBC   C09K29914   5.343   7.019   4.846
   43SBC   C09J29915   5.455   6.938   4.812
   43SBC   C09I29916   5.463   6.805   4.836
   43SBC   C09O29917   5.373   6.694   4.872
   43SBC   C09N29918   5.233   6.713   4.899
   43SBC   C09M29919   5.160   6.839   4.898
   43SBC   C06O29920   5.163   6.593   4.928
   43SBC   C05M29921   5.230   6.469   4.934
   43SBC   C06P29922   5.370   6.457   4.929
   43SBC   C04229923   5.158   6.349   4.953
   43SBC   C04129924   5.014   6.347   4.963
   43SBC   C04029925   4.945   6.230   4.982
   43SBC   C03Z29926   4.809   6.228   5.005
   43SBC   C03Y29927   4.744   6.343   5.014
   43SBC   C02729928   4.605   6.351   5.041
   43SBC   C02629929   4.540   6.471   5.047
   43SBC   C02829930   4.402   6.474   5.085
   43SBC   C02929931   4.338   6.357   5.116
   43SBC   C02B29932   4.210   6.363   5.170
   43SBC   C02C29933   4.146   6.250   5.206
   43SBC   C02X29934   4.021   6.251   5.269
   43SBC   C03E29935   3.968   6.136   5.314
   43SBC   C03G29936   4.019   6.013   5.299
   43SBC   C04Q29937   4.145   6.006   5.236
   43SBC   C04R29938   4.208   5.886   5.223
   43SBC   C04S29939   4.338   5.881   5.181
   43SBC   C04L29940   4.405   5.998   5.138
   43SBC   C04M29941   4.338   6.116   5.144
   43SBC   C04K29942   4.535   5.991   5.099
   43SBC   C04F29943   4.606   5.874   5.103
   43SBC   C04E29944   4.541   5.757   5.138
   43SBC   C04D29945   4.614   5.640   5.141
   43SBC   C05029946   4.551   5.524   5.182
   43SBC   C05129947   4.625   5.404   5.186
   43SBC   C05Q29948   4.563   5.284   5.226
   43SBC   C05V29949   4.641   5.170   5.244
   43SBC   N00529950   4.575   5.057   5.289
   43SBC   C07V29951   4.446   5.067   5.342
   43SBC   C08229952   4.389   4.948   5.393
   43SBC   C08129953   4.433   4.825   5.366
   43SBC   C07C29954   4.565   4.816   5.316
   43SBC   C07B29955   4.623   4.689   5.309
   43SBC   C08029956   4.551   4.573   5.331
   43SBC   C07Z29957   4.616   4.452   5.302
   43SBC   H00L29958   4.560   4.361   5.314
   43SBC   C07929959   4.749   4.443   5.250
   43SBC   C07829960   4.820   4.560   5.239
   43SBC   C07729961   4.955   4.557   5.196
   43SBC   C07X29962   5.017   4.430   5.162
   43SBC   H00I29963   5.119   4.420   5.126
   43SBC   C07Y29964   4.944   4.314   5.171
   43SBC   H00H29965   4.996   4.222   5.149
   43SBC   C07629966   5.025   4.676   5.177
   43SBC   C06C29967   5.163   4.670   5.144
   43SBC   H00C29968   5.221   4.582   5.120
   43SBC   C06F29969   4.962   4.796   5.198
   43SBC   C06E29970   5.029   4.917   5.177
   43SBC   C06G29971   4.978   5.040   5.181
   43SBC   C06H29972   4.840   5.044   5.209
   43SBC   C06I29973   4.772   4.926   5.240
   43SBC   C06L29974   5.054   5.157   5.151
   43SBC   C06M29975   5.198   5.156   5.131
   43SBC   C06K29976   4.982   5.277   5.136
   43SBC   C05S29977   4.839   5.281   5.162
   43SBC   C05U29978   5.047   5.398   5.101
   43SBC   C05X29979   5.189   5.397   5.090
   43SBC   C05G29980   5.231   5.533   5.060
   43SBC   C05F29981   5.140   5.632   5.029
   43SBC   C05E29982   5.209   5.749   5.016
   43SBC   C04829983   5.142   5.869   5.007
   43SBC   C05629984   5.219   5.988   5.000
   43SBC   C04529985   5.150   6.108   4.988
   43SBC   C04729986   5.004   5.867   5.006
   43SBC   C04929987   4.938   5.746   5.034
   43SBC   C04B29988   4.808   5.752   5.070
   43SBC   C04629989   4.944   5.988   5.006
   43SBC   C04H29990   4.807   5.987   5.034
   43SBC   C05D29991   5.342   5.743   5.041
   43SBC   C04A29992   5.002   5.624   5.039
   43SBC   C05T29993   4.959   5.511   5.092
   43SBC   C05529994   4.824   5.515   5.118
   43SBC   C06D29995   5.167   4.915   5.143
   43SBC   C07W29996   4.829   4.801   5.232
   43SBC   C08529997   4.813   4.326   5.217
   43SBC   H00M29998   4.761   4.233   5.233
   43SBC   C08429999   4.428   4.580   5.379
   43SBC   H00J30000   4.382   4.484   5.399
   43SBC   C07A30001   4.757   4.683   5.262
   43SBC   C08330002   4.366   4.702   5.400
   43SBC   H00K30003   4.265   4.701   5.440
   43SBC   O00K30004   4.284   4.969   5.474
   43SBC   C0GO30005   4.219   5.085   5.472
   43SBC   C0GN30006   4.107   5.090   5.555
   43SBC   H01L30007   4.086   5.011   5.626
   43SBC   C0GM30008   4.030   5.206   5.561
   43SBC   C0GL30009   3.921   5.213   5.641
   43SBC   H01M30010   3.896   5.132   5.707
   43SBC   O00J30011   3.835   5.323   5.636
   43SBC   C0GK30012   3.875   5.426   5.558
   43SBC   H01N30013   3.815   5.515   5.575
   43SBC   C05K30014   3.989   5.429   5.487
   43SBC   C05J30015   4.029   5.544   5.404
   43SBC   C04Y30016   3.962   5.670   5.394
   43SBC   C04X30017   4.019   5.785   5.332
   43SBC   O00630018   3.846   5.683   5.459
   43SBC   C05330019   3.798   5.804   5.497
   43SBC   C04O30020   3.847   5.916   5.437
   43SBC   C03C30021   3.801   6.052   5.463
   43SBC   C03B30022   3.704   6.121   5.547
   43SBC   C05430023   3.635   6.056   5.651
   43SBC   C0GR30024   3.570   6.116   5.756
   43SBC   C03M30025   3.533   6.253   5.792
   43SBC   C03I30026   3.584   6.370   5.719
   43SBC   C03J30027   3.548   6.498   5.777
   43SBC   N00230028   3.600   6.622   5.728
   43SBC   C02U30029   3.578   6.745   5.790
   43SBC   C02T30030   3.641   6.863   5.751
   43SBC   C02Z30031   3.616   6.980   5.820
   43SBC   N00130032   3.695   7.096   5.788
   43SBC   C02R30033   3.685   7.210   5.874
   43SBC   C03230034   3.611   7.206   5.991
   43SBC   C03130035   3.532   7.089   6.022
   43SBC   H00730036   3.469   7.089   6.110
   43SBC   C03330037   3.607   7.333   6.072
   43SBC   H00330038   3.548   7.335   6.163
   43SBC   O00430039   3.671   7.443   6.031
   43SBC   C03430040   3.735   7.442   5.910
   43SBC   C03530041   3.789   7.566   5.872
   43SBC   C03630042   3.846   7.576   5.743
   43SBC   H00530043   3.864   7.677   5.707
   43SBC   C03730044   3.866   7.461   5.670
   43SBC   H00630045   3.912   7.470   5.572
   43SBC   C00D30046   3.823   7.334   5.719
   43SBC   C00C30047   3.855   7.220   5.651
   43SBC   C00B30048   3.962   7.205   5.546
   43SBC   C00A30049   4.075   7.284   5.480
   43SBC   C00930050   4.125   7.192   5.379
   43SBC   C00830051   4.244   7.189   5.314
   43SBC   C00730052   4.323   7.302   5.320
   43SBC   C00630053   4.442   7.305   5.246
   43SBC   C00530054   4.521   7.423   5.265
   43SBC   C00430055   4.476   7.529   5.353
   43SBC   C00330056   4.359   7.513   5.426
   43SBC   C00230057   4.324   7.611   5.517
   43SBC   C01C30058   4.383   7.733   5.511
   43SBC   C01B30059   4.328   7.849   5.571
   43SBC   H00030060   4.229   7.838   5.612
   43SBC   C00130061   4.226   7.587   5.614
   43SBC   C00030062   4.182   7.453   5.617
   43SBC   C01U30063   4.142   7.431   5.750
   43SBC   H00230064   4.120   7.337   5.797
   43SBC   C01T30065   4.153   7.564   5.817
   43SBC   O00230066   4.120   7.586   5.932
   43SBC   O00130067   4.212   7.648   5.733
   43SBC   C01S30068   4.290   7.395   5.417
   43SBC   C00N30069   4.280   7.077   5.236
   43SBC   C00M30070   4.203   6.956   5.250
   43SBC   C00J30071   4.096   6.953   5.327
   43SBC   C00I30072   4.019   6.843   5.355
   43SBC   C00H30073   3.911   6.851   5.445
   43SBC   C00G30074   3.881   6.971   5.507
   43SBC   C00F30075   3.795   6.982   5.614
   43SBC   C01X30076   3.851   6.736   5.484
   43SBC   C01W30077   3.890   6.619   5.419
   43SBC   C01V30078   3.995   6.612   5.331
   43SBC   C02030079   4.040   6.495   5.276
   43SBC   C01Z30080   3.825   6.504   5.461
   43SBC   C02Y30081   3.865   6.392   5.397
   43SBC   C03930082   3.805   6.274   5.430
   43SBC   C02W30083   3.730   6.499   5.566
   43SBC   C01Y30084   3.753   6.745   5.584
   43SBC   C00U30085   4.064   6.727   5.298
   43SBC   C00S30086   4.173   6.723   5.220
   43SBC   C00T30087   4.217   6.602   5.166
   43SBC   C00R30088   4.242   6.838   5.191
   43SBC   C00Q30089   4.358   6.838   5.121
   43SBC   C00V30090   4.410   6.712   5.081
   43SBC   C02430091   4.540   6.710   5.030
   43SBC   C00X30092   4.611   6.823   5.010
   43SBC   C00P30093   4.426   6.950   5.106
   43SBC   C00O30094   4.388   7.075   5.162
   43SBC   C00K30095   4.063   7.073   5.389
   43SBC   N00030096   4.181   7.368   5.514
   43SBC   C00L30097   3.969   7.077   5.486
   43SBC   H00430098   3.762   7.650   5.933
   43SBC   C02Q30099   3.746   7.328   5.829
   43SBC   C00E30100   3.785   7.099   5.683
   43SBC   C03030101   3.536   6.978   5.937
   43SBC   O00330102   3.462   6.862   5.966
   43SBC   C02S30103   3.723   6.865   5.646
   43SBC   C03830104   3.489   6.746   5.900
   43SBC   C03L30105   3.423   6.631   5.941
   43SBC   H00830106   3.352   6.635   6.021
   43SBC   C02V30107   3.687   6.622   5.619
   43SBC   C03K30108   3.462   6.510   5.882
   43SBC   C0BK30109   3.420   6.388   5.942
   43SBC   H00T30110   3.357   6.394   6.030
   43SBC   C03H30111   3.674   6.377   5.610
   43SBC   C0BL30112   3.462   6.260   5.913
   43SBC   C0GU30113   3.416   6.151   5.986
   43SBC   H01O30114   3.360   6.161   6.078
   43SBC   C0GT30115   3.444   6.018   5.952
   43SBC   H01P30116   3.410   5.933   6.010
   43SBC   C0GS30117   3.520   6.012   5.843
   43SBC   C0GV30118   3.562   5.887   5.781
   43SBC   C0GW30119   3.550   5.759   5.845
   43SBC   H01Q30120   3.490   5.752   5.935
   43SBC   C0GX30121   3.615   5.662   5.783
   43SBC   H01R30122   3.623   5.567   5.833
   43SBC   O00L30123   3.686   5.679   5.665
   43SBC   C0GQ30124   3.635   5.912   5.667
   43SBC   C03A30125   3.711   6.260   5.534
   43SBC   C05L30126   3.702   5.804   5.608
   43SBC   C04W30127   4.151   5.537   5.330
   43SBC   C05I30128   4.230   5.420   5.333
   43SBC   C05O30129   4.191   5.312   5.408
   43SBC   C05230130   4.359   5.416   5.276
   43SBC   C04V30131   4.206   5.647   5.269
   43SBC   C04U30132   4.338   5.644   5.214
   43SBC   N00930133   4.069   5.316   5.483
   43SBC   C0GP30134   4.266   5.200   5.408
   43SBC   C05W30135   4.384   5.190   5.341
   43SBC   C07D30136   4.636   4.929   5.279
   43SBC   C06J30137   4.773   5.162   5.202
   43SBC   C05P30138   4.435   5.298   5.279
   43SBC   C05R30139   4.760   5.398   5.151
   43SBC   C04Z30140   4.413   5.526   5.211
   43SBC   C04C30141   4.749   5.632   5.101
   43SBC   C04G30142   4.739   5.875   5.064
   43SBC   C04J30143   4.600   6.111   5.066
   43SBC   C04T30144   4.406   5.758   5.174
   43SBC   N00330145   4.140   5.773   5.267
   43SBC   C04P30146   3.958   5.903   5.350
   43SBC   C03D30147   3.851   6.152   5.381
   43SBC   C02130148   3.976   6.376   5.315
   43SBC   C03F30149   4.207   6.127   5.194
   43SBC   C02230150   4.152   6.490   5.196
   43SBC   C02A30151   4.404   6.237   5.110
   43SBC   C02330152   4.340   6.594   5.104
   43SBC   C02530153   4.606   6.589   5.027
   43SBC   C02D30154   4.742   6.586   4.990
   43SBC   C02E30155   4.811   6.706   4.965
   43SBC   C02N30156   4.948   6.710   4.942
   43SBC   C04N30157   4.534   6.233   5.071
   43SBC   C02P30158   4.810   6.466   4.984
   43SBC   C04I30159   4.739   6.109   5.034
   43SBC   C04430160   5.012   6.109   4.990
   43SBC   C04330161   4.949   6.471   4.961
   43SBC   C05N30162   5.021   6.590   4.941
   43SBC   C09U30163   5.441   6.570   4.899
   43SBC   C09V30164   5.580   6.560   4.912
   43SBC   C09X30165   5.666   6.665   4.886
   43SBC   C09Y30166   5.802   6.672   4.914
   43SBC   C0A130167   5.857   6.561   4.973
   43SBC   C0A230168   5.781   6.446   4.996
   43SBC   C0A430169   5.836   6.334   5.057
   43SBC   C07130170   5.764   6.220   5.064
   43SBC   C0A530171   5.823   6.108   5.119
   43SBC   C0A930172   5.951   6.118   5.176
   43SBC   C0A830173   6.017   6.238   5.172
   43SBC   C0AP30174   6.145   6.241   5.218
   43SBC   C0BY30175   6.210   6.357   5.207
   43SBC   C0BX30176   6.172   6.465   5.128
   43SBC   C0C230177   6.251   6.577   5.110
   43SBC   C0C330178   6.191   6.688   5.058
   43SBC   C0CT30179   6.060   6.687   5.016
   43SBC   C0C130180   6.386   6.569   5.135
   43SBC   C0C030181   6.430   6.460   5.223
   43SBC   C0A730182   6.038   6.458   5.087
   43SBC   C0BZ30183   6.335   6.369   5.260
   43SBC   C0BO30184   6.396   6.261   5.320
   43SBC   C0BN30185   6.329   6.138   5.328
   43SBC   C0BM30186   6.403   6.031   5.360
   43SBC   C0B930187   6.343   5.908   5.360
   43SBC   C0B830188   6.210   5.897   5.316
   43SBC   C0AD30189   6.141   6.013   5.271
   43SBC   C0AF30190   6.149   5.773   5.313
   43SBC   C0AG30191   6.214   5.658   5.349
   43SBC   C0B730192   6.341   5.668   5.398
   43SBC   C0AE30193   6.023   5.774   5.267
   43SBC   C0AB30194   5.955   5.882   5.213
   43SBC   C0AA30195   5.825   5.876   5.161
   43SBC   C0AJ30196   5.962   5.654   5.256
   43SBC   C0AK30197   5.835   5.645   5.204
   43SBC   C06W30198   5.806   5.518   5.193
   43SBC   C0AI30199   6.014   5.529   5.289
   43SBC   C0BP30200   6.529   6.274   5.339
   43SBC   C0BQ30201   6.608   6.159   5.380
   43SBC   C0BW30202   6.206   6.133   5.277
   43SBC   C0AC30203   6.014   6.004   5.222
   43SBC   C0A630204   5.962   6.343   5.107
   43SBC   C0A330205   5.987   6.568   5.018
   43SBC   C09Z30206   5.876   6.788   4.899
   43SBC   C09W30207   5.647   6.448   4.961
   43SBC   C07230208   5.574   6.331   4.985
   43SBC   C09H30209   5.600   6.775   4.835
   43SBC   C09G30210   5.676   6.890   4.814
   43SBC   C09P30211   5.585   6.993   4.803
   43SBC   C02O30212   5.216   6.973   4.876
   43SBC   C02M30213   5.018   6.833   4.919
   43SBC   C02F30214   4.743   6.821   4.966
   43SBC   C00W30215   4.546   6.941   5.041
   43SBC   C01R30216   4.467   7.191   5.164
   43SBC   C01N30217   4.795   7.172   4.995
   43SBC   C01L30218   4.958   7.340   5.018
   43SBC   C01H30219   4.941   7.664   5.178
   43SBC   C01K30220   4.650   7.441   5.199
   43SBC   C01E30221   4.552   7.642   5.364
   43SBC   C01G30222   4.885   7.780   5.251
   43SBC   C01D30223   4.501   7.747   5.435
   43SBC   C01A30224   4.397   7.971   5.566
   43SBC   H00130225   4.356   8.057   5.618
   43SBC   C01F30226   4.766   7.996   5.386
   43SBC   C03P30227   4.902   8.237   5.428
   43SBC   C03T30228   5.106   8.132   5.364
   43SBC   C08I30229   5.377   8.119   5.313
   43SBC   C08J30230   5.513   8.094   5.294
   43SBC   C08L30231   5.700   7.941   5.231
   43SBC   C09330232   5.880   7.779   5.174
   43SBC   C08Z30233   5.687   7.624   5.041
   43SBC   C09T30234   6.092   7.385   5.028
   43SBC   C09S30235   5.766   7.378   4.881
   43SBC   C09Q30236   5.641   7.125   4.809
   43SBC   C09F30237   5.813   6.899   4.846
   43SBC   C09E30238   6.041   7.169   4.929
   43SBC   C0A030239   6.004   6.800   4.951
   43SBC   C0CU30240   6.272   6.798   5.028
   43SBC   C0CR30241   6.412   6.779   5.026
   43SBC   C0CZ30242   6.490   6.887   4.980
   43SBC   C0DA30243   6.145   7.243   4.997
   43SBC   C0D930244   6.492   7.342   5.016
   43SBC   H00V30245   6.462   7.437   5.059
   43SBC   C0CY30246   6.425   7.012   4.944
   43SBC   C0DF30247   6.631   7.301   5.002
   43SBC   C0DE30248   6.758   7.311   5.065
   43SBC   C0GI30249   6.831   7.425   5.120
   43SBC   H01K30250   6.787   7.522   5.134
   43SBC   C0GJ30251   6.957   7.405   5.159
   43SBC   H01J30252   7.014   7.481   5.211
   43SBC   O00I30253   7.020   7.280   5.153
   43SBC   C0GH30254   6.961   7.177   5.092
   43SBC   C0GG30255   7.022   7.047   5.123
   43SBC   O00G30256   7.150   7.064   5.174
   43SBC   C0G830257   7.209   6.961   5.250
   43SBC   C0G930258   7.327   6.998   5.309
   43SBC   H01G30259   7.371   7.095   5.291
   43SBC   C0GA30260   7.387   6.911   5.397
   43SBC   H01H30261   7.471   6.957   5.447
   43SBC   C0GB30262   7.333   6.788   5.442
   43SBC   C0EP30263   7.215   6.748   5.364
   43SBC   C0E830264   7.147   6.631   5.416
   43SBC   C0CK30265   7.040   6.543   5.373
   43SBC   C0CL30266   6.991   6.551   5.238
   43SBC   C0E930267   6.978   6.673   5.166
   43SBC   C0GE30268   7.038   6.809   5.180
   43SBC   C0E730269   7.186   6.570   5.540
   43SBC   C0CJ30270   7.115   6.448   5.572
   43SBC   C0E630271   7.142   6.386   5.691
   43SBC   H00Y30272   7.090   6.298   5.724
   43SBC   C0EO30273   7.263   6.429   5.754
   43SBC   H01130274   7.289   6.364   5.836
   43SBC   C0G630275   7.343   6.539   5.717
   43SBC   C0G530276   7.470   6.579   5.776
   43SBC   H01F30277   7.519   6.517   5.849
   43SBC   C0GD30278   7.527   6.694   5.733
   43SBC   H01I30279   7.616   6.729   5.784
   43SBC   O00H30280   7.490   6.768   5.626
   43SBC   C0EQ30281   7.297   6.618   5.604
   43SBC   C0GC30282   7.377   6.723   5.561
   43SBC   C0G730283   7.149   6.834   5.267
   43SBC   C0DD30284   6.831   7.189   5.046
   43SBC   C0GF30285   6.978   6.914   5.101
   43SBC   C0CO30286   6.875   6.648   5.073
   43SBC   C0D030287   6.630   6.868   4.984
   43SBC   C0C430288   6.467   6.661   5.080
   43SBC   C0CN30289   6.819   6.521   5.087
   43SBC   C0CP30290   6.551   6.408   5.282
   43SBC   C0CM30291   6.896   6.451   5.185
   43SBC   C0CI30292   7.036   6.422   5.456
   43SBC   C0CD30293   7.006   5.953   5.560
   43SBC   C0BR30294   6.748   6.171   5.402
   43SBC   C0CS30295   6.537   6.039   5.395
   43SBC   C0B630296   6.408   5.794   5.399
   43SBC   C0CG30297   6.793   5.832   5.551
   43SBC   C0CF30298   6.928   5.838   5.580
   43SBC   C0E530299   7.201   5.842   5.651
   43SBC   C0DT30300   7.313   5.637   5.793
   43SBC   C0DL30301   6.974   5.505   5.737
   43SBC   C0DM30302   6.908   5.383   5.745
   43SBC   C0DY30303   7.085   5.295   5.884
   43SBC   C0DU30304   7.358   5.534   5.868
   43SBC   C0F030305   7.551   5.444   5.988
   43SBC   C0F430306   7.690   5.224   6.051
   43SBC   C0FG30307   7.329   5.117   6.092
   43SBC   O00B30308   7.661   4.982   6.070
   43SBC   C0FN30309   7.287   4.987   6.090
   43SBC   C0DZ30310   7.140   5.189   5.951
   43SBC   O00C30311   6.910   4.923   5.871
   43SBC   C0FR30312   6.782   4.897   5.814
   43SBC   O00D30313   6.743   4.781   5.812
   43SBC   C0E030314   6.966   5.276   5.816
   43SBC   C0E330315   6.716   5.011   5.762
   43SBC   C0AW30316   6.585   5.009   5.714
   43SBC   C0AV30317   6.506   4.885   5.707
   43SBC   H00Q30318   6.530   4.791   5.756
   43SBC   C0AU30319   6.375   4.886   5.658
   43SBC   H00R30320   6.319   4.794   5.659
   43SBC   C0AT30321   6.320   5.005   5.601
   43SBC   C0AS30322   6.204   5.045   5.520
   43SBC   C0AR30323   6.123   4.948   5.468
   43SBC   C0BE30324   6.399   5.120   5.605
   43SBC   C0DN30325   6.782   5.370   5.690
   43SBC   C0AX30326   6.534   5.122   5.654
   43SBC   C0BB30327   6.598   5.469   5.570
   43SBC   C0BD30328   6.341   5.219   5.536
   43SBC   C0B230329   6.404   5.560   5.448
   43SBC   C0AH30330   6.142   5.531   5.354
   43SBC   C0BF30331   6.210   5.189   5.487
   43SBC   C0AL30332   5.910   5.437   5.248
   43SBC   C07U30333   5.942   5.106   5.382
   43SBC   C0AQ30334   5.992   4.979   5.429
   43SBC   C0BG30335   6.131   4.802   5.468
   43SBC   C0FY30336   5.947   4.595   5.242
   43SBC   C0BJ30337   6.226   4.730   5.381
   43SBC   H00S30338   6.329   4.757   5.363
   43SBC   C0FZ30339   6.034   4.522   5.161
   43SBC   C07S30340   5.825   4.645   5.194
   43SBC   C0G130341   5.825   4.450   4.879
   43SBC   C07K30342   5.482   4.593   4.846
   43SBC   C07H30343   5.575   4.735   5.075
   43SBC   C06B30344   5.231   4.797   5.131
   43SBC   C06N30345   5.254   5.023   5.136
   43SBC   C06630346   5.620   4.947   5.208
   43SBC   C06230347   5.650   5.252   5.175
   43SBC   C05Y30348   5.269   5.277   5.112
   43SBC   C06130349   5.628   5.373   5.107
   43SBC   C05H30350   5.354   5.601   5.059
   43SBC   C06V30351   5.688   5.495   5.135
   43SBC   C06Y30352   5.763   5.758   5.157
   43SBC   C05C30353   5.423   5.862   5.046
   43SBC   C06Z30354   5.756   5.988   5.122
   43SBC   C07030355   5.632   6.215   5.029
   43SBC   C05B30356   5.356   5.982   5.012
   43SBC   C05730357   5.223   6.227   4.972
   43SBC   C05930358   5.434   6.336   4.967
   44SBC   C05830359   4.910   2.116   9.678
   44SBC   C05A30360   4.971   1.994   9.635
   44SBC   C06Q30361   4.889   1.891   9.579
   44SBC   C06R30362   4.940   1.780   9.515
   44SBC   C06S30363   5.082   1.765   9.499
   44SBC   C06T30364   5.124   1.665   9.409
   44SBC   C06U30365   5.257   1.638   9.357
   44SBC   C06X30366   5.383   1.690   9.384
   44SBC   C06030367   5.472   1.643   9.273
   44SBC   C05Z30368   5.610   1.610   9.287
   44SBC   C06830369   5.622   1.472   9.226
   44SBC   C06730370   5.744   1.385   9.216
   44SBC   C06930371   5.876   1.452   9.232
   44SBC   C06A30372   6.007   1.390   9.218
   44SBC   C07330373   6.061   1.265   9.258
   44SBC   C07P30374   6.195   1.262   9.301
   44SBC   C07O30375   6.256   1.339   9.397
   44SBC   H00D30376   6.190   1.404   9.453
   44SBC   C07N30377   6.392   1.357   9.400
   44SBC   H00E30378   6.429   1.421   9.478
   44SBC   C07M30379   6.475   1.295   9.308
   44SBC   H00F30380   6.579   1.321   9.299
   44SBC   C07L30381   6.418   1.198   9.222
   44SBC   C07Q30382   6.492   1.129   9.125
   44SBC   H00G30383   6.596   1.153   9.106
   44SBC   O00F30384   6.435   1.032   9.044
   44SBC   C07J30385   6.298   1.001   9.062
   44SBC   C07I30386   6.221   1.080   9.154
   44SBC   N00430387   6.079   1.057   9.161
   44SBC   C07R30388   6.024   0.939   9.106
   44SBC   C07T30389   6.105   0.859   9.023
   44SBC   C0FX30390   6.060   0.755   8.941
   44SBC   C0FW30391   6.126   0.696   8.835
   44SBC   C0G030392   6.262   0.734   8.822
   44SBC   C0G230393   6.349   0.673   8.733
   44SBC   H01E30394   6.455   0.691   8.728
   44SBC   C0G330395   6.281   0.584   8.642
   44SBC   H01C30396   6.339   0.531   8.567
   44SBC   C0G430397   6.146   0.552   8.650
   44SBC   H01D30398   6.113   0.481   8.576
   44SBC   O00E30399   6.317   0.824   8.912
   44SBC   C0FV30400   6.060   0.609   8.742
   44SBC   C0FU30401   5.918   0.589   8.757
   44SBC   H01B30402   5.854   0.534   8.690
   44SBC   C0FT30403   5.854   0.647   8.866
   44SBC   C0FS30404   5.721   0.670   8.913
   44SBC   C0BI30405   5.722   0.721   9.050
   44SBC   C0BH30406   5.601   0.778   9.083
   44SBC   C07F30407   5.588   0.922   9.083
   44SBC   C07E30408   5.675   1.016   9.133
   44SBC   C07G30409   5.805   1.010   9.161
   44SBC   C07430410   5.847   1.140   9.179
   44SBC   C06530411   5.630   1.148   9.146
   44SBC   C06430412   5.497   1.180   9.109
   44SBC   C06330413   5.434   1.306   9.118
   44SBC   C07530414   5.294   1.270   9.082
   44SBC   C0AM30415   5.280   1.138   9.027
   44SBC   C0AN30416   5.159   1.068   8.968
   44SBC   C0AO30417   5.011   1.108   8.963
   44SBC   C0B130418   4.912   1.035   8.892
   44SBC   C0B030419   4.941   0.915   8.828
   44SBC   C0AZ30420   4.856   0.830   8.752
   44SBC   C0AY30421   4.909   0.719   8.684
   44SBC   N00730422   4.820   0.633   8.614
   44SBC   C0E230423   4.871   0.520   8.544
   44SBC   C0E130424   4.784   0.446   8.470
   44SBC   C0E430425   4.827   0.322   8.413
   44SBC   C0FF30426   4.746   0.238   8.335
   44SBC   C0FJ30427   4.766   0.108   8.281
   44SBC   C0FK30428   4.856   0.010   8.337
   44SBC   H01630429   4.933   0.035   8.408
   44SBC   C0FL30430   4.786  -0.117   8.317
   44SBC   H01730431   4.801  -0.215   8.360
   44SBC   C0FM30432   4.674  -0.098   8.228
   44SBC   C0FH30433   4.533  -0.140   8.205
   44SBC   C0FI30434   4.473  -0.018   8.176
   44SBC   C0F330435   4.333  -0.002   8.205
   44SBC   C0F230436   4.298   0.127   8.230
   44SBC   C0DW30437   4.381   0.237   8.256
   44SBC   C0FE30438   4.513   0.215   8.245
   44SBC   C0DV30439   4.337   0.350   8.327
   44SBC   C0DX30440   4.427   0.432   8.385
   44SBC   C0DK30441   4.380   0.544   8.458
   44SBC   C0DJ30442   4.243   0.565   8.480
   44SBC   C0DI30443   4.196   0.663   8.562
   44SBC   C0DH30444   4.283   0.752   8.623
   44SBC   C0DG30445   4.416   0.739   8.598
   44SBC   C0BV30446   4.507   0.817   8.674
   44SBC   C0BC30447   4.643   0.786   8.671
   44SBC   C0BA30448   4.462   0.918   8.758
   44SBC   C0B430449   4.547   1.000   8.826
   44SBC   C0B330450   4.681   0.978   8.816
   44SBC   C0B530451   4.500   1.099   8.908
   44SBC   C0BU30452   4.361   1.125   8.919
   44SBC   C0BT30453   4.272   1.046   8.848
   44SBC   C0BS30454   4.132   1.064   8.857
   44SBC   C0CC30455   4.050   0.962   8.817
   44SBC   C0CB30456   3.916   0.960   8.853
   44SBC   C0CH30457   3.852   0.837   8.831
   44SBC   C0DO30458   3.895   0.742   8.741
   44SBC   C0DP30459   3.813   0.638   8.708
   44SBC   C0EA30460   3.674   0.642   8.751
   44SBC   H01230461   3.637   0.710   8.826
   44SBC   O00930462   3.582   0.555   8.698
   44SBC   C0EH30463   3.625   0.468   8.611
   44SBC   C0EG30464   3.528   0.383   8.555
   44SBC   C0EJ30465   3.382   0.377   8.563
   44SBC   H01030466   3.319   0.448   8.615
   44SBC   C0EK30467   3.344   0.247   8.510
   44SBC   H00Z30468   3.241   0.212   8.507
   44SBC   C0EL30469   3.466   0.179   8.473
   44SBC   C0EM30470   3.490   0.041   8.427
   44SBC   C0EW30471   3.394  -0.066   8.410
   44SBC   H01330472   3.289  -0.064   8.433
   44SBC   C0EX30473   3.454  -0.200   8.369
   44SBC   H01430474   3.391  -0.288   8.365
   44SBC   C0F130475   3.597  -0.213   8.336
   44SBC   C0EU30476   3.680  -0.100   8.348
   44SBC   C0ET30477   3.817  -0.099   8.329
   44SBC   C0ES30478   3.849   0.036   8.366
   44SBC   C0EE30479   3.737   0.111   8.407
   44SBC   C0ED30480   3.705   0.241   8.453
   44SBC   C0EC30481   3.803   0.344   8.488
   44SBC   C0EB30482   3.942   0.343   8.456
   44SBC   C0EN30483   3.995   0.234   8.380
   44SBC   C0ER30484   4.124   0.250   8.330
   44SBC   C0DS30485   4.024   0.448   8.483
   44SBC   C0DR30486   3.980   0.549   8.564
   44SBC   C0EY30487   3.967   0.101   8.339
   44SBC   C0EZ30488   4.078   0.032   8.275
   44SBC   C0F530489   4.120  -0.109   8.246
   44SBC   C0F630490   4.035  -0.215   8.257
   44SBC   N00830491   4.096  -0.344   8.229
   44SBC   C0F730492   4.239  -0.358   8.211
   44SBC   C0FQ30493   4.290  -0.487   8.185
   44SBC   H01830494   4.396  -0.499   8.170
   44SBC   C0FP30495   4.211  -0.602   8.174
   44SBC   H01930496   4.260  -0.696   8.151
   44SBC   C0FO30497   4.076  -0.581   8.194
   44SBC   H01A30498   4.011  -0.667   8.182
   44SBC   C0F830499   4.321  -0.241   8.206
   44SBC   C0F930500   4.020  -0.459   8.217
   44SBC   C0FA30501   3.876  -0.450   8.232
   44SBC   H01530502   3.814  -0.539   8.236
   44SBC   C0FB30503   3.813  -0.330   8.269
   44SBC   C0FD30504   3.891  -0.216   8.282
   44SBC   C0FC30505   3.666  -0.332   8.293
   44SBC   O00A30506   3.605  -0.435   8.286
   44SBC   C0EV30507   3.627   0.018   8.399
   44SBC   C0EF30508   3.568   0.273   8.488
   44SBC   C0EI30509   3.755   0.457   8.563
   44SBC   C0DQ30510   3.852   0.546   8.616
   44SBC   C0CE30511   4.018   0.754   8.690
   44SBC   H00U30512   3.757   0.834   8.883
   44SBC   C0CA30513   3.851   1.077   8.895
   44SBC   C0C930514   3.935   1.189   8.940
   44SBC   C0C830515   3.876   1.316   8.965
   44SBC   C0C730516   3.917   1.430   9.048
   44SBC   C0C630517   3.822   1.527   9.073
   44SBC   C0C530518   3.787   1.634   9.163
   44SBC   C0CQ30519   3.648   1.670   9.169
   44SBC   C0D130520   3.556   1.586   9.109
   44SBC   C0D830521   3.442   1.576   9.193
   44SBC   C0D730522   3.449   1.691   9.273
   44SBC   C0D630523   3.355   1.721   9.372
   44SBC   C0D530524   3.364   1.836   9.455
   44SBC   C0D430525   3.468   1.935   9.464
   44SBC   C0D330526   3.453   2.000   9.591
   44SBC   C0CX30527   3.580   2.040   9.638
   44SBC   C0CW30528   3.680   1.957   9.566
   44SBC   C0CV30529   3.826   1.939   9.567
   44SBC   C0D230530   3.908   2.004   9.659
   44SBC   C09D30531   3.869   2.109   9.745
   44SBC   C09C30532   3.965   2.185   9.823
   44SBC   C09B30533   3.942   2.298   9.904
   44SBC   C09A30534   3.807   2.332   9.914
   44SBC   C09930535   3.710   2.263   9.860
   44SBC   C09830536   3.595   2.338   9.844
   44SBC   C08Y30537   3.621   2.471   9.884
   44SBC   C08X30538   3.545   2.593   9.869
   44SBC   C08W30539   3.418   2.589   9.803
   44SBC   C08U30540   3.362   2.482   9.721
   44SBC   C08V30541   3.416   2.353   9.672
   44SBC   C0DC30542   3.302   2.286   9.620
   44SBC   H00W30543   3.298   2.183   9.590
   44SBC   C0DB30544   3.188   2.375   9.611
   44SBC   H00X30545   3.094   2.352   9.563
   44SBC   C08T30546   3.221   2.489   9.687
   44SBC   C08S30547   3.142   2.596   9.722
   44SBC   H00N30548   3.039   2.587   9.693
   44SBC   C08R30549   3.194   2.714   9.781
   44SBC   C08Q30550   3.120   2.832   9.804
   44SBC   H00O30551   3.015   2.827   9.780
   44SBC   C08P30552   3.172   2.954   9.860
   44SBC   C08O30553   3.097   3.078   9.887
   44SBC   H00P30554   2.991   3.090   9.869
   44SBC   C08N30555   3.165   3.194   9.933
   44SBC   C08M30556   3.093   3.321   9.945
   44SBC   O00830557   2.971   3.334   9.917
   44SBC   O00730558   3.166   3.430   9.980
   44SBC   C08H30559   3.302   3.429   9.991
   44SBC   C08G30560   3.380   3.548   9.999
   44SBC   C03V30561   3.335   3.681  10.010
   44SBC   H00930562   3.229   3.688  10.032
   44SBC   C03U30563   3.423   3.798   9.991
   44SBC   C03W30564   3.381   3.930   9.974
   44SBC   H00A30565   3.278   3.962   9.972
   44SBC   C03X30566   3.472   4.029   9.955
   44SBC   H00B30567   3.428   4.126   9.935
   44SBC   O00530568   3.605   4.004   9.952
   44SBC   C03O30569   3.641   3.875   9.956
   44SBC   C03N30570   3.774   3.848   9.933
   44SBC   O00030571   3.850   3.958   9.896
   44SBC   C01930572   3.980   3.939   9.870
   44SBC   C01830573   4.044   3.811   9.878
   44SBC   C01730574   3.966   3.704   9.918
   44SBC   C01630575   4.025   3.580   9.946
   44SBC   C01530576   4.164   3.577   9.936
   44SBC   C01430577   4.226   3.455   9.963
   44SBC   C01330578   4.151   3.336   9.988
   44SBC   C01230579   4.257   3.232  10.005
   44SBC   C01130580   4.373   3.317   9.993
   44SBC   C01030581   4.498   3.262  10.018
   44SBC   C00Z30582   4.620   3.312   9.978
   44SBC   C00Y30583   4.699   3.199   9.977
   44SBC   C01O30584   4.639   3.080  10.011
   44SBC   C01P30585   4.677   2.953   9.964
   44SBC   C02L30586   4.588   2.853   9.964
   44SBC   C02K30587   4.457   2.893   9.999
   44SBC   C01M30588   4.411   3.031  10.022
   44SBC   C02J30589   4.369   2.778  10.005
   44SBC   C02I30590   4.230   2.784  10.029
   44SBC   C02H30591   4.140   2.883  10.051
   44SBC   C01Q30592   4.156   3.022  10.047
   44SBC   C02G30593   4.024   3.081  10.057
   44SBC   C08930594   3.936   2.974  10.080
   44SBC   C08830595   3.807   3.005  10.043
   44SBC   C08730596   3.817   3.151  10.016
   44SBC   C08630597   3.707   3.237  10.011
   44SBC   C03S30598   3.710   3.382   9.997
   44SBC   N00630599   3.577   3.418  10.003
   44SBC   C08F30600   3.500   3.311  10.004
   44SBC   C01J30601   3.801   3.486   9.981
   44SBC   C03R30602   3.748   3.616   9.970
   44SBC   C03Q30603   3.609   3.640   9.981
   44SBC   C08E30604   3.573   3.193   9.999
   44SBC   C08D30605   3.507   3.068   9.977
   44SBC   C08K30606   3.366   3.068   9.947
   44SBC   C08C30607   3.570   2.946   9.974
   44SBC   C09130608   3.513   2.834   9.914
   44SBC   C09230609   3.380   2.830   9.870
   44SBC   C08B30610   3.704   2.908  10.009
   44SBC   C09030611   3.712   2.763   9.978
   44SBC   C09430612   3.826   2.687  10.013
   44SBC   C09530613   3.841   2.551   9.981
   44SBC   C09R30614   3.976   2.518   9.993
   44SBC   C09730615   4.051   2.629  10.019
   44SBC   C09630616   3.961   2.730  10.034
   44SBC   C01I30617   3.953   3.205  10.026
   44SBC   C08A30618   4.008   2.852  10.067
   44SBC   C09L30619   4.191   2.653  10.017
   44SBC   C09K30620   4.297   2.568   9.980
   44SBC   C09J30621   4.285   2.435   9.931
   44SBC   C09I30622   4.390   2.353   9.873
   44SBC   C09O30623   4.527   2.367   9.832
   44SBC   C09N30624   4.598   2.488   9.863
   44SBC   C09M30625   4.549   2.613   9.918
   44SBC   C06O30626   4.738   2.479   9.830
   44SBC   C05M30627   4.798   2.355   9.784
   44SBC   C06P30628   4.718   2.245   9.753
   44SBC   C04230629   4.934   2.342   9.758
   44SBC   C04130630   5.011   2.452   9.777
   44SBC   C04030631   5.147   2.442   9.754
   44SBC   C03Z30632   5.232   2.556   9.749
   44SBC   C03Y30633   5.181   2.680   9.782
   44SBC   C02730634   5.259   2.797   9.773
   44SBC   C02630635   5.197   2.921   9.794
   44SBC   C02830636   5.269   3.038   9.768
   44SBC   C02930637   5.398   3.029   9.717
   44SBC   C02B30638   5.464   3.145   9.684
   44SBC   C02C30639   5.592   3.139   9.634
   44SBC   C02X30640   5.649   3.255   9.592
   44SBC   C03E30641   5.774   3.247   9.540
   44SBC   C03G30642   5.844   3.137   9.512
   44SBC   C04Q30643   5.783   3.016   9.548
   44SBC   C04R30644   5.840   2.899   9.521
   44SBC   C04S30645   5.770   2.780   9.550
   44SBC   C04L30646   5.644   2.782   9.612
   44SBC   C04M30647   5.591   2.899   9.649
   44SBC   C04K30648   5.571   2.664   9.643
   44SBC   C04F30649   5.627   2.543   9.604
   44SBC   C04E30650   5.754   2.541   9.542
   44SBC   C04D30651   5.811   2.417   9.506
   44SBC   C05030652   5.932   2.410   9.443
   44SBC   C05130653   5.983   2.286   9.396
   44SBC   C05Q30654   6.113   2.285   9.339
   44SBC   C05V30655   6.162   2.168   9.285
   44SBC   N00530656   6.289   2.163   9.226
   44SBC   C07V30657   6.362   2.281   9.216
   44SBC   C08230658   6.488   2.280   9.157
   44SBC   C08130659   6.542   2.166   9.095
   44SBC   C07C30660   6.472   2.046   9.113
   44SBC   C07B30661   6.522   1.927   9.062
   44SBC   C08030662   6.648   1.924   8.995
   44SBC   C07Z30663   6.696   1.801   8.951
   44SBC   H00L30664   6.792   1.806   8.901
   44SBC   C07930665   6.627   1.681   8.955
   44SBC   C07830666   6.495   1.690   9.010
   44SBC   C07730667   6.418   1.577   9.023
   44SBC   C07X30668   6.469   1.458   8.967
   44SBC   H00I30669   6.416   1.364   8.965
   44SBC   C07Y30670   6.595   1.456   8.913
   44SBC   H00H30671   6.631   1.360   8.877
   44SBC   C07630672   6.294   1.581   9.079
   44SBC   C06C30673   6.219   1.465   9.104
   44SBC   H00C30674   6.247   1.362   9.088
   44SBC   C06F30675   6.239   1.706   9.118
   44SBC   C06E30676   6.107   1.714   9.165
   44SBC   C06G30677   6.048   1.826   9.222
   44SBC   C06H30678   6.133   1.936   9.225
   44SBC   C06I30679   6.262   1.936   9.171
   44SBC   C06L30680   5.921   1.819   9.291
   44SBC   C06M30681   5.838   1.703   9.287
   44SBC   C06K30682   5.876   1.932   9.356
   44SBC   C05S30683   5.953   2.050   9.350
   44SBC   C05U30684   5.743   1.939   9.415
   44SBC   C05X30685   5.663   1.823   9.413
   44SBC   C05G30686   5.533   1.847   9.481
   44SBC   C05F30687   5.511   1.968   9.554
   44SBC   C05E30688   5.378   1.971   9.594
   44SBC   C04830689   5.322   2.086   9.651
   44SBC   C05630690   5.185   2.091   9.671
   44SBC   C04530691   5.128   2.208   9.711
   44SBC   C04730692   5.409   2.196   9.657
   44SBC   C04930693   5.542   2.192   9.607
   44SBC   C04B30694   5.619   2.304   9.605
   44SBC   C04630695   5.353   2.314   9.697
   44SBC   C04H30696   5.429   2.427   9.689
   44SBC   C05D30697   5.309   1.858   9.557
   44SBC   C04A30698   5.595   2.077   9.554
   44SBC   C05T30699   5.709   2.063   9.479
   44SBC   C05530700   5.783   2.180   9.467
   44SBC   C06D30701   6.042   1.599   9.182
   44SBC   C07W30702   6.317   1.819   9.110
   44SBC   C08530703   6.670   1.566   8.901
   44SBC   H00M30704   6.764   1.573   8.849
   44SBC   C08430705   6.717   2.048   8.984
   44SBC   H00J30706   6.815   2.042   8.938
   44SBC   C07A30707   6.446   1.811   9.060
   44SBC   C08330708   6.667   2.166   9.026
   44SBC   H00K30709   6.726   2.255   9.020
   44SBC   O00K30710   6.550   2.398   9.133
   44SBC   C0GO30711   6.496   2.507   9.168
   44SBC   C0GN30712   6.567   2.623   9.141
   44SBC   H01L30713   6.669   2.621   9.106
   44SBC   C0GM30714   6.514   2.751   9.166
   44SBC   C0GL30715   6.584   2.856   9.123
   44SBC   H01M30716   6.683   2.844   9.081
   44SBC   O00J30717   6.534   2.980   9.146
   44SBC   C0GK30718   6.419   2.987   9.225
   44SBC   H01N30719   6.396   3.086   9.261
   44SBC   C05K30720   6.339   2.878   9.260
   44SBC   C05J30721   6.211   2.891   9.325
   44SBC   C04Y30722   6.145   3.014   9.355
   44SBC   C04X30723   6.018   3.020   9.413
   44SBC   O00630724   6.207   3.133   9.323
   44SBC   C05330725   6.137   3.256   9.322
   44SBC   C04O30726   6.015   3.264   9.393
   44SBC   C03C30727   5.937   3.380   9.413
   44SBC   C03B30728   5.936   3.516   9.372
   44SBC   C05430729   6.030   3.567   9.286
   44SBC   C0GR30730   6.026   3.701   9.243
   44SBC   C03M30731   5.933   3.820   9.256
   44SBC   C03I30732   5.799   3.818   9.317
   44SBC   C03J30733   5.719   3.939   9.312
   44SBC   N00230734   5.587   3.946   9.371
   44SBC   C02U30735   5.499   4.057   9.352
   44SBC   C02T30736   5.374   4.062   9.406
   44SBC   C02Z30737   5.295   4.173   9.381
   44SBC   N00130738   5.161   4.173   9.438
   44SBC   C02R30739   5.077   4.283   9.406
   44SBC   C03230740   5.123   4.387   9.319
   44SBC   C03130741   5.252   4.383   9.262
   44SBC   H00730742   5.283   4.463   9.198
   44SBC   C03330743   5.030   4.501   9.312
   44SBC   H00330744   5.064   4.585   9.253
   44SBC   O00430745   4.907   4.503   9.368
   44SBC   C03430746   4.865   4.401   9.443
   44SBC   C03530747   4.742   4.413   9.500
   44SBC   C03630748   4.705   4.319   9.596
   44SBC   H00530749   4.613   4.334   9.650
   44SBC   C03730750   4.789   4.206   9.630
   44SBC   H00630751   4.747   4.143   9.707
   44SBC   C00D30752   4.903   4.185   9.554
   44SBC   C00C30753   4.975   4.072   9.567
   44SBC   C00B30754   4.928   3.949   9.641
   44SBC   C00A30755   4.808   3.875   9.702
   44SBC   C00930756   4.859   3.752   9.747
   44SBC   C00830757   4.794   3.642   9.799
   44SBC   C00730758   4.659   3.647   9.822
   44SBC   C00630759   4.589   3.543   9.881
   44SBC   C00530760   4.452   3.556   9.901
   44SBC   C00430761   4.380   3.673   9.861
   44SBC   C00330762   4.454   3.779   9.806
   44SBC   C00230763   4.385   3.896   9.773
   44SBC   C01C30764   4.255   3.906   9.813
   44SBC   C01B30765   4.191   4.034   9.806
   44SBC   H00030766   4.240   4.129   9.793
   44SBC   C00130767   4.448   3.990   9.691
   44SBC   C00030768   4.584   3.968   9.648
   44SBC   C01U30769   4.591   4.047   9.530
   44SBC   H00230770   4.656   4.073   9.448
   44SBC   C01T30771   4.468   4.131   9.522
   44SBC   O00230772   4.439   4.221   9.445
   44SBC   O00130773   4.385   4.086   9.618
   44SBC   C01S30774   4.591   3.763   9.775
   44SBC   C00N30775   4.870   3.527   9.820
   44SBC   C00M30776   5.005   3.517   9.784
   44SBC   C00J30777   5.062   3.628   9.736
   44SBC   C00I30778   5.189   3.629   9.684
   44SBC   C00H30779   5.241   3.745   9.633
   44SBC   C00G30780   5.170   3.857   9.612
   44SBC   C00F30781   5.202   3.965   9.541
   44SBC   C01X30782   5.367   3.743   9.572
   44SBC   C01W30783   5.435   3.622   9.577
   44SBC   C01V30784   5.380   3.505   9.632
   44SBC   C02030785   5.452   3.383   9.637
   44SBC   C01Z30786   5.557   3.615   9.518
   44SBC   C02Y30787   5.626   3.494   9.532
   44SBC   C03930788   5.749   3.483   9.478
   44SBC   C02W30789   5.614   3.725   9.453
   44SBC   C01Y30790   5.413   3.854   9.503
   44SBC   C00U30791   5.256   3.508   9.687
   44SBC   C00S30792   5.203   3.395   9.745
   44SBC   C00T30793   5.267   3.275   9.745
   44SBC   C00R30794   5.073   3.403   9.797
   44SBC   C00Q30795   5.014   3.292   9.845
   44SBC   C00V30796   5.080   3.165   9.837
   44SBC   C02430797   5.016   3.048   9.879
   44SBC   C00X30798   4.889   3.061   9.918
   44SBC   C00P30799   4.884   3.305   9.889
   44SBC   C00O30800   4.808   3.423   9.879
   44SBC   C00K30801   4.991   3.742   9.728
   44SBC   N00030802   4.666   3.873   9.712
   44SBC   C00L30803   5.038   3.856   9.662
   44SBC   H00430804   4.677   4.493   9.470
   44SBC   C02Q30805   4.951   4.289   9.467
   44SBC   C00E30806   5.113   4.070   9.520
   44SBC   C03030807   5.339   4.280   9.298
   44SBC   O00330808   5.471   4.275   9.244
   44SBC   C02S30809   5.328   3.960   9.479
   44SBC   C03830810   5.551   4.164   9.275
   44SBC   C03L30811   5.685   4.169   9.228
   44SBC   H00830812   5.723   4.257   9.179
   44SBC   C02V30813   5.536   3.841   9.445
   44SBC   C03K30814   5.765   4.057   9.251
   44SBC   C0BK30815   5.898   4.048   9.203
   44SBC   H00T30816   5.928   4.140   9.154
   44SBC   C03H30817   5.741   3.714   9.393
   44SBC   C0BL30818   5.981   3.937   9.200
   44SBC   C0GU30819   6.112   3.946   9.139
   44SBC   H01O30820   6.139   4.041   9.095
   44SBC   C0GT30821   6.196   3.838   9.121
   44SBC   H01P30822   6.288   3.837   9.066
   44SBC   C0GS30823   6.144   3.719   9.168
   44SBC   C0GV30824   6.218   3.600   9.159
   44SBC   C0GW30825   6.345   3.577   9.108
   44SBC   H01Q30826   6.409   3.647   9.057
   44SBC   C0GX30827   6.396   3.451   9.137
   44SBC   H01R30828   6.496   3.425   9.107
   44SBC   O00L30829   6.321   3.343   9.186
   44SBC   C0GQ30830   6.150   3.504   9.239
   44SBC   C03A30831   5.810   3.582   9.405
   44SBC   C05L30832   6.198   3.370   9.252
   44SBC   C04W30833   6.143   2.771   9.361
   44SBC   C05I30834   6.197   2.645   9.336
   44SBC   C05O30835   6.318   2.636   9.270
   44SBC   C05230836   6.130   2.526   9.369
   44SBC   C04V30837   6.018   2.771   9.422
   44SBC   C04U30838   5.946   2.651   9.452
   44SBC   N00930839   6.389   2.752   9.222
   44SBC   C0GP30840   6.373   2.515   9.235
   44SBC   C05W30841   6.302   2.398   9.259
   44SBC   C07D30842   6.343   2.049   9.169
   44SBC   C06J30843   6.084   2.051   9.285
   44SBC   C05P30844   6.184   2.401   9.330
   44SBC   C05R30845   5.906   2.172   9.402
   44SBC   C04Z30846   6.001   2.529   9.424
   44SBC   C04C30847   5.736   2.299   9.526
   44SBC   C04G30848   5.562   2.423   9.636
   44SBC   C04J30849   5.445   2.668   9.695
   44SBC   C04T30850   5.823   2.660   9.511
   44SBC   N00330851   5.959   2.896   9.451
   44SBC   C04P30852   5.960   3.145   9.440
   44SBC   C03D30853   5.818   3.363   9.476
   44SBC   C02130854   5.578   3.377   9.594
   44SBC   C03F30855   5.661   3.017   9.617
   44SBC   C02230856   5.395   3.268   9.689
   44SBC   C02A30857   5.458   2.907   9.699
   44SBC   C02330858   5.205   3.159   9.782
   44SBC   C02530859   5.069   2.924   9.845
   44SBC   C02D30860   4.992   2.813   9.849
   44SBC   C02E30861   4.856   2.822   9.885
   44SBC   C02N30862   4.768   2.713   9.890
   44SBC   C04N30863   5.389   2.790   9.719
   44SBC   C02P30864   5.045   2.686   9.818
   44SBC   C04I30865   5.366   2.550   9.714
   44SBC   C04430866   5.214   2.321   9.729
   44SBC   C04330867   4.958   2.576   9.820
   44SBC   C05N30868   4.821   2.594   9.847
   44SBC   C09U30869   4.583   2.250   9.774
   44SBC   C09V30870   4.504   2.144   9.732
   44SBC   C09X30871   4.369   2.142   9.754
   44SBC   C09Y30872   4.282   2.049   9.699
   44SBC   C0A130873   4.330   1.942   9.631
   44SBC   C0A230874   4.470   1.933   9.619
   44SBC   C0A430875   4.522   1.825   9.553
   44SBC   C07130876   4.662   1.804   9.545
   44SBC   C0A530877   4.711   1.696   9.482
   44SBC   C0A930878   4.619   1.610   9.420
   44SBC   C0A830879   4.484   1.623   9.427
   44SBC   C0AP30880   4.397   1.540   9.356
   44SBC   C0BY30881   4.264   1.568   9.359
   44SBC   C0BX30882   4.206   1.669   9.423
   44SBC   C0C230883   4.072   1.704   9.406
   44SBC   C0C330884   4.012   1.805   9.486
   44SBC   C0CT30885   4.100   1.878   9.568
   44SBC   C0C130886   3.989   1.639   9.309
   44SBC   C0C030887   4.052   1.526   9.237
   44SBC   C0A730888   4.295   1.746   9.501
   44SBC   C0BZ30889   4.178   1.494   9.275
   44SBC   C0BO30890   4.230   1.397   9.198
   44SBC   C0BN30891   4.367   1.369   9.185
   44SBC   C0BM30892   4.407   1.281   9.087
   44SBC   C0B930893   4.540   1.257   9.080
   44SBC   C0B830894   4.626   1.335   9.160
   44SBC   C0AD30895   4.581   1.426   9.258
   44SBC   C0AF30896   4.762   1.330   9.133
   44SBC   C0AG30897   4.818   1.241   9.041
   44SBC   C0B730898   4.728   1.161   8.966
   44SBC   C0AE30899   4.842   1.416   9.203
   44SBC   C0AB30900   4.803   1.506   9.301
   44SBC   C0AA30901   4.892   1.593   9.368
   44SBC   C0AJ30902   4.975   1.410   9.174
   44SBC   C0AK30903   5.067   1.490   9.242
   44SBC   C06W30904   5.186   1.462   9.198
   44SBC   C0AI30905   5.041   1.319   9.091
   44SBC   C0BP30906   4.134   1.356   9.108
   44SBC   C0BQ30907   4.175   1.248   9.012
   44SBC   C0BW30908   4.449   1.438   9.269
   44SBC   C0AC30909   4.667   1.514   9.326
   44SBC   C0A630910   4.431   1.731   9.495
   44SBC   C0A330911   4.241   1.859   9.561
   44SBC   C09Z30912   4.141   2.056   9.714
   44SBC   C09W30913   4.555   2.034   9.667
   44SBC   C07230914   4.695   2.017   9.660
   44SBC   C09H30915   4.322   2.231   9.842
   44SBC   C09G30916   4.190   2.235   9.866
   44SBC   C09P30917   4.166   2.360   9.920
   44SBC   C02O30918   4.411   2.641   9.972
   44SBC   C02M30919   4.632   2.726   9.925
   44SBC   C02F30920   4.811   2.945   9.928
   44SBC   C00W30921   4.829   3.190   9.932
   44SBC   C01R30922   4.670   3.428   9.913
   44SBC   C01N30923   4.510   3.121  10.026
   44SBC   C01L30924   4.275   3.089  10.030
   44SBC   C01H30925   4.011   3.337   9.995
   44SBC   C01K30926   4.365   3.445   9.946
   44SBC   C01E30927   4.247   3.684   9.892
   44SBC   C01G30928   3.945   3.467   9.977
   44SBC   C01D30929   4.183   3.802   9.867
   44SBC   C01A30930   4.054   4.054   9.845
   44SBC   H00130931   3.989   4.140   9.841
   44SBC   C01F30932   3.832   3.722   9.942
   44SBC   C03P30933   3.557   3.768   9.973
   44SBC   C03T30934   3.522   3.542   9.994
   44SBC   C08I30935   3.372   3.306   9.986
   44SBC   C08J30936   3.302   3.192   9.954
   44SBC   C08L30937   3.305   2.947   9.896
   44SBC   C09330938   3.330   2.710   9.816
   44SBC   C08Z30939   3.597   2.718   9.913
   44SBC   C09T30940   3.529   2.283   9.732
   44SBC   C09S30941   3.752   2.464   9.934
   44SBC   C09Q30942   4.028   2.396   9.942
   44SBC   C09F30943   4.096   2.148   9.801
   44SBC   C09E30944   3.739   2.165   9.763
   44SBC   C0A030945   4.048   1.975   9.654
   44SBC   C0CU30946   3.877   1.841   9.478
   44SBC   C0CR30947   3.801   1.775   9.375
   44SBC   C0CZ30948   3.659   1.805   9.369
   44SBC   C0DA30949   3.613   2.162   9.694
   44SBC   C0D930950   3.364   1.914   9.666
   44SBC   H00V30951   3.355   1.915   9.774
   44SBC   C0CY30952   3.606   1.904   9.455
   44SBC   C0DF30953   3.304   1.811   9.577
   44SBC   C0DE30954   3.234   1.686   9.561
   44SBC   C0GI30955   3.124   1.632   9.637
   44SBC   H01K30956   3.083   1.683   9.723
   44SBC   C0GJ30957   3.064   1.522   9.587
   44SBC   H01J30958   2.971   1.494   9.634
   44SBC   O00I30959   3.115   1.455   9.481
   44SBC   C0GH30960   3.210   1.506   9.394
   44SBC   C0GG30961   3.254   1.421   9.285
   44SBC   O00G30962   3.180   1.304   9.275
   44SBC   C0G830963   3.222   1.204   9.189
   44SBC   C0G930964   3.142   1.096   9.180
   44SBC   H01G30965   3.053   1.086   9.240
   44SBC   C0GA30966   3.172   0.998   9.085
   44SBC   H01H30967   3.105   0.914   9.074
   44SBC   C0GB30968   3.268   1.003   8.985
   44SBC   C0EP30969   3.358   1.112   9.002
   44SBC   C0E830970   3.490   1.088   8.950
   44SBC   C0CK30971   3.620   1.140   8.967
   44SBC   C0CL30972   3.629   1.282   8.966
   44SBC   C0E930973   3.526   1.365   9.032
   44SBC   C0GE30974   3.404   1.344   9.113
   44SBC   C0E730975   3.500   1.015   8.835
   44SBC   C0CJ30976   3.627   1.013   8.775
   44SBC   C0E630977   3.642   0.948   8.650
   44SBC   H00Y30978   3.732   0.953   8.591
   44SBC   C0EO30979   3.531   0.872   8.611
   44SBC   H01130980   3.542   0.822   8.515
   44SBC   C0G630981   3.411   0.855   8.681
   44SBC   C0G530982   3.307   0.766   8.648
   44SBC   H01F30983   3.320   0.708   8.558
   44SBC   C0GD30984   3.204   0.758   8.728
   44SBC   H01I30985   3.132   0.685   8.695
   44SBC   O00H30986   3.179   0.824   8.850
   44SBC   C0EQ30987   3.394   0.926   8.798
   44SBC   C0GC30988   3.279   0.914   8.875
   44SBC   C0G730989   3.331   1.222   9.095
   44SBC   C0DD30990   3.266   1.633   9.434
   44SBC   C0GF30991   3.364   1.452   9.198
   44SBC   C0CO30992   3.595   1.485   9.031
   44SBC   C0D030993   3.587   1.727   9.277
   44SBC   C0C430994   3.857   1.678   9.285
   44SBC   C0CN30995   3.725   1.489   8.977
   44SBC   C0CP30996   4.020   1.436   9.130
   44SBC   C0CM30997   3.747   1.359   8.930
   44SBC   C0CI30998   3.710   1.070   8.879
   44SBC   C0CD30999   4.101   0.856   8.738
   44SBC   C0BR31000   4.081   1.173   8.936
   44SBC   C0CS31001   4.316   1.220   9.005
   44SBC   C0B631002   4.589   1.173   8.983
   44SBC   C0CG31003   4.321   0.934   8.772
   44SBC   C0CF31004   4.238   0.849   8.709
   44SBC   C0E531005   4.062   0.659   8.597
   44SBC   C0DT31006   4.156   0.460   8.440
   44SBC   C0DL31007   4.464   0.629   8.524
   44SBC   C0DM31008   4.600   0.593   8.526
   44SBC   C0DY31009   4.569   0.404   8.386
   44SBC   C0DU31010   4.204   0.360   8.365
   44SBC   C0F031011   4.166   0.139   8.263
   44SBC   C0F431012   4.257  -0.117   8.211
   44SBC   C0FG31013   4.559   0.092   8.193
   44SBC   O00B31014   4.453  -0.256   8.216
   44SBC   C0FN31015   4.681   0.041   8.196
   44SBC   C0DZ31016   4.613   0.287   8.317
   44SBC   O00C31017   4.956   0.279   8.431
   44SBC   C0FR31018   5.052   0.366   8.483
   44SBC   O00D31019   5.169   0.330   8.472
   44SBC   C0E031020   4.654   0.482   8.459
   44SBC   C0E331021   5.003   0.484   8.553
   44SBC   C0AW31022   5.088   0.561   8.634
   44SBC   C0AV31023   5.226   0.524   8.667
   44SBC   H00Q31024   5.268   0.426   8.647
   44SBC   C0AU31025   5.307   0.611   8.746
   44SBC   H00R31026   5.403   0.573   8.776
   44SBC   C0AT31027   5.252   0.733   8.804
   44SBC   C0AS31028   5.294   0.841   8.891
   44SBC   C0AR31029   5.416   0.844   8.960
   44SBC   C0BE31030   5.116   0.756   8.775
   44SBC   C0DN31031   4.686   0.671   8.600
   44SBC   C0AX31032   5.035   0.671   8.693
   44SBC   C0BB31033   4.726   0.864   8.746
   44SBC   C0BD31034   5.077   0.871   8.838
   44SBC   C0B231035   4.776   1.058   8.887
   44SBC   C0AH31036   4.958   1.216   9.033
   44SBC   C0BF31037   5.184   0.940   8.905
   44SBC   C0AL31038   5.181   1.353   9.101
   44SBC   C07U31039   5.412   1.087   9.047
   44SBC   C0AQ31040   5.463   0.960   9.031
   44SBC   C0BG31041   5.509   0.738   8.979
   44SBC   C0FY31042   5.848   0.773   9.069
   44SBC   C0BJ31043   5.588   0.691   8.866
   44SBC   H00S31044   5.564   0.698   8.761
   44SBC   C0FZ31045   5.928   0.721   8.963
   44SBC   C07S31046   5.891   0.900   9.130
   44SBC   C0G131047   6.241   0.897   8.991
   44SBC   C07K31048   6.281   1.171   9.229
   44SBC   C07H31049   5.990   1.157   9.211
   44SBC   C06B31050   6.098   1.481   9.160
   44SBC   C06N31051   5.908   1.590   9.239
   44SBC   C06631052   5.737   1.235   9.186
   44SBC   C06231053   5.490   1.435   9.168
   44SBC   C05Y31054   5.706   1.710   9.332
   44SBC   C06131055   5.412   1.548   9.197
   44SBC   C05H31056   5.411   1.775   9.496
   44SBC   C06V31057   5.285   1.541   9.254
   44SBC   C06Y31058   5.025   1.582   9.346
   44SBC   C05C31059   5.162   1.866   9.562
   44SBC   C06Z31060   4.849   1.686   9.459
   44SBC   C07031061   4.749   1.906   9.594
   44SBC   C05B31062   5.106   1.977   9.631
   44SBC   C05731063   4.991   2.224   9.714
   44SBC   C05931064   4.771   2.124   9.699
   45SBC   C05831065   5.827   7.173  11.195
   45SBC   C05A31066   5.837   7.102  11.316
   45SBC   C06Q31067   5.729   7.098  11.412
   45SBC   C06R31068   5.739   7.032  11.534
   45SBC   C06S31069   5.853   6.956  11.566
   45SBC   C06T31070   5.857   6.888  11.690
   45SBC   C06U31071   5.965   6.807  11.752
   45SBC   C06X31072   6.084   6.750  11.701
   45SBC   C06031073   6.166   6.689  11.804
   45SBC   C05Z31074   6.234   6.560  11.795
   45SBC   C06831075   6.210   6.505  11.934
   45SBC   C06731076   6.272   6.387  12.003
   45SBC   C06931077   6.371   6.302  11.938
   45SBC   C06A31078   6.455   6.195  11.988
   45SBC   C07331079   6.513   6.173  12.108
   45SBC   C07P31080   6.645   6.118  12.111
   45SBC   C07O31081   6.753   6.155  12.029
   45SBC   H00D31082   6.728   6.241  11.969
   45SBC   C07N31083   6.868   6.089  12.028
   45SBC   H00E31084   6.955   6.120  11.972
   45SBC   C07M31085   6.865   5.963  12.087
   45SBC   H00F31086   6.951   5.901  12.073
   45SBC   C07L31087   6.761   5.920  12.168
   45SBC   C07Q31088   6.756   5.791  12.227
   45SBC   H00G31089   6.833   5.724  12.189
   45SBC   O00F31090   6.653   5.746  12.308
   45SBC   C07J31091   6.562   5.843  12.347
   45SBC   C07I31092   6.559   5.968  12.282
   45SBC   N00431093   6.453   6.059  12.299
   45SBC   C07R31094   6.375   6.039  12.415
   45SBC   C07T31095   6.382   5.917  12.484
   45SBC   C0FX31096   6.288   5.890  12.582
   45SBC   C0FW31097   6.270   5.768  12.648
   45SBC   C0G031098   6.361   5.665  12.606
   45SBC   C0G231099   6.354   5.547  12.683
   45SBC   H01E31100   6.433   5.473  12.678
   45SBC   C0G331101   6.250   5.521  12.769
   45SBC   H01C31102   6.247   5.424  12.816
   45SBC   C0G431103   6.148   5.617  12.790
   45SBC   H01D31104   6.077   5.588  12.867
   45SBC   O00E31105   6.458   5.688  12.508
   45SBC   C0FV31106   6.162   5.750  12.740
   45SBC   C0FU31107   6.078   5.860  12.773
   45SBC   H01B31108   5.991   5.856  12.836
   45SBC   C0FT31109   6.107   5.986  12.717
   45SBC   C0FS31110   6.051   6.116  12.711
   45SBC   C0BI31111   6.149   6.208  12.659
   45SBC   C0BH31112   6.081   6.324  12.608
   45SBC   C07F31113   6.079   6.353  12.466
   45SBC   C07E31114   6.168   6.339  12.366
   45SBC   C07G31115   6.260   6.241  12.363
   45SBC   C07431116   6.309   6.248  12.231
   45SBC   C06531117   6.153   6.401  12.243
   45SBC   C06431118   6.039   6.478  12.226
   45SBC   C06331119   6.009   6.563  12.121
   45SBC   C07531120   5.885   6.631  12.167
   45SBC   C0AM31121   5.833   6.581  12.287
   45SBC   C0AN31122   5.703   6.613  12.362
   45SBC   C0AO31123   5.586   6.709  12.327
   45SBC   C0B131124   5.473   6.724  12.414
   45SBC   C0B031125   5.458   6.656  12.530
   45SBC   C0AZ31126   5.359   6.671  12.626
   45SBC   C0AY31127   5.368   6.609  12.752
   45SBC   N00731128   5.274   6.634  12.849
   45SBC   C0E231129   5.300   6.589  12.981
   45SBC   C0E131130   5.197   6.611  13.071
   45SBC   C0E431131   5.213   6.559  13.200
   45SBC   C0FF31132   5.108   6.563  13.297
   45SBC   C0FJ31133   5.103   6.524  13.436
   45SBC   C0FK31134   5.206   6.574  13.523
   45SBC   H01631135   5.305   6.609  13.498
   45SBC   C0FL31136   5.133   6.604  13.650
   45SBC   H01731137   5.169   6.655  13.738
   45SBC   C0FM31138   4.995   6.564  13.632
   45SBC   C0FH31139   4.861   6.598  13.680
   45SBC   C0FI31140   4.784   6.585  13.563
   45SBC   C0F331141   4.671   6.672  13.534
   45SBC   C0F231142   4.661   6.702  13.401
   45SBC   C0DW31143   4.755   6.681  13.300
   45SBC   C0FE31144   4.864   6.608  13.327
   45SBC   C0DV31145   4.750   6.751  13.181
   45SBC   C0DX31146   4.856   6.739  13.091
   45SBC   C0DK31147   4.840   6.796  12.965
   45SBC   C0DJ31148   4.727   6.875  12.936
   45SBC   C0DI31149   4.723   6.947  12.814
   45SBC   C0DH31150   4.817   6.925  12.716
   45SBC   C0DG31151   4.930   6.851  12.753
   45SBC   C0BV31152   5.034   6.841  12.658
   45SBC   C0BC31153   5.148   6.766  12.691
   45SBC   C0BA31154   5.033   6.905  12.534
   45SBC   C0B431155   5.138   6.900  12.443
   45SBC   C0B331156   5.249   6.821  12.475
   45SBC   C0B531157   5.134   6.969  12.329
   45SBC   C0BU31158   5.015   7.039  12.291
   45SBC   C0BT31159   4.905   7.045  12.380
   45SBC   C0BS31160   4.784   7.106  12.345
   45SBC   C0CC31161   4.683   7.132  12.441
   45SBC   C0CB31162   4.572   7.208  12.409
   45SBC   C0CH31163   4.503   7.253  12.531
   45SBC   C0DO31164   4.501   7.181  12.652
   45SBC   C0DP31165   4.405   7.206  12.746
   45SBC   C0EA31166   4.289   7.289  12.718
   45SBC   H01231167   4.274   7.341  12.625
   45SBC   O00931168   4.182   7.287  12.799
   45SBC   C0EH31169   4.205   7.241  12.928
   45SBC   C0EG31170   4.115   7.279  13.031
   45SBC   C0EJ31171   3.992   7.353  13.028
   45SBC   H01031172   3.937   7.394  12.945
   45SBC   C0EK31173   3.950   7.371  13.165
   45SBC   H00Z31174   3.865   7.425  13.204
   45SBC   C0EL31175   4.044   7.302  13.247
   45SBC   C0EM31176   4.063   7.277  13.389
   45SBC   C0EW31177   3.979   7.325  13.498
   45SBC   H01331178   3.885   7.373  13.478
   45SBC   C0EX31179   4.010   7.289  13.638
   45SBC   H01431180   3.945   7.331  13.715
   45SBC   C0F131181   4.125   7.205  13.666
   45SBC   C0EU31182   4.205   7.167  13.559
   45SBC   C0ET31183   4.314   7.076  13.571
   45SBC   C0ES31184   4.360   7.068  13.434
   45SBC   C0EE31185   4.277   7.145  13.347
   45SBC   C0ED31186   4.248   7.170  13.210
   45SBC   C0EC31187   4.338   7.123  13.107
   45SBC   C0EB31188   4.440   7.022  13.123
   45SBC   C0EN31189   4.454   6.947  13.248
   45SBC   C0ER31190   4.544   6.844  13.245
   45SBC   C0DS31191   4.525   6.991  13.018
   45SBC   C0DR31192   4.517   7.054  12.893
   45SBC   C0EY31193   4.411   6.954  13.389
   45SBC   C0EZ31194   4.485   6.864  13.465
   45SBC   C0F531195   4.519   6.848  13.605
   45SBC   C0F631196   4.460   6.922  13.710
   45SBC   N00831197   4.521   6.902  13.840
   45SBC   C0F731198   4.639   6.824  13.869
   45SBC   C0FQ31199   4.691   6.831  13.998
   45SBC   H01831200   4.789   6.787  14.006
   45SBC   C0FP31201   4.631   6.898  14.104
   45SBC   H01931202   4.681   6.900  14.200
   45SBC   C0FO31203   4.512   6.971  14.079
   45SBC   H01A31204   4.459   7.014  14.164
   45SBC   C0F831205   4.685   6.751  13.757
   45SBC   C0F931206   4.454   6.964  13.948
   45SBC   C0FA31207   4.326   7.029  13.933
   45SBC   H01531208   4.276   7.067  14.021
   45SBC   C0FB31209   4.279   7.064  13.804
   45SBC   C0FD31210   4.350   7.013  13.697
   45SBC   C0FC31211   4.168   7.157  13.793
   45SBC   O00A31212   4.111   7.205  13.894
   45SBC   C0EV31213   4.176   7.207  13.429
   45SBC   C0EF31214   4.134   7.244  13.167
   45SBC   C0EI31215   4.318   7.169  12.973
   45SBC   C0DQ31216   4.415   7.145  12.872
   45SBC   C0CE31217   4.603   7.091  12.665
   45SBC   H00U31218   4.436   7.337  12.520
   45SBC   C0CA31219   4.530   7.218  12.272
   45SBC   C0C931220   4.629   7.190  12.165
   45SBC   C0C831221   4.583   7.206  12.029
   45SBC   C0C731222   4.645   7.230  11.900
   45SBC   C0C631223   4.565   7.244  11.788
   45SBC   C0C531224   4.577   7.307  11.659
   45SBC   C0CQ31225   4.455   7.358  11.607
   45SBC   C0D131226   4.342   7.370  11.693
   45SBC   C0D831227   4.283   7.494  11.679
   45SBC   C0D731228   4.328   7.532  11.548
   45SBC   C0D631229   4.282   7.642  11.471
   45SBC   C0D531230   4.326   7.670  11.338
   45SBC   C0D431231   4.416   7.602  11.260
   45SBC   C0D331232   4.458   7.701  11.159
   45SBC   C0CX31233   4.594   7.666  11.117
   45SBC   C0CW31234   4.653   7.584  11.218
   45SBC   C0CV31235   4.781   7.528  11.257
   45SBC   C0D231236   4.897   7.557  11.183
   45SBC   C09D31237   4.906   7.640  11.070
   45SBC   C09C31238   5.032   7.667  11.002
   45SBC   C09B31239   5.047   7.726  10.872
   45SBC   C09A31240   4.924   7.770  10.816
   45SBC   C09931241   4.812   7.771  10.882
   45SBC   C09831242   4.703   7.780  10.792
   45SBC   C08Y31243   4.757   7.781  10.658
   45SBC   C08X31244   4.697   7.741  10.531
   45SBC   C08W31245   4.551   7.713  10.528
   45SBC   C08U31246   4.456   7.697  10.639
   45SBC   C08V31247   4.475   7.687  10.785
   45SBC   C0DC31248   4.343   7.673  10.834
   45SBC   H00W31249   4.323   7.683  10.940
   45SBC   C0DB31250   4.244   7.655  10.728
   45SBC   H00X31251   4.138   7.640  10.736
   45SBC   C08T31252   4.322   7.670  10.610
   45SBC   C08S31253   4.267   7.668  10.485
   45SBC   H00N31254   4.160   7.659  10.481
   45SBC   C08R31255   4.354   7.664  10.376
   45SBC   C08Q31256   4.311   7.643  10.244
   45SBC   H00O31257   4.204   7.636  10.235
   45SBC   C08P31258   4.389   7.613  10.128
   45SBC   C08O31259   4.338   7.574   9.997
   45SBC   H00P31260   4.232   7.564   9.985
   45SBC   C08N31261   4.435   7.529   9.903
   45SBC   C08M31262   4.379   7.479   9.775
   45SBC   O00831263   4.263   7.478   9.747
   45SBC   O00731264   4.472   7.449   9.678
   45SBC   C08H31265   4.603   7.455   9.700
   45SBC   C08G31266   4.701   7.419   9.602
   45SBC   C03V31267   4.681   7.364   9.470
   45SBC   H00931268   4.577   7.345   9.448
   45SBC   C03U31269   4.782   7.342   9.377
   45SBC   C03W31270   4.762   7.306   9.239
   45SBC   H00A31271   4.665   7.301   9.192
   45SBC   C03X31272   4.870   7.286   9.160
   45SBC   H00B31273   4.866   7.272   9.053
   45SBC   O00531274   4.997   7.290   9.201
   45SBC   C03O31275   5.021   7.339   9.325
   45SBC   C03N31276   5.152   7.365   9.361
   45SBC   O00031277   5.245   7.359   9.267
   45SBC   C01931278   5.372   7.364   9.297
   45SBC   C01831279   5.412   7.395   9.430
   45SBC   C01731280   5.314   7.418   9.527
   45SBC   C01631281   5.345   7.459   9.656
   45SBC   C01531282   5.480   7.454   9.683
   45SBC   C01431283   5.528   7.487   9.810
   45SBC   C01331284   5.435   7.539   9.911
   45SBC   C01231285   5.530   7.563  10.019
   45SBC   C01131286   5.658   7.531   9.967
   45SBC   C01031287   5.769   7.558  10.040
   45SBC   C00Z31288   5.898   7.524  10.013
   45SBC   C00Y31289   5.960   7.548  10.138
   45SBC   C01O31290   5.872   7.594  10.235
   45SBC   C01P31291   5.889   7.553  10.371
   45SBC   C02L31292   5.772   7.556  10.446
   45SBC   C02K31293   5.653   7.591  10.378
   45SBC   C01M31294   5.632   7.602  10.237
   45SBC   C02J31295   5.547   7.617  10.469
   45SBC   C02I31296   5.421   7.677  10.442
   45SBC   C02H31297   5.355   7.694  10.322
   45SBC   C01Q31298   5.393   7.663  10.189
   45SBC   C02G31299   5.276   7.674  10.111
   45SBC   C08931300   5.175   7.732  10.190
   45SBC   C08831301   5.045   7.702  10.138
   45SBC   C08731302   5.081   7.631  10.009
   45SBC   C08631303   4.986   7.578   9.923
   45SBC   C03S31304   5.003   7.518   9.794
   45SBC   N00631305   4.875   7.491   9.746
   45SBC   C08F31306   4.780   7.518   9.839
   45SBC   C01J31307   5.109   7.485   9.712
   45SBC   C03R31308   5.078   7.434   9.582
   45SBC   C03Q31309   4.944   7.409   9.547
   45SBC   C08E31310   4.841   7.582   9.947
   45SBC   C08D31311   4.761   7.617  10.056
   45SBC   C08K31312   4.615   7.596  10.045
   45SBC   C08C31313   4.798   7.669  10.180
   45SBC   C09131314   4.707   7.684  10.288
   45SBC   C09231315   4.568   7.665  10.278
   45SBC   C08B31316   4.926   7.712  10.221
   45SBC   C09031317   4.912   7.748  10.364
   45SBC   C09431318   5.014   7.795  10.453
   45SBC   C09531319   5.007   7.786  10.594
   45SBC   C09R31320   5.134   7.761  10.655
   45SBC   C09731321   5.226   7.745  10.556
   45SBC   C09631322   5.152   7.764  10.437
   45SBC   C01I31323   5.223   7.619   9.988
   45SBC   C08A31324   5.225   7.740  10.324
   45SBC   C09L31325   5.357   7.696  10.563
   45SBC   C09K31326   5.437   7.649  10.671
   45SBC   C09J31327   5.407   7.639  10.803
   45SBC   C09I31328   5.467   7.548  10.892
   45SBC   C09O31329   5.587   7.468  10.903
   45SBC   C09N31330   5.689   7.466  10.801
   45SBC   C09M31331   5.677   7.517  10.665
   45SBC   C06O31332   5.805   7.389  10.836
   45SBC   C05M31333   5.812   7.319  10.956
   45SBC   C06P31334   5.704   7.314  11.047
   45SBC   C04231335   5.923   7.243  10.981
   45SBC   C04131336   6.022   7.228  10.883
   45SBC   C04031337   6.128   7.142  10.909
   45SBC   C03Z31338   6.236   7.127  10.819
   45SBC   C03Y31339   6.235   7.203  10.709
   45SBC   C02731340   6.347   7.189  10.617
   45SBC   C02631341   6.342   7.259  10.496
   45SBC   C02831342   6.437   7.229  10.398
   45SBC   C02931343   6.542   7.149  10.424
   45SBC   C02B31344   6.638   7.119  10.329
   45SBC   C02C31345   6.741   7.035  10.353
   45SBC   C02X31346   6.826   7.006  10.245
   45SBC   C03E31347   6.925   6.914  10.274
   45SBC   C03G31348   6.941   6.840  10.389
   45SBC   C04Q31349   6.842   6.865  10.488
   45SBC   C04R31350   6.841   6.794  10.609
   45SBC   C04S31351   6.750   6.816  10.707
   45SBC   C04L31352   6.658   6.919  10.688
   45SBC   C04M31353   6.659   6.994  10.571
   45SBC   C04K31354   6.550   6.933  10.773
   45SBC   C04F31355   6.548   6.858  10.891
   45SBC   C04E31356   6.652   6.767  10.918
   45SBC   C04D31357   6.654   6.692  11.037
   45SBC   C05031358   6.749   6.595  11.059
   45SBC   C05131359   6.743   6.517  11.173
   45SBC   C05Q31360   6.839   6.413  11.191
   45SBC   C05V31361   6.821   6.323  11.298
   45SBC   N00531362   6.915   6.224  11.318
   45SBC   C07V31363   7.027   6.217  11.230
   45SBC   C08231364   7.120   6.114  11.240
   45SBC   C08131365   7.100   6.011  11.337
   45SBC   C07C31366   6.990   6.023  11.425
   45SBC   C07B31367   6.965   5.921  11.520
   45SBC   C08031368   7.044   5.804  11.525
   45SBC   C07Z31369   7.010   5.707  11.618
   45SBC   H00L31370   7.077   5.624  11.635
   45SBC   C07931371   6.901   5.713  11.703
   45SBC   C07831372   6.821   5.826  11.696
   45SBC   C07731373   6.711   5.834  11.781
   45SBC   C07X31374   6.687   5.738  11.882
   45SBC   H00I31375   6.615   5.750  11.962
   45SBC   C07Y31376   6.753   5.616  11.875
   45SBC   H00H31377   6.744   5.546  11.957
   45SBC   C07631378   6.640   5.952  11.783
   45SBC   C06C31379   6.546   5.977  11.884
   45SBC   H00C31380   6.528   5.913  11.968
   45SBC   C06F31381   6.656   6.051  11.685
   45SBC   C06E31382   6.581   6.168  11.679
   45SBC   C06G31383   6.593   6.269  11.582
   45SBC   C06H31384   6.697   6.249  11.488
   45SBC   C06I31385   6.782   6.137  11.500
   45SBC   C06L31386   6.505   6.383  11.586
   45SBC   C06M31387   6.413   6.410  11.694
   45SBC   C06K31388   6.520   6.464  11.475
   45SBC   C05S31389   6.624   6.448  11.379
   45SBC   C05U31390   6.427   6.559  11.452
   45SBC   C05X31391   6.322   6.586  11.548
   45SBC   C05G31392   6.225   6.688  11.506
   45SBC   C05F31393   6.249   6.750  11.385
   45SBC   C05E31394   6.148   6.844  11.368
   45SBC   C04831395   6.142   6.923  11.253
   45SBC   C05631396   6.038   7.010  11.236
   45SBC   C04531397   6.037   7.086  11.120
   45SBC   C04731398   6.248   6.907  11.168
   45SBC   C04931399   6.349   6.819  11.187
   45SBC   C04B31400   6.451   6.801  11.098
   45SBC   C04631401   6.248   6.985  11.050
   45SBC   C04H31402   6.344   6.967  10.956
   45SBC   C05D31403   6.061   6.851  11.471
   45SBC   C04A31404   6.353   6.732  11.299
   45SBC   C05T31405   6.441   6.633  11.332
   45SBC   C05531406   6.545   6.625  11.240
   45SBC   C06D31407   6.499   6.194  11.785
   45SBC   C07W31408   6.761   6.036  11.597
   45SBC   C08531409   6.859   5.605  11.789
   45SBC   H00M31410   6.913   5.513  11.778
   45SBC   C08431411   7.149   5.800  11.436
   45SBC   H00J31412   7.211   5.712  11.427
   45SBC   C07A31413   6.845   5.926  11.600
   45SBC   C08331414   7.182   5.897  11.342
   45SBC   H00K31415   7.262   5.871  11.275
   45SBC   O00K31416   7.233   6.107  11.162
   45SBC   C0GO31417   7.241   6.189  11.056
   45SBC   C0GN31418   7.349   6.175  10.970
   45SBC   H01L31419   7.431   6.109  10.992
   45SBC   C0GM31420   7.349   6.253  10.851
   45SBC   C0GL31421   7.455   6.235  10.770
   45SBC   H01M31422   7.536   6.169  10.799
   45SBC   O00J31423   7.458   6.301  10.651
   45SBC   C0GK31424   7.353   6.383  10.620
   45SBC   H01N31425   7.357   6.438  10.528
   45SBC   C05K31426   7.242   6.397  10.696
   45SBC   C05J31427   7.139   6.489  10.668
   45SBC   C04Y31428   7.120   6.560  10.548
   45SBC   C04X31429   7.037   6.668  10.530
   45SBC   O00631430   7.189   6.516  10.438
   45SBC   C05331431   7.183   6.571  10.316
   45SBC   C04O31432   7.106   6.689  10.293
   45SBC   C03C31433   7.077   6.758  10.174
   45SBC   C03B31434   7.112   6.733  10.036
   45SBC   C05431435   7.169   6.616   9.992
   45SBC   C0GR31436   7.205   6.597   9.857
   45SBC   C03M31437   7.166   6.646   9.723
   45SBC   C03I31438   7.059   6.742   9.704
   45SBC   C03J31439   7.011   6.760   9.571
   45SBC   N00231440   6.895   6.840   9.548
   45SBC   C02U31441   6.838   6.853   9.417
   45SBC   C02T31442   6.723   6.929   9.389
   45SBC   C02Z31443   6.672   6.947   9.261
   45SBC   N00131444   6.557   7.022   9.239
   45SBC   C02R31445   6.508   7.044   9.106
   45SBC   C03231446   6.575   6.979   9.001
   45SBC   C03131447   6.685   6.897   9.026
   45SBC   H00731448   6.733   6.842   8.946
   45SBC   C03331449   6.523   7.013   8.873
   45SBC   H00331450   6.567   6.963   8.788
   45SBC   O00431451   6.411   7.085   8.847
   45SBC   C03431452   6.359   7.152   8.954
   45SBC   C03531453   6.257   7.243   8.928
   45SBC   C03631454   6.208   7.320   9.028
   45SBC   H00531455   6.152   7.409   9.004
   45SBC   C03731456   6.248   7.298   9.157
   45SBC   H00631457   6.205   7.354   9.238
   45SBC   C00D31458   6.337   7.191   9.188
   45SBC   C00C31459   6.374   7.168   9.320
   45SBC   C00B31460   6.300   7.214   9.441
   45SBC   C00A31461   6.182   7.301   9.479
   45SBC   C00931462   6.219   7.334   9.611
   45SBC   C00831463   6.131   7.380   9.711
   45SBC   C00731464   5.991   7.381   9.683
   45SBC   C00631465   5.904   7.433   9.780
   45SBC   C00531466   5.770   7.445   9.748
   45SBC   C00431467   5.719   7.408   9.623
   45SBC   C00331468   5.811   7.358   9.526
   45SBC   C00231469   5.765   7.327   9.399
   45SBC   C01C31470   5.635   7.348   9.362
   45SBC   C01B31471   5.593   7.346   9.228
   45SBC   H00031472   5.667   7.344   9.149
   45SBC   C00131473   5.848   7.262   9.305
   45SBC   C00031474   5.990   7.250   9.337
   45SBC   C01U31475   6.020   7.132   9.265
   45SBC   H00231476   6.108   7.070   9.280
   45SBC   C01T31477   5.910   7.101   9.166
   45SBC   O00231478   5.898   7.014   9.083
   45SBC   O00131479   5.807   7.178   9.205
   45SBC   C01S31480   5.948   7.345   9.557
   45SBC   C00N31481   6.186   7.395   9.838
   45SBC   C00M31482   6.312   7.347   9.873
   45SBC   C00J31483   6.392   7.296   9.781
   45SBC   C00I31484   6.507   7.223   9.802
   45SBC   C00H31485   6.562   7.149   9.698
   45SBC   C00G31486   6.508   7.149   9.563
   45SBC   C00F31487   6.550   7.070   9.465
   45SBC   C01X31488   6.675   7.074   9.722
   45SBC   C01W31489   6.723   7.070   9.851
   45SBC   C01V31490   6.657   7.133   9.960
   45SBC   C02031491   6.697   7.119  10.089
   45SBC   C01Z31492   6.835   6.989   9.878
   45SBC   C02Y31493   6.867   6.986  10.011
   45SBC   C03931494   6.969   6.900  10.042
   45SBC   C02W31495   6.895   6.909   9.779
   45SBC   C01Y31496   6.724   6.993   9.622
   45SBC   C00U31497   6.547   7.211   9.935
   45SBC   C00S31498   6.469   7.265  10.037
   45SBC   C00T31499   6.503   7.236  10.170
   45SBC   C00R31500   6.351   7.334  10.004
   45SBC   C00Q31501   6.271   7.376  10.108
   45SBC   C00V31502   6.306   7.354  10.241
   45SBC   C02431503   6.218   7.395  10.345
   45SBC   C00X31504   6.098   7.460  10.313
   45SBC   C00P31505   6.156   7.441  10.072
   45SBC   C00O31506   6.104   7.441   9.937
   45SBC   C00K31507   6.342   7.293   9.651
   45SBC   N00031508   6.040   7.290   9.461
   45SBC   C00L31509   6.391   7.225   9.546
   45SBC   H00431510   6.224   7.247   8.825
   45SBC   C02Q31511   6.400   7.129   9.087
   45SBC   C00E31512   6.485   7.086   9.344
   45SBC   C03031513   6.739   6.886   9.152
   45SBC   O00331514   6.862   6.819   9.173
   45SBC   C02S31515   6.660   6.991   9.495
   45SBC   C03831516   6.906   6.798   9.304
   45SBC   C03L31517   7.021   6.724   9.328
   45SBC   H00831518   7.057   6.680   9.236
   45SBC   C02V31519   6.834   6.910   9.653
   45SBC   C03K31520   7.077   6.710   9.455
   45SBC   C0BK31521   7.190   6.634   9.483
   45SBC   H00T31522   7.244   6.595   9.399
   45SBC   C03H31523   6.997   6.815   9.807
   45SBC   C0BL31524   7.235   6.589   9.609
   45SBC   C0GU31525   7.328   6.487   9.624
   45SBC   H01O31526   7.374   6.438   9.539
   45SBC   C0GT31527   7.361   6.430   9.748
   45SBC   H01P31528   7.431   6.349   9.750
   45SBC   C0GS31529   7.301   6.492   9.857
   45SBC   C0GV31530   7.316   6.444   9.989
   45SBC   C0GW31531   7.388   6.328  10.031
   45SBC   H01Q31532   7.426   6.265   9.951
   45SBC   C0GX31533   7.394   6.309  10.165
   45SBC   H01R31534   7.450   6.228  10.209
   45SBC   O00L31535   7.329   6.390  10.255
   45SBC   C0GQ31536   7.241   6.523  10.071
   45SBC   C03A31537   7.032   6.813   9.948
   45SBC   C05L31538   7.246   6.497  10.210
   45SBC   C04W31539   7.047   6.523  10.764
   45SBC   C05I31540   7.045   6.455  10.889
   45SBC   C05O31541   7.139   6.360  10.914
   45SBC   C05231542   6.945   6.477  10.985
   45SBC   C04V31543   6.949   6.622  10.750
   45SBC   C04U31544   6.849   6.647  10.848
   45SBC   N00931545   7.243   6.339  10.822
   45SBC   C0GP31546   7.135   6.283  11.028
   45SBC   C05W31547   7.031   6.305  11.120
   45SBC   C07D31548   6.895   6.127  11.418
   45SBC   C06J31549   6.716   6.342  11.394
   45SBC   C05P31550   6.935   6.394  11.097
   45SBC   C05R31551   6.641   6.530  11.263
   45SBC   C04Z31552   6.848   6.574  10.966
   45SBC   C04C31553   6.548   6.708  11.126
   45SBC   C04G31554   6.449   6.881  10.985
   45SBC   C04J31555   6.453   7.029  10.756
   45SBC   C04T31556   6.750   6.745  10.821
   45SBC   N00331557   6.941   6.698  10.629
   45SBC   C04P31558   7.031   6.734  10.404
   45SBC   C03D31559   7.006   6.874  10.168
   45SBC   C02131560   6.806   7.043  10.117
   45SBC   C03F31561   6.748   6.969  10.469
   45SBC   C02231562   6.615   7.161  10.194
   45SBC   C02A31563   6.556   7.089  10.550
   45SBC   C02331564   6.416   7.275  10.270
   45SBC   C02531565   6.230   7.340  10.470
   45SBC   C02D31566   6.126   7.356  10.562
   45SBC   C02E31567   6.011   7.433  10.527
   45SBC   C02N31568   5.902   7.442  10.614
   45SBC   C04N31569   6.453   7.106  10.641
   45SBC   C02P31570   6.125   7.287  10.681
   45SBC   C04I31571   6.347   7.044  10.842
   45SBC   C04431572   6.139   7.073  11.027
   45SBC   C04331573   6.016   7.296  10.765
   45SBC   C05N31574   5.908   7.382  10.739
   45SBC   C09U31575   5.592   7.392  11.026
   45SBC   C09V31576   5.482   7.383  11.119
   45SBC   C09X31577   5.370   7.460  11.105
   45SBC   C09Y31578   5.257   7.450  11.183
   45SBC   C0A131579   5.264   7.368  11.291
   45SBC   C0A231580   5.375   7.290  11.313
   45SBC   C0A431581   5.392   7.237  11.437
   45SBC   C07131582   5.513   7.177  11.468
   45SBC   C0A531583   5.523   7.114  11.593
   45SBC   C0A931584   5.419   7.117  11.686
   45SBC   C0A831585   5.301   7.183  11.650
   45SBC   C0AP31586   5.199   7.185  11.740
   45SBC   C0BY31587   5.081   7.231  11.696
   45SBC   C0BX31588   5.055   7.281  11.568
   45SBC   C0C231589   4.927   7.333  11.538
   45SBC   C0C331590   4.912   7.399  11.417
   45SBC   C0CT31591   5.024   7.419  11.336
   45SBC   C0C131592   4.819   7.316  11.623
   45SBC   C0C031593   4.851   7.282  11.762
   45SBC   C0A731594   5.162   7.294  11.488
   45SBC   C0BZ31595   4.983   7.245  11.790
   45SBC   C0BO31596   4.998   7.206  11.922
   45SBC   C0BN31597   5.120   7.151  11.964
   45SBC   C0BM31598   5.114   7.087  12.085
   45SBC   C0B931599   5.235   7.016  12.118
   45SBC   C0B831600   5.341   7.010  12.028
   45SBC   C0AD31601   5.332   7.075  11.905
   45SBC   C0AF31602   5.452   6.937  12.060
   45SBC   C0AG31603   5.463   6.868  12.182
   45SBC   C0B731604   5.357   6.871  12.268
   45SBC   C0AE31605   5.547   6.936  11.966
   45SBC   C0AB31606   5.545   7.000  11.845
   45SBC   C0AA31607   5.647   6.987  11.751
   45SBC   C0AJ31608   5.665   6.868  12.003
   45SBC   C0AK31609   5.769   6.864  11.913
   45SBC   C06W31610   5.870   6.788  11.970
   45SBC   C0AI31611   5.692   6.796  12.122
   45SBC   C0BP31612   4.871   7.207  11.989
   45SBC   C0BQ31613   4.879   7.153  12.124
   45SBC   C0BW31614   5.219   7.138  11.868
   45SBC   C0AC31615   5.432   7.065  11.812
   45SBC   C0A631616   5.286   7.240  11.525
   45SBC   C0A331617   5.147   7.358  11.368
   45SBC   C09Z31618   5.136   7.517  11.153
   45SBC   C09W31619   5.487   7.301  11.231
   45SBC   C07231620   5.601   7.230  11.250
   45SBC   C09H31621   5.365   7.541  10.994
   45SBC   C09G31622   5.260   7.622  10.976
   45SBC   C09P31623   5.280   7.681  10.851
   45SBC   C02O31624   5.560   7.592  10.614
   45SBC   C02M31625   5.783   7.505  10.573
   45SBC   C02F31626   6.005   7.491  10.405
   45SBC   C00W31627   6.076   7.480  10.178
   45SBC   C01R31628   5.970   7.465   9.905
   45SBC   C01N31629   5.752   7.594  10.173
   45SBC   C01L31630   5.518   7.608  10.153
   45SBC   C01H31631   5.295   7.551   9.881
   45SBC   C01K31632   5.662   7.481   9.836
   45SBC   C01E31633   5.584   7.412   9.591
   45SBC   C01G31634   5.250   7.501   9.749
   45SBC   C01D31635   5.546   7.389   9.460
   45SBC   C01A31636   5.461   7.344   9.196
   45SBC   H00131637   5.421   7.343   9.095
   45SBC   C01F31638   5.180   7.405   9.491
   45SBC   C03P31639   4.914   7.357   9.423
   45SBC   C03T31640   4.837   7.439   9.632
   45SBC   C08I31641   4.652   7.502   9.824
   45SBC   C08J31642   4.568   7.539   9.923
   45SBC   C08L31643   4.527   7.624  10.150
   45SBC   C09331644   4.491   7.685  10.398
   45SBC   C08Z31645   4.770   7.736  10.405
   45SBC   C09T31646   4.592   7.723  10.858
   45SBC   C09S31647   4.900   7.789  10.678
   45SBC   C09Q31648   5.161   7.728  10.790
   45SBC   C09F31649   5.142   7.609  11.050
   45SBC   C09E31650   4.796   7.693  10.994
   45SBC   C0A031651   5.019   7.497  11.222
   45SBC   C0CU31652   4.792   7.453  11.381
   45SBC   C0CR31653   4.677   7.426  11.458
   45SBC   C0CZ31654   4.551   7.481  11.424
   45SBC   C0DA31655   4.652   7.694  10.993
   45SBC   C0D931656   4.404   7.831  11.200
   45SBC   H00V31657   4.448   7.926  11.173
   45SBC   C0CY31658   4.540   7.551  11.307
   45SBC   C0DF31659   4.313   7.802  11.311
   45SBC   C0DE31660   4.251   7.867  11.432
   45SBC   C0GI31661   4.208   7.997  11.460
   45SBC   H01K31662   4.230   8.079  11.392
   45SBC   C0GJ31663   4.126   8.017  11.570
   45SBC   H01J31664   4.077   8.112  11.589
   45SBC   O00I31665   4.101   7.915  11.665
   45SBC   C0GH31666   4.155   7.787  11.648
   45SBC   C0GG31667   4.147   7.702  11.762
   45SBC   O00G31668   4.068   7.744  11.867
   45SBC   C0G831669   4.053   7.665  11.976
   45SBC   C0G931670   3.951   7.706  12.058
   45SBC   H01G31671   3.899   7.796  12.030
   45SBC   C0GA31672   3.911   7.627  12.163
   45SBC   H01H31673   3.820   7.643  12.218
   45SBC   C0GB31674   3.994   7.516  12.204
   45SBC   C0EP31675   4.121   7.493  12.134
   45SBC   C0E831676   4.216   7.401  12.194
   45SBC   C0CK31677   4.344   7.363  12.162
   45SBC   C0CL31678   4.358   7.321  12.027
   45SBC   C0E931679   4.296   7.388  11.919
   45SBC   C0GE31680   4.207   7.510  11.903
   45SBC   C0E731681   4.185   7.325  12.308
   45SBC   C0CJ31682   4.282   7.234  12.347
   45SBC   C0E631683   4.244   7.145  12.445
   45SBC   H00Y31684   4.307   7.066  12.484
   45SBC   C0EO31685   4.112   7.159  12.504
   45SBC   H01131686   4.085   7.089  12.581
   45SBC   C0G631687   4.017   7.249  12.458
   45SBC   C0G531688   3.888   7.260  12.512
   45SBC   H01F31689   3.855   7.195  12.591
   45SBC   C0GD31690   3.798   7.353  12.459
   45SBC   H01I31691   3.698   7.361  12.500
   45SBC   O00H31692   3.835   7.441  12.358
   45SBC   C0EQ31693   4.054   7.339  12.359
   45SBC   C0GC31694   3.964   7.429  12.315
   45SBC   C0G731695   4.135   7.557  12.007
   45SBC   C0DD31696   4.221   7.762  11.524
   45SBC   C0GF31697   4.210   7.574  11.772
   45SBC   C0CO31698   4.348   7.318  11.813
   45SBC   C0D031699   4.451   7.463  11.521
   45SBC   C0C431700   4.691   7.348  11.582
   45SBC   C0CN31701   4.435   7.213  11.837
   45SBC   C0CP31702   4.781   7.256  11.891
   45SBC   C0CM31703   4.443   7.211  11.983
   45SBC   C0CI31704   4.394   7.271  12.259
   45SBC   C0CD31705   4.700   7.078  12.565
   45SBC   C0BR31706   4.768   7.154  12.210
   45SBC   C0CS31707   5.002   7.096  12.168
   45SBC   C0B631708   5.243   6.955  12.239
   45SBC   C0CG31709   4.912   6.982  12.504
   45SBC   C0CF31710   4.811   6.993  12.596
   45SBC   C0E531711   4.616   7.033  12.794
   45SBC   C0DT31712   4.631   6.899  13.029
   45SBC   C0DL31713   4.943   6.790  12.876
   45SBC   C0DM31714   5.060   6.720  12.912
   45SBC   C0DY31715   4.969   6.670  13.123
   45SBC   C0DU31716   4.645   6.824  13.144
   45SBC   C0F031717   4.564   6.796  13.373
   45SBC   C0F431718   4.622   6.760  13.628
   45SBC   C0FG31719   4.867   6.545  13.452
   45SBC   O00B31720   4.810   6.684  13.773
   45SBC   C0FN31721   4.984   6.497  13.509
   45SBC   C0DZ31722   4.979   6.609  13.254
   45SBC   O00C31723   5.328   6.500  13.239
   45SBC   C0FR31724   5.423   6.459  13.152
   45SBC   O00D31725   5.516   6.391  13.201
   45SBC   C0E031726   5.078   6.670  13.039
   45SBC   C0E331727   5.406   6.504  13.014
   45SBC   C0AW31728   5.494   6.473  12.914
   45SBC   C0AV31729   5.613   6.395  12.932
   45SBC   H00Q31730   5.657   6.358  13.023
   45SBC   C0AU31731   5.697   6.373  12.826
   45SBC   H00R31732   5.793   6.327  12.844
   45SBC   C0AT31733   5.672   6.433  12.699
   45SBC   C0AS31734   5.744   6.449  12.573
   45SBC   C0AR31735   5.869   6.388  12.555
   45SBC   C0BE31736   5.558   6.501  12.679
   45SBC   C0DN31737   5.155   6.705  12.816
   45SBC   C0AX31738   5.470   6.523  12.789
   45SBC   C0BB31739   5.252   6.753  12.599
   45SBC   C0BD31740   5.558   6.566  12.558
   45SBC   C0B231741   5.360   6.807  12.385
   45SBC   C0AH31742   5.578   6.793  12.218
   45SBC   C0BF31743   5.681   6.551  12.486
   45SBC   C0AL31744   5.825   6.742  12.098
   45SBC   C07U31745   5.936   6.487  12.325
   45SBC   C0AQ31746   5.957   6.419  12.446
   45SBC   C0BG31747   5.947   6.315  12.658
   45SBC   C0FY31748   6.229   6.127  12.584
   45SBC   C0BJ31749   5.926   6.177  12.698
   45SBC   H00S31750   5.830   6.130  12.711
   45SBC   C0FZ31751   6.212   5.998  12.627
   45SBC   C07S31752   6.289   6.144  12.461
   45SBC   C0G131753   6.470   5.811  12.446
   45SBC   C07K31754   6.662   6.006  12.196
   45SBC   C07H31755   6.424   6.166  12.211
   45SBC   C06B31756   6.489   6.103  11.885
   45SBC   C06N31757   6.427   6.312  11.801
   45SBC   C06631758   6.249   6.347  12.147
   45SBC   C06231759   6.095   6.580  11.997
   45SBC   C05Y31760   6.321   6.519  11.679
   45SBC   C06131761   6.097   6.700  11.921
   45SBC   C05H31762   6.113   6.757  11.564
   45SBC   C06V31763   5.977   6.771  11.887
   45SBC   C06Y31764   5.759   6.917  11.779
   45SBC   C05C31765   5.949   6.944  11.460
   45SBC   C06Z31766   5.638   7.045  11.625
   45SBC   C07031767   5.616   7.169  11.374
   45SBC   C05B31768   5.943   7.017  11.340
   45SBC   C05731769   5.933   7.174  11.102
   45SBC   C05931770   5.709   7.240  11.164
   46SBC   C05831771  12.716   9.302  11.581
   46SBC   C05A31772  12.639   9.324  11.700
   46SBC   C06Q31773  12.640   9.227  11.802
   46SBC   C06R31774  12.566   9.250  11.921
   46SBC   C06S31775  12.484   9.364  11.938
   46SBC   C06T31776  12.421   9.368  12.063
   46SBC   C06U31777  12.363   9.487  12.125
   46SBC   C06X31778  12.337   9.615  12.082
   46SBC   C06031779  12.310   9.705  12.190
   46SBC   C05Z31780  12.209   9.808  12.199
   46SBC   C06831781  12.153   9.785  12.337
   46SBC   C06731782  12.042   9.865  12.401
   46SBC   C06931783  11.984   9.981  12.330
   46SBC   C06A31784  11.854  10.048  12.358
   46SBC   C07331785  11.748  10.007  12.435
   46SBC   C07P31786  11.619  10.013  12.377
   46SBC   C07O31787  11.590  10.030  12.239
   46SBC   H00D31788  11.669  10.042  12.167
   46SBC   C07N31789  11.462  10.028  12.186
   46SBC   H00E31790  11.449  10.015  12.079
   46SBC   C07M31791  11.355  10.014  12.273
   46SBC   H00F31792  11.253  10.017  12.237
   46SBC   C07L31793  11.378  10.002  12.410
   46SBC   C07Q31794  11.269   9.987  12.507
   46SBC   H00G31795  11.164   9.981  12.482
   46SBC   O00F31796  11.286   9.959  12.641
   46SBC   C07J31797  11.414   9.955  12.687
   46SBC   C07I31798  11.528   9.965  12.600
   46SBC   N00431799  11.659   9.946  12.651
   46SBC   C07R31800  11.674   9.917  12.793
   46SBC   C07T31801  11.557   9.900  12.872
   46SBC   C0FX31802  11.558   9.848  12.999
   46SBC   C0FW31803  11.453   9.813  13.080
   46SBC   C0G031804  11.323   9.844  13.028
   46SBC   C0G231805  11.210   9.840  13.116
   46SBC   H01E31806  11.115   9.866  13.072
   46SBC   C0G331807  11.230   9.782  13.245
   46SBC   H01C31808  11.148   9.764  13.313
   46SBC   C0G431809  11.357   9.746  13.287
   46SBC   H01D31810  11.370   9.704  13.386
   46SBC   O00E31811  11.316   9.905  12.904
   46SBC   C0FV31812  11.469   9.755  13.204
   46SBC   C0FU31813  11.603   9.711  13.240
   46SBC   H01B31814  11.612   9.638  13.319
   46SBC   C0FT31815  11.711   9.764  13.171
   46SBC   C0FS31816  11.850   9.729  13.158
   46SBC   C0BI31817  11.909   9.813  13.060
   46SBC   C0BH31818  12.035   9.762  13.023
   46SBC   C07F31819  12.063   9.733  12.888
   46SBC   C07E31820  12.016   9.805  12.774
   46SBC   C07G31821  11.907   9.882  12.758
   46SBC   C07431822  11.888   9.900  12.619
   46SBC   C06531823  12.057   9.763  12.648
   46SBC   C06431824  12.143   9.649  12.644
   46SBC   C06331825  12.200   9.596  12.529
   46SBC   C07531826  12.251   9.465  12.569
   46SBC   C0AM31827  12.242   9.449  12.717
   46SBC   C0AN31828  12.290   9.339  12.800
   46SBC   C0AO31829  12.356   9.212  12.762
   46SBC   C0B131830  12.391   9.110  12.859
   46SBC   C0B031831  12.370   9.129  12.997
   46SBC   C0AZ31832  12.393   9.039  13.101
   46SBC   C0AY31833  12.379   9.080  13.233
   46SBC   N00731834  12.393   8.987  13.336
   46SBC   C0E231835  12.362   9.024  13.470
   46SBC   C0E131836  12.387   8.926  13.565
   46SBC   C0E431837  12.353   8.957  13.700
   46SBC   C0FF31838  12.385   8.867  13.804
   46SBC   C0FJ31839  12.356   8.859  13.947
   46SBC   C0FK31840  12.229   8.901  14.015
   46SBC   H01631841  12.156   8.969  13.973
   46SBC   C0FL31842  12.220   8.814  14.140
   46SBC   H01731843  12.132   8.789  14.198
   46SBC   C0FM31844  12.345   8.734  14.149
   46SBC   C0FH31845  12.386   8.596  14.185
   46SBC   C0FI31846  12.484   8.567  14.087
   46SBC   C0F331847  12.502   8.435  14.047
   46SBC   C0F231848  12.535   8.420  13.921
   46SBC   C0DW31849  12.528   8.517  13.823
   46SBC   C0FE31850  12.503   8.650  13.851
   46SBC   C0DV31851  12.538   8.485  13.689
   46SBC   C0DX31852  12.518   8.580  13.596
   46SBC   C0DK31853  12.525   8.546  13.461
   46SBC   C0DJ31854  12.540   8.414  13.426
   46SBC   C0DI31855  12.556   8.380  13.297
   46SBC   C0DH31856  12.553   8.472  13.202
   46SBC   C0DG31857  12.524   8.602  13.232
   46SBC   C0BV31858  12.508   8.697  13.136
   46SBC   C0BC31859  12.474   8.825  13.171
   46SBC   C0BA31860  12.540   8.665  13.004
   46SBC   C0B431861  12.532   8.759  12.908
   46SBC   C0B331862  12.475   8.886  12.933
   46SBC   C0B531863  12.575   8.733  12.784
   46SBC   C0BU31864  12.631   8.607  12.752
   46SBC   C0BT31865  12.644   8.512  12.848
   46SBC   C0BS31866  12.704   8.388  12.815
   46SBC   C0CC31867  12.700   8.289  12.912
   46SBC   C0CB31868  12.744   8.156  12.889
   46SBC   C0CH31869  12.681   8.058  12.973
   46SBC   C0DO31870  12.621   8.083  13.097
   46SBC   C0DP31871  12.578   7.981  13.181
   46SBC   C0EA31872  12.570   7.846  13.142
   46SBC   H01231873  12.581   7.810  13.041
   46SBC   O00931874  12.554   7.743  13.230
   46SBC   C0EH31875  12.536   7.777  13.366
   46SBC   C0EG31876  12.520   7.669  13.461
   46SBC   C0EJ31877  12.510   7.521  13.452
   46SBC   H01031878  12.510   7.459  13.363
   46SBC   C0EK31879  12.498   7.468  13.588
   46SBC   H00Z31880  12.489   7.365  13.618
   46SBC   C0EL31881  12.508   7.584  13.673
   46SBC   C0EM31882  12.499   7.598  13.812
   46SBC   C0EW31883  12.499   7.490  13.903
   46SBC   H01331884  12.521   7.388  13.873
   46SBC   C0EX31885  12.487   7.514  14.050
   46SBC   H01431886  12.495   7.429  14.116
   46SBC   C0F131887  12.480   7.654  14.104
   46SBC   C0EU31888  12.483   7.753  14.005
   46SBC   C0ET31889  12.486   7.896  14.028
   46SBC   C0ES31890  12.500   7.950  13.892
   46SBC   C0EE31891  12.495   7.848  13.795
   46SBC   C0ED31892  12.510   7.831  13.652
   46SBC   C0EC31893  12.516   7.938  13.554
   46SBC   C0EB31894  12.518   8.078  13.587
   46SBC   C0EN31895  12.529   8.123  13.726
   46SBC   C0ER31896  12.554   8.260  13.749
   46SBC   C0DS31897  12.535   8.177  13.487
   46SBC   C0DR31898  12.553   8.142  13.353
   46SBC   C0EY31899  12.512   8.077  13.861
   46SBC   C0EZ31900  12.509   8.178  13.960
   46SBC   C0F531901  12.479   8.200  14.102
   46SBC   C0F631902  12.452   8.088  14.184
   46SBC   N00831903  12.414   8.129  14.314
   46SBC   C0F731904  12.377   8.266  14.345
   46SBC   C0FQ31905  12.335   8.291  14.478
   46SBC   H01831906  12.300   8.391  14.496
   46SBC   C0FP31907  12.317   8.194  14.570
   46SBC   H01931908  12.274   8.212  14.667
   46SBC   C0FO31909  12.349   8.066  14.535
   46SBC   H01A31910  12.324   7.991  14.609
   46SBC   C0F831911  12.386   8.365  14.246
   46SBC   C0F931912  12.402   8.024  14.410
   46SBC   C0FA31913  12.424   7.886  14.392
   46SBC   H01531914  12.407   7.816  14.473
   46SBC   C0FB31915  12.455   7.845  14.257
   46SBC   C0FD31916  12.471   7.948  14.159
   46SBC   C0FC31917  12.470   7.703  14.237
   46SBC   O00A31918  12.476   7.624  14.328
   46SBC   C0EV31919  12.483   7.724  13.870
   46SBC   C0EF31920  12.521   7.701  13.597
   46SBC   C0EI31921  12.533   7.909  13.413
   46SBC   C0DQ31922  12.552   8.005  13.317
   46SBC   C0CE31923  12.614   8.217  13.132
   46SBC   H00U31924  12.677   7.954  12.946
   46SBC   C0CA31925  12.837   8.137  12.784
   46SBC   C0C931926  12.850   8.238  12.680
   46SBC   C0C831927  12.961   8.220  12.588
   46SBC   C0C731928  12.989   8.286  12.460
   46SBC   C0C631929  13.103   8.239  12.385
   46SBC   C0C531930  13.155   8.233  12.255
   46SBC   C0CQ31931  13.237   8.125  12.226
   46SBC   C0D131932  13.239   8.014  12.309
   46SBC   C0D831933  13.223   7.894  12.245
   46SBC   C0D731934  13.269   7.929  12.113
   46SBC   C0D631935  13.285   7.848  12.003
   46SBC   C0D531936  13.346   7.877  11.878
   46SBC   C0D431937  13.375   8.006  11.824
   46SBC   C0D331938  13.372   7.987  11.685
   46SBC   C0CX31939  13.330   8.121  11.635
   46SBC   C0CW31940  13.267   8.203  11.744
   46SBC   C0CV31941  13.191   8.328  11.762
   46SBC   C0D231942  13.162   8.409  11.652
   46SBC   C09D31943  13.200   8.385  11.515
   46SBC   C09C31944  13.174   8.474  11.413
   46SBC   C09B31945  13.227   8.478  11.284
   46SBC   C09A31946  13.325   8.377  11.258
   46SBC   C09931947  13.338   8.267  11.328
   46SBC   C09831948  13.469   8.224  11.314
   46SBC   C08Y31949  13.542   8.312  11.226
   46SBC   C08X31950  13.683   8.328  11.200
   46SBC   C08W31951  13.783   8.251  11.272
   46SBC   C08U31952  13.764   8.163  11.381
   46SBC   C08V31953  13.645   8.123  11.454
   46SBC   C0DC31954  13.692   8.027  11.549
   46SBC   H00W31955  13.620   7.973  11.609
   46SBC   C0DB31956  13.831   8.004  11.537
   46SBC   H00X31957  13.896   7.933  11.586
   46SBC   C08T31958  13.875   8.093  11.438
   46SBC   C08S31959  14.006   8.102  11.402
   46SBC   H00N31960  14.080   8.035  11.443
   46SBC   C08R31961  14.031   8.191  11.294
   46SBC   C08Q31962  14.160   8.216  11.244
   46SBC   H00O31963  14.244   8.160  11.280
   46SBC   C08P31964  14.197   8.310  11.151
   46SBC   C08O31965  14.331   8.328  11.099
   46SBC   H00P31966  14.408   8.269  11.146
   46SBC   C08N31967  14.358   8.422  10.993
   46SBC   C08M31968  14.490   8.426  10.930
   46SBC   O00831969  14.582   8.351  10.958
   46SBC   O00731970  14.513   8.518  10.826
   46SBC   C08H31971  14.415   8.605  10.785
   46SBC   C08G31972  14.443   8.711  10.688
   46SBC   C03V31973  14.555   8.739  10.612
   46SBC   H00931974  14.636   8.671  10.635
   46SBC   C03U31975  14.564   8.848  10.526
   46SBC   C03W31976  14.678   8.870  10.442
   46SBC   H00A31977  14.768   8.810  10.437
   46SBC   C03X31978  14.674   8.978  10.356
   46SBC   H00B31979  14.757   8.985  10.287
   46SBC   O00531980  14.570   9.070  10.347
   46SBC   C03O31981  14.459   9.043  10.417
   46SBC   C03N31982  14.348   9.122  10.403
   46SBC   O00031983  14.365   9.224  10.316
   46SBC   C01931984  14.268   9.315  10.303
   46SBC   C01831985  14.145   9.308  10.383
   46SBC   C01731986  14.127   9.197  10.463
   46SBC   C01631987  14.006   9.175  10.527
   46SBC   C01531988  13.909   9.276  10.506
   46SBC   C01431989  13.788   9.262  10.570
   46SBC   C01331990  13.765   9.149  10.655
   46SBC   C01231991  13.626   9.174  10.690
   46SBC   C01131992  13.588   9.292  10.615
   46SBC   C01031993  13.460   9.326  10.599
   46SBC   C00Z31994  13.405   9.445  10.545
   46SBC   C00Y31995  13.280   9.447  10.607
   46SBC   C01O31996  13.247   9.332  10.679
   46SBC   C01P31997  13.177   9.345  10.799
   46SBC   C02L31998  13.192   9.246  10.891
   46SBC   C02K31999  13.294   9.158  10.867
   46SBC   C01M32000  13.394   9.169  10.775
   46SBC   C02J32001  13.273   9.037  10.938
   46SBC   C02I32002  13.347   8.920  10.921
   46SBC   C02H32003  13.464   8.888  10.855
   46SBC   C01Q32004  13.548   8.971  10.787
   46SBC   C02G32005  13.671   8.899  10.764
   46SBC   C08932006  13.648   8.768  10.805
   46SBC   C08832007  13.767   8.707  10.845
   46SBC   C08732008  13.871   8.798  10.791
   46SBC   C08632009  14.011   8.790  10.804
   46SBC   C03S32010  14.103   8.853  10.714
   46SBC   N00632011  14.222   8.785  10.733
   46SBC   C08F32012  14.202   8.688  10.826
   46SBC   C01J32013  14.102   8.966  10.624
   46SBC   C03R32014  14.218   8.989  10.560
   46SBC   C03Q32015  14.337   8.906  10.572
   46SBC   C08E32016  14.075   8.681  10.873
   46SBC   C08D32017  14.026   8.572  10.948
   46SBC   C08K32018  14.126   8.485  10.998
   46SBC   C08C32019  13.898   8.538  10.992
   46SBC   C09132020  13.868   8.441  11.085
   46SBC   C09232021  13.964   8.360  11.143
   46SBC   C08B32022  13.774   8.589  10.943
   46SBC   C09032023  13.670   8.517  11.014
   46SBC   C09432024  13.532   8.545  10.999
   46SBC   C09532025  13.436   8.507  11.095
   46SBC   C09R32026  13.325   8.596  11.102
   46SBC   C09732027  13.354   8.701  11.018
   46SBC   C09632028  13.478   8.668  10.960
   46SBC   C01I32029  13.806   8.918  10.730
   46SBC   C08A32030  13.529   8.767  10.872
   46SBC   C09L32031  13.290   8.828  11.001
   46SBC   C09K32032  13.182   8.889  11.072
   46SBC   C09J32033  13.099   8.824  11.169
   46SBC   C09I32034  13.025   8.891  11.268
   46SBC   C09O32035  12.980   9.028  11.289
   46SBC   C09N32036  13.006   9.131  11.193
   46SBC   C09M32037  13.092   9.137  11.078
   46SBC   C06O32038  12.931   9.251  11.217
   46SBC   C05M32039  12.851   9.266  11.338
   46SBC   C06P32040  12.846   9.165  11.432
   46SBC   C04232041  12.789   9.386  11.368
   46SBC   C04132042  12.803   9.494  11.279
   46SBC   C04032043  12.743   9.618  11.308
   46SBC   C03Z32044  12.766   9.728  11.231
   46SBC   C03Y32045  12.836   9.716  11.109
   46SBC   C02732046  12.854   9.829  11.033
   46SBC   C02632047  12.936   9.818  10.920
   46SBC   C02832048  12.964   9.929  10.843
   46SBC   C02932049  12.917  10.049  10.885
   46SBC   C02B32050  12.954  10.164  10.816
   46SBC   C02C32051  12.913  10.285  10.862
   46SBC   C02X32052  12.969  10.394  10.800
   46SBC   C03E32053  12.929  10.516  10.849
   46SBC   C03G32054  12.845  10.540  10.954
   46SBC   C04Q32055  12.798  10.428  11.015
   46SBC   C04R32056  12.730  10.441  11.131
   46SBC   C04S32057  12.684  10.333  11.201
   46SBC   C04L32058  12.727  10.207  11.159
   46SBC   C04M32059  12.796  10.191  11.039
   46SBC   C04K32060  12.690  10.092  11.229
   46SBC   C04F32061  12.613  10.101  11.344
   46SBC   C04E32062  12.571  10.229  11.388
   46SBC   C04D32063  12.505  10.244  11.508
   46SBC   C05032064  12.465  10.368  11.553
   46SBC   C05132065  12.387  10.373  11.671
   46SBC   C05Q32066  12.346  10.498  11.712
   46SBC   C05V32067  12.269  10.502  11.823
   46SBC   N00532068  12.220  10.631  11.863
   46SBC   C07V32069  12.274  10.744  11.803
   46SBC   C08232070  12.230  10.867  11.851
   46SBC   C08132071  12.140  10.885  11.954
   46SBC   C07C32072  12.084  10.770  12.010
   46SBC   C07B32073  11.979  10.777  12.105
   46SBC   C08032074  11.930  10.904  12.143
   46SBC   C07Z32075  11.816  10.900  12.230
   46SBC   H00L32076  11.775  10.991  12.270
   46SBC   C07932077  11.761  10.785  12.289
   46SBC   C07832078  11.812  10.660  12.252
   46SBC   C07732079  11.760  10.542  12.299
   46SBC   C07X32080  11.653  10.550  12.395
   46SBC   H00I32081  11.613  10.465  12.449
   46SBC   C07Y32082  11.604  10.669  12.438
   46SBC   H00H32083  11.535  10.679  12.521
   46SBC   C07632084  11.814  10.420  12.256
   46SBC   C06C32085  11.773  10.295  12.321
   46SBC   H00C32086  11.682  10.286  12.379
   46SBC   C06F32087  11.921  10.418  12.170
   46SBC   C06E32088  11.995  10.298  12.150
   46SBC   C06G32089  12.099  10.289  12.065
   46SBC   C06H32090  12.132  10.402  11.996
   46SBC   C06I32091  12.078  10.525  12.029
   46SBC   C06L32092  12.156  10.163  12.041
   46SBC   C06M32093  12.136  10.048  12.126
   46SBC   C06K32094  12.240  10.147  11.935
   46SBC   C05S32095  12.280  10.263  11.858
   46SBC   C05U32096  12.285  10.017  11.900
   46SBC   C05X32097  12.264   9.900  11.976
   46SBC   C05G32098  12.315   9.777  11.911
   46SBC   C05F32099  12.376   9.787  11.785
   46SBC   C05E32100  12.430   9.671  11.751
   46SBC   C04832101  12.518   9.655  11.643
   46SBC   C05632102  12.575   9.534  11.623
   46SBC   C04532103  12.651   9.521  11.507
   46SBC   C04732104  12.530   9.763  11.562
   46SBC   C04932105  12.480   9.891  11.602
   46SBC   C04B32106  12.510  10.002  11.532
   46SBC   C04632107  12.604   9.750  11.450
   46SBC   C04H32108  12.628   9.867  11.378
   46SBC   C05D32109  12.408   9.575  11.853
   46SBC   C04A32110  12.403   9.903  11.716
   46SBC   C05T32111  12.358  10.018  11.773
   46SBC   C05532112  12.400  10.132  11.701
   46SBC   C06D32113  11.966  10.183  12.226
   46SBC   C07W32114  11.974  10.537  12.119
   46SBC   C08532115  11.656  10.782  12.383
   46SBC   H00M32116  11.622  10.872  12.432
   46SBC   C08432117  11.998  11.021  12.092
   46SBC   H00J32118  11.970  11.119  12.128
   46SBC   C07A32119  11.918  10.660  12.154
   46SBC   C08332120  12.103  11.010  12.007
   46SBC   H00K32121  12.154  11.098  11.969
   46SBC   O00K32122  12.284  10.981  11.797
   46SBC   C0GO32123  12.372  10.975  11.694
   46SBC   C0GN32124  12.433  11.090  11.641
   46SBC   H01L32125  12.411  11.186  11.685
   46SBC   C0GM32126  12.519  11.084  11.521
   46SBC   C0GL32127  12.587  11.195  11.486
   46SBC   H01M32128  12.574  11.282  11.549
   46SBC   O00J32129  12.672  11.196  11.379
   46SBC   C0GK32130  12.685  11.072  11.318
   46SBC   H01N32131  12.758  11.070  11.239
   46SBC   C05K32132  12.619  10.956  11.352
   46SBC   C05J32133  12.644  10.831  11.285
   46SBC   C04Y32134  12.719  10.810  11.168
   46SBC   C04X32135  12.747  10.683  11.114
   46SBC   O00632136  12.764  10.918  11.101
   46SBC   C05332137  12.853  10.911  11.001
   46SBC   C04O32138  12.883  10.784  10.937
   46SBC   C03C32139  12.954  10.761  10.819
   46SBC   C03B32140  13.033  10.840  10.724
   46SBC   C05432141  13.087  10.964  10.763
   46SBC   C0GR32142  13.195  11.030  10.702
   46SBC   C03M32143  13.306  10.996  10.604
   46SBC   C03I32144  13.319  10.870  10.537
   46SBC   C03J32145  13.434  10.850  10.458
   46SBC   N00232146  13.466  10.720  10.410
   46SBC   C02U32147  13.587  10.699  10.331
   46SBC   C02T32148  13.623  10.574  10.281
   46SBC   C02Z32149  13.744  10.555  10.208
   46SBC   N00132150  13.786  10.427  10.165
   46SBC   C02R32151  13.909  10.407  10.098
   46SBC   C03232152  13.988  10.516  10.081
   46SBC   C03132153  13.949  10.643  10.126
   46SBC   H00732154  14.022  10.722  10.114
   46SBC   C03332155  14.116  10.488  10.019
   46SBC   H00332156  14.185  10.572  10.014
   46SBC   O00432157  14.156  10.372   9.963
   46SBC   C03432158  14.066  10.268   9.968
   46SBC   C03532159  14.096  10.146   9.908
   46SBC   C03632160  13.999  10.043   9.918
   46SBC   H00532161  14.012   9.949   9.866
   46SBC   C03732162  13.876  10.052   9.984
   46SBC   H00632163  13.806   9.971   9.995
   46SBC   C00D32164  13.852  10.174  10.055
   46SBC   C00C32165  13.745  10.186  10.142
   46SBC   C00B32166  13.676  10.079  10.209
   46SBC   C00A32167  13.686   9.933  10.225
   46SBC   C00932168  13.557   9.898  10.274
   46SBC   C00832169  13.526   9.781  10.352
   46SBC   C00732170  13.623   9.684  10.363
   46SBC   C00632171  13.593   9.575  10.445
   46SBC   C00532172  13.696   9.479  10.466
   46SBC   C00432173  13.828   9.495  10.415
   46SBC   C00332174  13.854   9.610  10.335
   46SBC   C00232175  13.980   9.624  10.276
   46SBC   C01C32176  14.068   9.516  10.277
   46SBC   C01B32177  14.193   9.527  10.211
   46SBC   H00032178  14.227   9.606  10.146
   46SBC   C00132179  14.014   9.750  10.233
   46SBC   C00032180  13.924   9.858  10.248
   46SBC   C01U32181  14.008   9.974  10.230
   46SBC   H00232182  13.979  10.076  10.252
   46SBC   C01T32183  14.143   9.921  10.197
   46SBC   O00232184  14.248   9.981  10.174
   46SBC   O00132185  14.138   9.792  10.195
   46SBC   C01S32186  13.751   9.704  10.313
   46SBC   C00N32187  13.407   9.782  10.422
   46SBC   C00M32188  13.326   9.895  10.429
   46SBC   C00J32189  13.362  10.011  10.360
   46SBC   C00I32190  13.314  10.134  10.393
   46SBC   C00H32191  13.378  10.246  10.346
   46SBC   C00G32192  13.497  10.241  10.274
   46SBC   C00F32193  13.579  10.343  10.247
   46SBC   C01X32194  13.341  10.372  10.396
   46SBC   C01W32195  13.240  10.382  10.487
   46SBC   C01V32196  13.177  10.264  10.534
   46SBC   C02032197  13.096  10.271  10.643
   46SBC   C01Z32198  13.209  10.507  10.544
   46SBC   C02Y32199  13.115  10.504  10.638
   46SBC   C03932200  13.072  10.628  10.682
   46SBC   C02W32201  13.268  10.628  10.503
   46SBC   C01Y32202  13.422  10.481  10.367
   46SBC   C00U32203  13.215  10.141  10.487
   46SBC   C00S32204  13.163  10.021  10.543
   46SBC   C00T32205  13.072  10.029  10.651
   46SBC   C00R32206  13.219   9.900  10.511
   46SBC   C00Q32207  13.185   9.789  10.585
   46SBC   C00V32208  13.094   9.798  10.687
   46SBC   C02432209  13.065   9.686  10.764
   46SBC   C00X32210  13.120   9.567  10.732
   46SBC   C00P32211  13.250   9.671  10.560
   46SBC   C00O32212  13.368   9.667  10.481
   46SBC   C00K32213  13.476  10.003  10.278
   46SBC   N00032214  13.787   9.834  10.264
   46SBC   C00L32215  13.546  10.111  10.246
   46SBC   H00432216  14.189  10.133   9.855
   46SBC   C02Q32217  13.939  10.282  10.038
   46SBC   C00E32218  13.702  10.316  10.187
   46SBC   C03032219  13.823  10.666  10.184
   46SBC   O00332220  13.786  10.790  10.224
   46SBC   C02S32221  13.542  10.467  10.301
   46SBC   C03832222  13.676  10.807  10.306
   46SBC   C03L32223  13.648  10.927  10.365
   46SBC   H00832224  13.718  11.009  10.355
   46SBC   C02V32225  13.387  10.606  10.430
   46SBC   C03K32226  13.532  10.950  10.436
   46SBC   C0BK32227  13.499  11.076  10.495
   46SBC   H00T32228  13.558  11.162  10.469
   46SBC   C03H32229  13.238  10.755  10.555
   46SBC   C0BL32230  13.393  11.105  10.579
   46SBC   C0GU32231  13.371  11.238  10.631
   46SBC   H01O32232  13.438  11.319  10.608
   46SBC   C0GT32233  13.276  11.263  10.731
   46SBC   H01P32234  13.263  11.359  10.779
   46SBC   C0GS32235  13.192  11.159  10.761
   46SBC   C0GV32236  13.095  11.169  10.860
   46SBC   C0GW32237  13.054  11.285  10.935
   46SBC   H01Q32238  13.103  11.381  10.923
   46SBC   C0GX32239  12.952  11.262  11.019
   46SBC   H01R32240  12.923  11.350  11.075
   46SBC   O00L32241  12.891  11.140  11.046
   46SBC   C0GQ32242  13.022  11.048  10.862
   46SBC   C03A32243  13.121  10.754  10.646
   46SBC   C05L32244  12.927  11.034  10.969
   46SBC   C04W32245  12.589  10.714  11.343
   46SBC   C05I32246  12.515  10.718  11.461
   46SBC   C05O32247  12.481  10.841  11.519
   46SBC   C05232248  12.460  10.604  11.527
   46SBC   C04V32249  12.616  10.588  11.293
   46SBC   C04U32250  12.571  10.467  11.362
   46SBC   N00932251  12.532  10.962  11.462
   46SBC   C0GP32252  12.407  10.850  11.637
   46SBC   C05W32253  12.356  10.737  11.692
   46SBC   C07D32254  12.126  10.639  11.970
   46SBC   C06J32255  12.226  10.386  11.896
   46SBC   C05P32256  12.386  10.611  11.641
   46SBC   C05R32257  12.356  10.254  11.748
   46SBC   C04Z32258  12.504  10.480  11.484
   46SBC   C04C32259  12.467  10.129  11.577
   46SBC   C04G32260  12.582   9.986  11.419
   46SBC   C04J32261  12.733   9.968  11.188
   46SBC   C04T32262  12.610  10.343  11.314
   46SBC   N00332263  12.697  10.572  11.180
   46SBC   C04P32264  12.827  10.669  10.999
   46SBC   C03D32265  12.977  10.630  10.783
   46SBC   C02132266  13.056  10.391  10.690
   46SBC   C03F32267  12.837  10.303  10.969
   46SBC   C02232268  13.040  10.156  10.703
   46SBC   C02A32269  12.836  10.064  10.999
   46SBC   C02332270  13.038   9.917  10.723
   46SBC   C02532271  12.979   9.693  10.876
   46SBC   C02D32272  12.960   9.584  10.960
   46SBC   C02E32273  13.030   9.466  10.933
   46SBC   C02N32274  13.019   9.356  11.019
   46SBC   C04N32275  12.803   9.950  11.072
   46SBC   C02P32276  12.894   9.598  11.079
   46SBC   C04I32277  12.708   9.854  11.267
   46SBC   C04432278  12.667   9.629  11.419
   46SBC   C04332279  12.885   9.484  11.164
   46SBC   C05N32280  12.940   9.362  11.131
   46SBC   C09U32281  12.914   9.049  11.412
   46SBC   C09V32282  12.922   8.952  11.514
   46SBC   C09X32283  12.972   8.829  11.501
   46SBC   C09Y32284  12.985   8.734  11.598
   46SBC   C0A132285  12.934   8.759  11.718
   46SBC   C0A232286  12.866   8.878  11.741
   46SBC   C0A432287  12.807   8.903  11.862
   46SBC   C07132288  12.738   9.020  11.882
   46SBC   C0A532289  12.664   9.040  12.003
   46SBC   C0A932290  12.683   8.946  12.104
   46SBC   C0A832291  12.767   8.834  12.082
   46SBC   C0AP32292  12.780   8.742  12.185
   46SBC   C0BY32293  12.855   8.632  12.166
   46SBC   C0BX32294  12.922   8.604  12.050
   46SBC   C0C232295  12.998   8.488  12.037
   46SBC   C0C332296  13.055   8.462  11.913
   46SBC   C0CT32297  13.031   8.550  11.807
   46SBC   C0C132298  13.014   8.401  12.146
   46SBC   C0C032299  12.929   8.415  12.264
   46SBC   C0A732300  12.905   8.697  11.946
   46SBC   C0BZ32301  12.861   8.534  12.265
   46SBC   C0BO32302  12.783   8.551  12.373
   46SBC   C0BN32303  12.716   8.669  12.402
   46SBC   C0BM32304  12.667   8.683  12.529
   46SBC   C0B932305  12.600   8.801  12.553
   46SBC   C0B832306  12.588   8.899  12.455
   46SBC   C0AD32307  12.641   8.874  12.326
   46SBC   C0AF32308  12.512   9.009  12.481
   46SBC   C0AG32309  12.462   9.040  12.608
   46SBC   C0B732310  12.488   8.946  12.707
   46SBC   C0AE32311  12.487   9.085  12.373
   46SBC   C0AB32312  12.542   9.068  12.244
   46SBC   C0AA32313  12.516   9.162  12.141
   46SBC   C0AJ32314  12.404   9.190  12.390
   46SBC   C0AK32315  12.367   9.273  12.282
   46SBC   C06W32316  12.318   9.383  12.340
   46SBC   C0AI32317  12.357   9.239  12.512
   46SBC   C0BP32318  12.802   8.446  12.467
   46SBC   C0BQ32319  12.749   8.461  12.600
   46SBC   C0BW32320  12.712   8.763  12.304
   46SBC   C0AC32321  12.625   8.969  12.225
   46SBC   C0A632322  12.827   8.810  11.965
   46SBC   C0A332323  12.960   8.669  11.823
   46SBC   C09Z32324  13.052   8.612  11.575
   46SBC   C09W32325  12.865   8.976  11.644
   46SBC   C07232326  12.789   9.092  11.659
   46SBC   C09H32327  13.009   8.798  11.369
   46SBC   C09G32328  13.066   8.676  11.349
   46SBC   C09P32329  13.129   8.695  11.228
   46SBC   C02O32330  13.168   9.023  11.038
   46SBC   C02M32331  13.098   9.243  10.992
   46SBC   C02F32332  13.105   9.458  10.819
   46SBC   C00W32333  13.215   9.567  10.634
   46SBC   C01R32334  13.456   9.560  10.484
   46SBC   C01N32335  13.368   9.268  10.682
   46SBC   C01L32336  13.523   9.102  10.758
   46SBC   C01H32337  13.858   9.036  10.670
   46SBC   C01K32338  13.684   9.360  10.548
   46SBC   C01E32339  13.923   9.393  10.428
   46SBC   C01G32340  13.992   9.055  10.611
   46SBC   C01D32341  14.047   9.404  10.357
   46SBC   C01A32342  14.286   9.425  10.212
   46SBC   H00132343  14.377   9.437  10.154
   46SBC   C01F32344  14.228   9.100  10.474
   46SBC   C03P32345  14.455   8.933  10.504
   46SBC   C03T32346  14.341   8.801  10.663
   46SBC   C08I32347  14.291   8.595  10.857
   46SBC   C08J32348  14.257   8.501  10.951
   46SBC   C08L32349  14.093   8.389  11.099
   46SBC   C09332350  13.923   8.265  11.236
   46SBC   C08Z32351  13.734   8.426  11.110
   46SBC   C09T32352  13.506   8.165  11.433
   46SBC   C09S32353  13.439   8.396  11.181
   46SBC   C09Q32354  13.223   8.591  11.200
   46SBC   C09F32355  13.092   8.585  11.449
   46SBC   C09E32356  13.303   8.288  11.467
   46SBC   C0A032357  13.077   8.522  11.676
   46SBC   C0CU32358  13.139   8.354  11.897
   46SBC   C0CR32359  13.168   8.272  12.006
   46SBC   C0CZ32360  13.252   8.158  11.991
   46SBC   C0DA32361  13.390   8.192  11.527
   46SBC   C0D932362  13.315   7.857  11.655
   46SBC   H00V32363  13.274   7.825  11.560
   46SBC   C0CY32364  13.301   8.129  11.860
   46SBC   C0DF32365  13.306   7.781  11.780
   46SBC   C0DE32366  13.236   7.681  11.853
   46SBC   C0GI32367  13.195   7.547  11.814
   46SBC   H01K32368  13.204   7.512  11.713
   46SBC   C0GJ32369  13.154   7.467  11.912
   46SBC   H01J32370  13.138   7.364  11.881
   46SBC   O00I32371  13.149   7.503  12.049
   46SBC   C0GH32372  13.173   7.628  12.089
   46SBC   C0GG32373  13.145   7.652  12.225
   46SBC   O00G32374  13.091   7.549  12.295
   46SBC   C0G832375  13.072   7.556  12.428
   46SBC   C0G932376  13.063   7.435  12.487
   46SBC   H01G32377  13.079   7.342  12.434
   46SBC   C0GA32378  13.036   7.424  12.620
   46SBC   H01H32379  13.033   7.322  12.656
   46SBC   C0GB32380  13.036   7.539  12.711
   46SBC   C0EP32381  13.034   7.668  12.642
   46SBC   C0E832382  12.985   7.784  12.714
   46SBC   C0CK32383  12.954   7.921  12.681
   46SBC   C0CL32384  13.036   7.990  12.588
   46SBC   C0E932385  13.113   7.927  12.488
   46SBC   C0GE32386  13.116   7.796  12.430
   46SBC   C0E732387  12.962   7.779  12.850
   46SBC   C0CJ32388  12.923   7.907  12.895
   46SBC   C0E632389  12.922   7.909  13.033
   46SBC   H00Y32390  12.890   7.999  13.083
   46SBC   C0EO32391  12.953   7.799  13.112
   46SBC   H01132392  12.948   7.806  13.220
   46SBC   C0G632393  13.000   7.671  13.055
   46SBC   C0G532394  13.037   7.550  13.121
   46SBC   H01F32395  13.045   7.550  13.228
   46SBC   C0GD32396  13.052   7.432  13.051
   46SBC   H01I32397  13.094   7.351  13.108
   46SBC   O00H32398  13.047   7.425  12.919
   46SBC   C0EQ32399  12.999   7.662  12.920
   46SBC   C0GC32400  13.035   7.543  12.855
   46SBC   C0G732401  13.069   7.678  12.503
   46SBC   C0DD32402  13.228   7.717  11.994
   46SBC   C0GF32403  13.162   7.776  12.296
   46SBC   C0CO32404  13.179   8.030  12.429
   46SBC   C0D032405  13.262   8.071  12.103
   46SBC   C0C432406  13.110   8.296  12.133
   46SBC   C0CN32407  13.152   8.156  12.488
   46SBC   C0CP32408  12.905   8.367  12.398
   46SBC   C0CM32409  13.065   8.130  12.594
   46SBC   C0CI32410  12.903   8.000  12.786
   46SBC   C0CD32411  12.638   8.317  13.036
   46SBC   C0BR32412  12.773   8.364  12.697
   46SBC   C0CS32413  12.683   8.582  12.627
   46SBC   C0B632414  12.551   8.826  12.682
   46SBC   C0CG32415  12.588   8.537  12.970
   46SBC   C0CF32416  12.595   8.444  13.071
   46SBC   C0E532417  12.572   8.248  13.262
   46SBC   C0DT32418  12.533   8.312  13.519
   46SBC   C0DL32419  12.507   8.643  13.364
   46SBC   C0DM32420  12.463   8.769  13.403
   46SBC   C0DY32421  12.471   8.708  13.631
   46SBC   C0DU32422  12.540   8.355  13.648
   46SBC   C0F032423  12.538   8.290  13.879
   46SBC   C0F432424  12.462   8.332  14.133
   46SBC   C0FG32425  12.485   8.672  13.987
   46SBC   O00B32426  12.341   8.496  14.264
   46SBC   C0FN32427  12.423   8.777  14.038
   46SBC   C0DZ32428  12.449   8.747  13.763
   46SBC   O00C32429  12.297   9.081  13.729
   46SBC   C0FR32430  12.285   9.177  13.644
   46SBC   O00D32431  12.252   9.288  13.699
   46SBC   C0E032432  12.440   8.802  13.533
   46SBC   C0E332433  12.310   9.146  13.506
   46SBC   C0AW32434  12.290   9.233  13.400
   46SBC   C0AV32435  12.236   9.368  13.413
   46SBC   H00Q32436  12.226   9.411  13.512
   46SBC   C0AU32437  12.225   9.461  13.306
   46SBC   H00R32438  12.195   9.563  13.324
   46SBC   C0AT32439  12.250   9.412  13.176
   46SBC   C0AS32440  12.230   9.460  13.042
   46SBC   C0AR32441  12.129   9.551  13.011
   46SBC   C0BE32442  12.303   9.286  13.166
   46SBC   C0DN32443  12.445   8.861  13.304
   46SBC   C0AX32444  12.327   9.199  13.274
   46SBC   C0BB32445  12.445   8.916  13.069
   46SBC   C0BD32446  12.323   9.255  13.033
   46SBC   C0B232447  12.448   8.984  12.831
   46SBC   C0AH32448  12.392   9.166  12.632
   46SBC   C0BF32449  12.278   9.357  12.945
   46SBC   C0AL32450  12.292   9.362  12.478
   46SBC   C07U32451  12.171   9.567  12.757
   46SBC   C0AQ32452  12.124   9.608  12.878
   46SBC   C0BG32453  12.052   9.638  13.100
   46SBC   C0FY32454  11.802   9.859  12.983
   46SBC   C0BJ32455  11.938   9.621  13.181
   46SBC   H00S32456  11.908   9.531  13.233
   46SBC   C0FZ32457  11.689   9.834  13.049
   46SBC   C07S32458  11.803   9.895  12.846
   46SBC   C0G132459  11.424   9.922  12.823
   46SBC   C07K32460  11.509   9.994  12.464
   46SBC   C07H32461  11.768   9.954  12.563
   46SBC   C06B32462  11.855  10.181  12.304
   46SBC   C06N32463  12.038  10.068  12.226
   46SBC   C06632464  12.000   9.843  12.541
   46SBC   C06232465  12.223   9.671  12.404
   46SBC   C05Y32466  12.205   9.921  12.100
   46SBC   C06132467  12.318   9.626  12.307
   46SBC   C05H32468  12.329   9.639  11.946
   46SBC   C06V32469  12.331   9.491  12.263
   46SBC   C06Y32470  12.432   9.264  12.155
   46SBC   C05C32471  12.484   9.458  11.838
   46SBC   C06Z32472  12.585   9.152  12.021
   46SBC   C07032473  12.723   9.114  11.780
   46SBC   C05B32474  12.560   9.435  11.719
   46SBC   C05732475  12.719   9.402  11.485
   46SBC   C05932476  12.781   9.184  11.554
   47SBC   C05832477   2.195   6.589   6.304
   47SBC   C05A32478   2.154   6.557   6.438
   47SBC   C06Q32479   2.062   6.641   6.502
   47SBC   C06R32480   2.019   6.610   6.634
   47SBC   C06S32481   2.068   6.493   6.706
   47SBC   C06T32482   2.009   6.465   6.836
   47SBC   C06U32483   2.039   6.358   6.934
   47SBC   C06X32484   2.135   6.253   6.939
   47SBC   C06032485   2.130   6.183   7.067
   47SBC   C05Z32486   2.137   6.039   7.102
   47SBC   C06832487   2.049   6.028   7.221
   47SBC   C06732488   2.051   5.937   7.332
   47SBC   C06932489   2.150   5.835   7.337
   47SBC   C06A32490   2.201   5.756   7.454
   47SBC   C07332491   2.203   5.789   7.594
   47SBC   C07P32492   2.320   5.763   7.670
   47SBC   C07O32493   2.447   5.722   7.619
   47SBC   H00D32494   2.469   5.700   7.516
   47SBC   C07N32495   2.562   5.715   7.697
   47SBC   H00E32496   2.654   5.671   7.660
   47SBC   C07M32497   2.557   5.760   7.826
   47SBC   H00F32498   2.647   5.758   7.886
   47SBC   C07L32499   2.436   5.804   7.886
   47SBC   C07Q32500   2.415   5.843   8.023
   47SBC   H00G32501   2.507   5.846   8.079
   47SBC   O00F32502   2.293   5.883   8.076
   47SBC   C07J32503   2.188   5.863   8.000
   47SBC   C07I32504   2.194   5.831   7.864
   47SBC   N00432505   2.074   5.834   7.783
   47SBC   C07R32506   1.946   5.852   7.848
   47SBC   C07T32507   1.951   5.876   7.991
   47SBC   C0FX32508   1.837   5.912   8.055
   47SBC   C0FW32509   1.830   5.972   8.181
   47SBC   C0G032510   1.959   5.981   8.253
   47SBC   C0G232511   1.968   6.041   8.377
   47SBC   H01E32512   2.063   6.036   8.427
   47SBC   C0G332513   1.853   6.110   8.426
   47SBC   H01C32514   1.848   6.151   8.525
   47SBC   C0G432515   1.733   6.098   8.350
   47SBC   H01D32516   1.648   6.131   8.408
   47SBC   O00E32517   2.072   5.933   8.197
   47SBC   C0FV32518   1.710   6.032   8.228
   47SBC   C0FU32519   1.591   6.028   8.149
   47SBC   H01B32520   1.501   6.083   8.172
   47SBC   C0FT32521   1.594   5.956   8.024
   47SBC   C0FS32522   1.513   5.944   7.905
   47SBC   C0BI32523   1.580   5.865   7.809
   47SBC   C0BH32524   1.535   5.907   7.678
   47SBC   C07F32525   1.625   5.960   7.582
   47SBC   C07E32526   1.755   5.924   7.552
   47SBC   C07G32527   1.846   5.871   7.636
   47SBC   C07432528   1.964   5.880   7.578
   47SBC   C06532529   1.827   5.985   7.449
   47SBC   C06432530   1.766   6.094   7.380
   47SBC   C06332531   1.827   6.178   7.289
   47SBC   C07532532   1.724   6.279   7.260
   47SBC   C0AM32533   1.604   6.266   7.344
   47SBC   C0AN32534   1.487   6.359   7.369
   47SBC   C0AO32535   1.457   6.486   7.296
   47SBC   C0B132536   1.338   6.562   7.327
   47SBC   C0B032537   1.244   6.514   7.417
   47SBC   C0AZ32538   1.115   6.567   7.442
   47SBC   C0AY32539   1.022   6.504   7.525
   47SBC   N00732540   0.889   6.549   7.537
   47SBC   C0E232541   0.796   6.477   7.614
   47SBC   C0E132542   0.666   6.527   7.620
   47SBC   C0E432543   0.566   6.461   7.686
   47SBC   C0FF32544   0.433   6.509   7.690
   47SBC   C0FJ32545   0.325   6.458   7.777
   47SBC   C0FK32546   0.344   6.413   7.912
   47SBC   H01632547   0.425   6.362   7.960
   47SBC   C0FL32548   0.229   6.456   7.984
   47SBC   H01732549   0.211   6.442   8.090
   47SBC   C0FM32550   0.142   6.534   7.902
   47SBC   C0FH32551   0.063   6.653   7.903
   47SBC   C0FI32552   0.087   6.701   7.775
   47SBC   C0F332553   0.064   6.836   7.748
   47SBC   C0F232554   0.146   6.885   7.645
   47SBC   C0DW32555   0.256   6.818   7.589
   47SBC   C0FE32556   0.273   6.687   7.624
   47SBC   C0DV32557   0.354   6.887   7.524
   47SBC   C0DX32558   0.478   6.824   7.505
   47SBC   C0DK32559   0.579   6.903   7.458
   47SBC   C0DJ32560   0.562   7.036   7.428
   47SBC   C0DI32561   0.667   7.110   7.379
   47SBC   C0DH32562   0.782   7.047   7.346
   47SBC   C0DG32563   0.801   6.917   7.378
   47SBC   C0BV32564   0.928   6.864   7.353
   47SBC   C0BC32565   0.952   6.737   7.400
   47SBC   C0BA32566   1.023   6.931   7.275
   47SBC   C0B432567   1.138   6.862   7.235
   47SBC   C0B332568   1.171   6.742   7.293
   47SBC   C0B532569   1.219   6.922   7.143
   47SBC   C0BU32570   1.178   7.044   7.085
   47SBC   C0BT32571   1.067   7.114   7.133
   47SBC   C0BS32572   1.033   7.238   7.082
   47SBC   C0CC32573   0.936   7.314   7.149
   47SBC   C0CB32574   0.921   7.449   7.124
   47SBC   C0CH32575   0.862   7.517   7.234
   47SBC   C0DO32576   0.772   7.453   7.323
   47SBC   C0DP32577   0.679   7.522   7.410
   47SBC   C0EA32578   0.700   7.666   7.441
   47SBC   H01232579   0.792   7.721   7.426
   47SBC   O00932580   0.614   7.731   7.521
   47SBC   C0EH32581   0.502   7.660   7.557
   47SBC   C0EG32582   0.401   7.730   7.622
   47SBC   C0EJ32583   0.392   7.868   7.662
   47SBC   H01032584   0.468   7.944   7.648
   47SBC   C0EK32585   0.271   7.887   7.741
   47SBC   H00Z32586   0.226   7.978   7.777
   47SBC   C0EL32587   0.226   7.754   7.757
   47SBC   C0EM32588   0.121   7.703   7.838
   47SBC   C0EW32589   0.031   7.784   7.919
   47SBC   H01332590   0.049   7.890   7.931
   47SBC   C0EX32591  -0.073   7.717   7.991
   47SBC   H01432592  -0.137   7.769   8.060
   47SBC   C0F132593  -0.088   7.575   7.976
   47SBC   C0EU32594   0.004   7.503   7.900
   47SBC   C0ET32595   0.016   7.357   7.881
   47SBC   C0ES32596   0.122   7.336   7.788
   47SBC   C0EE32597   0.172   7.462   7.752
   47SBC   C0ED32598   0.272   7.525   7.667
   47SBC   C0EC32599   0.359   7.454   7.582
   47SBC   C0EB32600   0.349   7.315   7.554
   47SBC   C0EN32601   0.235   7.229   7.600
   47SBC   C0ER32602   0.238   7.092   7.571
   47SBC   C0DS32603   0.448   7.247   7.484
   47SBC   C0DR32604   0.561   7.314   7.447
   47SBC   C0EY32605   0.125   7.234   7.694
   47SBC   C0EZ32606   0.071   7.110   7.728
   47SBC   C0F532607  -0.015   7.055   7.833
   47SBC   C0F632608  -0.092   7.137   7.917
   47SBC   N00832609  -0.179   7.060   7.998
   47SBC   C0F732610  -0.167   6.912   8.020
   47SBC   C0FQ32611  -0.258   6.854   8.113
   47SBC   H01832612  -0.239   6.749   8.134
   47SBC   C0FP32613  -0.361   6.924   8.175
   47SBC   H01932614  -0.426   6.873   8.244
   47SBC   C0FO32615  -0.373   7.063   8.156
   47SBC   H01A32616  -0.448   7.119   8.210
   47SBC   C0F832617  -0.067   6.844   7.946
   47SBC   C0F932618  -0.282   7.132   8.073
   47SBC   C0FA32619  -0.288   7.268   8.071
   47SBC   H01532620  -0.372   7.317   8.119
   47SBC   C0FB32621  -0.185   7.351   8.013
   47SBC   C0FD32622  -0.092   7.280   7.936
   47SBC   C0FC32623  -0.184   7.494   8.039
   47SBC   O00A32624  -0.264   7.549   8.116
   47SBC   C0EV32625   0.105   7.561   7.833
   47SBC   C0EF32626   0.297   7.664   7.674
   47SBC   C0EI32627   0.474   7.521   7.531
   47SBC   C0DQ32628   0.571   7.453   7.464
   47SBC   C0CE32629   0.763   7.318   7.314
   47SBC   H00U32630   0.868   7.625   7.236
   47SBC   C0CA32631   0.961   7.501   6.993
   47SBC   C0C932632   1.044   7.415   6.912
   47SBC   C0C832633   1.052   7.440   6.774
   47SBC   C0C732634   1.157   7.417   6.673
   47SBC   C0C632635   1.125   7.466   6.547
   47SBC   C0C532636   1.196   7.489   6.423
   47SBC   C0CQ32637   1.136   7.587   6.338
   47SBC   C0D132638   1.049   7.676   6.398
   47SBC   C0D832639   1.075   7.804   6.354
   47SBC   C0D732640   1.145   7.783   6.231
   47SBC   C0D632641   1.188   7.887   6.143
   47SBC   C0D532642   1.255   7.862   6.019
   47SBC   C0D432643   1.319   7.741   5.973
   47SBC   C0D332644   1.419   7.789   5.886
   47SBC   C0CX32645   1.524   7.681   5.889
   47SBC   C0CW32646   1.500   7.591   6.005
   47SBC   C0CV32647   1.559   7.471   6.068
   47SBC   C0D232648   1.683   7.417   6.024
   47SBC   C09D32649   1.755   7.459   5.908
   47SBC   C09C32650   1.877   7.393   5.871
   47SBC   C09B32651   1.947   7.404   5.746
   47SBC   C09A32652   1.900   7.510   5.662
   47SBC   C09932653   1.806   7.597   5.701
   47SBC   C09832654   1.748   7.662   5.586
   47SBC   C08Y32655   1.799   7.595   5.465
   47SBC   C08X32656   1.750   7.599   5.328
   47SBC   C08W32657   1.634   7.678   5.289
   47SBC   C08U32658   1.535   7.745   5.384
   47SBC   C08V32659   1.530   7.761   5.529
   47SBC   C0DC32660   1.410   7.830   5.555
   47SBC   H00W32661   1.378   7.849   5.656
   47SBC   C0DB32662   1.345   7.875   5.438
   47SBC   H00X32663   1.255   7.935   5.437
   47SBC   C08T32664   1.430   7.823   5.332
   47SBC   C08S32665   1.410   7.837   5.196
   47SBC   H00N32666   1.328   7.900   5.166
   47SBC   C08R32667   1.500   7.785   5.103
   47SBC   C08Q32668   1.480   7.781   4.966
   47SBC   H00O32669   1.407   7.836   4.907
   47SBC   C08P32670   1.539   7.697   4.868
   47SBC   C08O32671   1.508   7.703   4.724
   47SBC   H00P32672   1.433   7.769   4.685
   47SBC   C08N32673   1.570   7.604   4.643
   47SBC   C08M32674   1.526   7.587   4.503
   47SBC   O00832675   1.444   7.664   4.446
   47SBC   O00732676   1.591   7.493   4.433
   47SBC   C08H32677   1.682   7.411   4.482
   47SBC   C08G32678   1.739   7.309   4.399
   47SBC   C03V32679   1.722   7.283   4.265
   47SBC   H00932680   1.649   7.345   4.216
   47SBC   C03U32681   1.782   7.182   4.190
   47SBC   C03W32682   1.767   7.149   4.049
   47SBC   H00A32683   1.705   7.207   3.983
   47SBC   C03X32684   1.825   7.042   3.995
   47SBC   H00B32685   1.816   7.018   3.890
   47SBC   O00532686   1.913   6.959   4.062
   47SBC   C03O32687   1.926   6.988   4.195
   47SBC   C03N32688   1.998   6.897   4.273
   47SBC   O00032689   2.040   6.793   4.207
   47SBC   C01932690   2.109   6.704   4.268
   47SBC   C01832691   2.140   6.709   4.406
   47SBC   C01732692   2.102   6.828   4.472
   47SBC   C01632693   2.136   6.846   4.605
   47SBC   C01532694   2.215   6.742   4.657
   47SBC   C01432695   2.254   6.757   4.789
   47SBC   C01332696   2.215   6.863   4.874
   47SBC   C01232697   2.263   6.820   5.005
   47SBC   C01132698   2.341   6.705   4.977
   47SBC   C01032699   2.402   6.643   5.079
   47SBC   C00Z32700   2.452   6.515   5.080
   47SBC   C00Y32701   2.483   6.493   5.214
   47SBC   C01O32702   2.456   6.604   5.292
   47SBC   C01P32703   2.403   6.585   5.418
   47SBC   C02L32704   2.346   6.696   5.480
   47SBC   C02K32705   2.302   6.798   5.391
   47SBC   C01M32706   2.313   6.797   5.245
   47SBC   C02J32707   2.270   6.917   5.464
   47SBC   C02I32708   2.223   7.036   5.405
   47SBC   C02H32709   2.200   7.075   5.269
   47SBC   C01Q32710   2.213   7.007   5.146
   47SBC   C02G32711   2.165   7.094   5.046
   47SBC   C08932712   2.135   7.212   5.107
   47SBC   C08832713   2.035   7.276   5.027
   47SBC   C08732714   2.023   7.199   4.905
   47SBC   C08632715   1.957   7.237   4.785
   47SBC   C03S32716   1.957   7.168   4.661
   47SBC   N00632717   1.879   7.243   4.582
   47SBC   C08F32718   1.822   7.346   4.652
   47SBC   C01J32719   2.013   7.054   4.610
   47SBC   C03R32720   1.978   7.031   4.470
   47SBC   C03Q32721   1.896   7.116   4.395
   47SBC   C08E32722   1.862   7.345   4.781
   47SBC   C08D32723   1.808   7.430   4.876
   47SBC   C08K32724   1.703   7.515   4.832
   47SBC   C08C32725   1.839   7.441   5.012
   47SBC   C09132726   1.764   7.522   5.097
   47SBC   C09232727   1.659   7.611   5.052
   47SBC   C08B32728   1.946   7.379   5.089
   47SBC   C09032729   1.927   7.426   5.220
   47SBC   C09432730   2.015   7.392   5.328
   47SBC   C09532731   1.986   7.416   5.467
   47SBC   C09R32732   2.051   7.327   5.551
   47SBC   C09732733   2.118   7.240   5.476
   47SBC   C09632734   2.096   7.278   5.345
   47SBC   C01I32735   2.104   7.078   4.914
   47SBC   C08A32736   2.148   7.195   5.243
   47SBC   C09L32737   2.192   7.119   5.512
   47SBC   C09K32738   2.230   7.061   5.638
   47SBC   C09J32739   2.172   7.103   5.757
   47SBC   C09I32740   2.152   7.018   5.868
   47SBC   C09O32741   2.194   6.881   5.916
   47SBC   C09N32742   2.262   6.790   5.828
   47SBC   C09M32743   2.283   6.802   5.690
   47SBC   C06O32744   2.293   6.664   5.897
   47SBC   C05M32745   2.265   6.641   6.035
   47SBC   C06P32746   2.191   6.733   6.107
   47SBC   C04232747   2.302   6.520   6.100
   47SBC   C04132748   2.349   6.414   6.024
   47SBC   C04032749   2.374   6.293   6.085
   47SBC   C03Z32750   2.408   6.184   6.010
   47SBC   C03Y32751   2.426   6.199   5.872
   47SBC   C02732752   2.461   6.089   5.798
   47SBC   C02632753   2.482   6.105   5.659
   47SBC   C02832754   2.509   5.996   5.582
   47SBC   C02932755   2.527   5.872   5.641
   47SBC   C02B32756   2.553   5.764   5.563
   47SBC   C02C32757   2.571   5.638   5.616
   47SBC   C02X32758   2.602   5.531   5.537
   47SBC   C03E32759   2.604   5.411   5.598
   47SBC   C03G32760   2.570   5.381   5.724
   47SBC   C04Q32761   2.539   5.488   5.807
   47SBC   C04R32762   2.505   5.466   5.936
   47SBC   C04S32763   2.479   5.574   6.016
   47SBC   C04L32764   2.487   5.708   5.966
   47SBC   C04M32765   2.517   5.728   5.831
   47SBC   C04K32766   2.457   5.819   6.045
   47SBC   C04F32767   2.440   5.798   6.179
   47SBC   C04E32768   2.452   5.670   6.234
   47SBC   C04D32769   2.430   5.659   6.373
   47SBC   C05032770   2.408   5.530   6.423
   47SBC   C05132771   2.366   5.513   6.556
   47SBC   C05Q32772   2.334   5.391   6.607
   47SBC   C05V32773   2.301   5.376   6.741
   47SBC   N00532774   2.271   5.249   6.792
   47SBC   C07V32775   2.279   5.135   6.707
   47SBC   C08232776   2.248   5.007   6.759
   47SBC   C08132777   2.235   4.983   6.896
   47SBC   C07C32778   2.257   5.086   6.984
   47SBC   C07B32779   2.274   5.070   7.121
   47SBC   C08032780   2.264   4.941   7.178
   47SBC   C07Z32781   2.304   4.929   7.315
   47SBC   H00L32782   2.295   4.831   7.359
   47SBC   C07932783   2.327   5.033   7.402
   47SBC   C07832784   2.318   5.157   7.344
   47SBC   C07732785   2.326   5.271   7.427
   47SBC   C07X32786   2.365   5.256   7.565
   47SBC   H00I32787   2.382   5.344   7.624
   47SBC   C07Y32788   2.391   5.133   7.619
   47SBC   H00H32789   2.415   5.131   7.724
   47SBC   C07632790   2.302   5.396   7.371
   47SBC   C06C32791   2.269   5.503   7.462
   47SBC   H00C32792   2.277   5.492   7.569
   47SBC   C06F32793   2.290   5.415   7.232
   47SBC   C06E32794   2.275   5.540   7.179
   47SBC   C06G32795   2.273   5.571   7.043
   47SBC   C06H32796   2.287   5.464   6.958
   47SBC   C06I32797   2.288   5.332   7.011
   47SBC   C06L32798   2.266   5.709   6.998
   47SBC   C06M32799   2.221   5.812   7.080
   47SBC   C06K32800   2.292   5.729   6.861
   47SBC   C05S32801   2.317   5.616   6.774
   47SBC   C05U32802   2.308   5.857   6.812
   47SBC   C05X32803   2.266   5.970   6.894
   47SBC   C05G32804   2.272   6.093   6.813
   47SBC   C05F32805   2.324   6.094   6.687
   47SBC   C05E32806   2.305   6.220   6.623
   47SBC   C04832807   2.320   6.236   6.481
   47SBC   C05632808   2.282   6.358   6.430
   47SBC   C04532809   2.308   6.378   6.298
   47SBC   C04732810   2.377   6.131   6.414
   47SBC   C04932811   2.393   6.003   6.474
   47SBC   C04B32812   2.414   5.893   6.396
   47SBC   C04632813   2.383   6.144   6.280
   47SBC   C04H32814   2.410   6.037   6.204
   47SBC   C05D32815   2.232   6.306   6.708
   47SBC   C04A32816   2.367   5.987   6.609
   47SBC   C05T32817   2.357   5.869   6.675
   47SBC   C05532818   2.383   5.752   6.594
   47SBC   C06D32819   2.245   5.643   7.266
   47SBC   C07W32820   2.294   5.308   7.149
   47SBC   C08532821   2.372   5.023   7.535
   47SBC   H00M32822   2.398   4.932   7.587
   47SBC   C08432823   2.215   4.841   7.096
   47SBC   H00J32824   2.188   4.746   7.140
   47SBC   C07A32825   2.299   5.178   7.207
   47SBC   C08332826   2.206   4.862   6.960
   47SBC   H00K32827   2.167   4.780   6.902
   47SBC   O00K32828   2.250   4.901   6.675
   47SBC   C0GO32829   2.303   4.913   6.549
   47SBC   C0GN32830   2.315   4.800   6.470
   47SBC   H01L32831   2.286   4.701   6.504
   47SBC   C0GM32832   2.373   4.813   6.339
   47SBC   C0GL32833   2.402   4.703   6.269
   47SBC   H01M32834   2.383   4.604   6.308
   47SBC   O00J32835   2.461   4.702   6.143
   47SBC   C0GK32836   2.472   4.829   6.088
   47SBC   H01N32837   2.504   4.823   5.985
   47SBC   C05K32838   2.446   4.942   6.158
   47SBC   C05J32839   2.466   5.071   6.094
   47SBC   C04Y32840   2.506   5.096   5.957
   47SBC   C04X32841   2.523   5.225   5.901
   47SBC   O00632842   2.526   4.995   5.866
   47SBC   C05332843   2.552   5.011   5.734
   47SBC   C04O32844   2.577   5.140   5.681
   47SBC   C03C32845   2.603   5.176   5.546
   47SBC   C03B32846   2.605   5.102   5.414
   47SBC   C05432847   2.595   4.965   5.404
   47SBC   C0GR32848   2.608   4.896   5.282
   47SBC   C03M32849   2.618   4.936   5.141
   47SBC   C03I32850   2.622   5.074   5.088
   47SBC   C03J32851   2.622   5.093   4.945
   47SBC   N00232852   2.614   5.230   4.882
   47SBC   C02U32853   2.610   5.251   4.742
   47SBC   C02T32854   2.593   5.379   4.688
   47SBC   C02Z32855   2.570   5.392   4.553
   47SBC   N00132856   2.564   5.524   4.492
   47SBC   C02R32857   2.563   5.549   4.353
   47SBC   C03232858   2.576   5.433   4.271
   47SBC   C03132859   2.575   5.302   4.324
   47SBC   H00732860   2.593   5.227   4.248
   47SBC   C03332861   2.592   5.463   4.132
   47SBC   H00332862   2.605   5.381   4.062
   47SBC   O00432863   2.587   5.589   4.076
   47SBC   C03432864   2.575   5.694   4.164
   47SBC   C03532865   2.594   5.816   4.105
   47SBC   C03632866   2.601   5.932   4.188
   47SBC   H00532867   2.621   6.027   4.141
   47SBC   C03732868   2.589   5.920   4.324
   47SBC   H00632869   2.595   6.000   4.396
   47SBC   C00D32870   2.559   5.790   4.379
   47SBC   C00C32871   2.533   5.775   4.515
   47SBC   C00B32872   2.507   5.892   4.608
   47SBC   C00A32873   2.491   6.044   4.622
   47SBC   C00932874   2.516   6.072   4.760
   47SBC   C00832875   2.495   6.190   4.835
   47SBC   C00732876   2.450   6.303   4.772
   47SBC   C00632877   2.432   6.421   4.847
   47SBC   C00532878   2.372   6.533   4.783
   47SBC   C00432879   2.326   6.514   4.654
   47SBC   C00332880   2.344   6.394   4.582
   47SBC   C00232881   2.300   6.387   4.451
   47SBC   C01C32882   2.248   6.501   4.390
   47SBC   C01B32883   2.234   6.505   4.249
   47SBC   H00032884   2.274   6.433   4.179
   47SBC   C00132885   2.292   6.265   4.384
   47SBC   C00032886   2.346   6.152   4.448
   47SBC   C01U32887   2.320   6.042   4.359
   47SBC   H00232888   2.337   5.936   4.361
   47SBC   C01T32889   2.275   6.111   4.233
   47SBC   O00232890   2.249   6.051   4.127
   47SBC   O00132891   2.246   6.232   4.261
   47SBC   C01S32892   2.408   6.285   4.641
   47SBC   C00N32893   2.512   6.172   4.973
   47SBC   C00M32894   2.552   6.050   5.034
   47SBC   C00J32895   2.560   5.946   4.962
   47SBC   C00I32896   2.574   5.816   5.010
   47SBC   C00H32897   2.577   5.700   4.930
   47SBC   C00G32898   2.557   5.718   4.793
   47SBC   C00F32899   2.570   5.619   4.706
   47SBC   C01X32900   2.593   5.581   4.991
   47SBC   C01W32901   2.610   5.567   5.125
   47SBC   C01V32902   2.596   5.680   5.205
   47SBC   C02032903   2.593   5.665   5.343
   47SBC   C01Z32904   2.624   5.438   5.177
   47SBC   C02Y32905   2.634   5.437   5.313
   47SBC   C03932906   2.659   5.314   5.375
   47SBC   C02W32907   2.624   5.320   5.101
   47SBC   C01Y32908   2.596   5.470   4.905
   47SBC   C00U32909   2.570   5.805   5.149
   47SBC   C00S32910   2.551   5.913   5.228
   47SBC   C00T32911   2.534   5.896   5.362
   47SBC   C00R32912   2.550   6.036   5.170
   47SBC   C00Q32913   2.527   6.143   5.247
   47SBC   C00V32914   2.508   6.131   5.388
   47SBC   C02432915   2.478   6.242   5.465
   47SBC   C00X32916   2.468   6.362   5.408
   47SBC   C00P32917   2.512   6.264   5.187
   47SBC   C00O32918   2.498   6.286   5.050
   47SBC   C00K32919   2.553   5.958   4.824
   47SBC   N00032920   2.418   6.157   4.568
   47SBC   C00L32921   2.535   5.847   4.741
   47SBC   H00432922   2.598   5.828   3.997
   47SBC   C02Q32923   2.564   5.677   4.304
   47SBC   C00E32924   2.555   5.642   4.571
   47SBC   C03032925   2.582   5.281   4.466
   47SBC   O00332926   2.618   5.162   4.519
   47SBC   C02S32927   2.591   5.491   4.766
   47SBC   C03832928   2.613   5.136   4.657
   47SBC   C03L32929   2.636   5.013   4.715
   47SBC   H00832930   2.666   4.930   4.653
   47SBC   C02V32931   2.604   5.342   4.964
   47SBC   C03K32932   2.640   4.988   4.858
   47SBC   C0BK32933   2.658   4.862   4.920
   47SBC   H00T32934   2.669   4.775   4.857
   47SBC   C03H32935   2.624   5.193   5.165
   47SBC   C0BL32936   2.648   4.823   5.053
   47SBC   C0GU32937   2.651   4.687   5.095
   47SBC   H01O32938   2.660   4.601   5.030
   47SBC   C0GT32939   2.624   4.652   5.225
   47SBC   H01P32940   2.621   4.548   5.251
   47SBC   C0GS32941   2.605   4.763   5.315
   47SBC   C0GV32942   2.582   4.746   5.454
   47SBC   C0GW32943   2.569   4.629   5.532
   47SBC   H01Q32944   2.565   4.530   5.489
   47SBC   C0GX32945   2.551   4.650   5.665
   47SBC   H01R32946   2.533   4.564   5.728
   47SBC   O00L32947   2.541   4.772   5.727
   47SBC   C0GQ32948   2.583   4.874   5.515
   47SBC   C03A32949   2.632   5.194   5.307
   47SBC   C05L32950   2.558   4.891   5.656
   47SBC   C04W32951   2.438   5.186   6.172
   47SBC   C05I32952   2.392   5.177   6.306
   47SBC   C05O32953   2.372   5.054   6.364
   47SBC   C05232954   2.389   5.287   6.393
   47SBC   C04V32955   2.451   5.317   6.120
   47SBC   C04U32956   2.436   5.432   6.200
   47SBC   N00932957   2.398   4.939   6.290
   47SBC   C0GP32958   2.330   5.045   6.495
   47SBC   C05W32959   2.316   5.157   6.577
   47SBC   C07D32960   2.266   5.221   6.931
   47SBC   C06J32961   2.296   5.487   6.823
   47SBC   C05P32962   2.349   5.278   6.526
   47SBC   C05R32963   2.360   5.626   6.641
   47SBC   C04Z32964   2.414   5.415   6.340
   47SBC   C04C32965   2.415   5.769   6.455
   47SBC   C04G32966   2.425   5.910   6.260
   47SBC   C04J32967   2.458   5.947   5.989
   47SBC   C04T32968   2.460   5.561   6.150
   47SBC   N00332969   2.493   5.338   5.986
   47SBC   C04P32970   2.563   5.252   5.770
   47SBC   C03D32971   2.629   5.302   5.510
   47SBC   C02132972   2.618   5.545   5.396
   47SBC   C03F32973   2.547   5.617   5.747
   47SBC   C02232974   2.561   5.778   5.422
   47SBC   C02A32975   2.513   5.856   5.779
   47SBC   C02332976   2.511   6.006   5.443
   47SBC   C02532977   2.464   6.228   5.600
   47SBC   C02D32978   2.436   6.337   5.677
   47SBC   C02E32979   2.419   6.464   5.616
   47SBC   C02N32980   2.360   6.573   5.684
   47SBC   C04N32981   2.482   5.967   5.855
   47SBC   C02P32982   2.415   6.323   5.815
   47SBC   C04I32983   2.421   6.055   6.068
   47SBC   C04432984   2.353   6.273   6.223
   47SBC   C04332985   2.368   6.433   5.888
   47SBC   C05N32986   2.340   6.554   5.819
   47SBC   C09U32987   2.148   6.856   6.048
   47SBC   C09V32988   2.059   6.938   6.123
   47SBC   C09X32989   2.003   7.051   6.067
   47SBC   C09Y32990   1.904   7.134   6.121
   47SBC   C0A132991   1.848   7.093   6.238
   47SBC   C0A232992   1.903   6.976   6.304
   47SBC   C0A432993   1.852   6.940   6.428
   47SBC   C07132994   1.903   6.820   6.491
   47SBC   C0A532995   1.849   6.779   6.611
   47SBC   C0A932996   1.743   6.851   6.662
   47SBC   C0A832997   1.689   6.964   6.598
   47SBC   C0AP32998   1.581   7.030   6.656
   47SBC   C0BY32999   1.531   7.134   6.579
   47SBC   C0BX33000   1.580   7.185   6.461
   47SBC   C0C233001   1.515   7.289   6.391
   47SBC   C0C333002   1.562   7.328   6.264
   47SBC   C0CT33003   1.677   7.266   6.216
   47SBC   C0C133004   1.400   7.347   6.448
   47SBC   C0C033005   1.365   7.317   6.584
   47SBC   C0A733006   1.690   7.119   6.416
   47SBC   C0BZ33007   1.436   7.208   6.642
   47SBC   C0BO33008   1.388   7.181   6.769
   47SBC   C0BN33009   1.428   7.063   6.830
   47SBC   C0BM33010   1.354   7.019   6.935
   47SBC   C0B933011   1.403   6.905   7.003
   47SBC   C0B833012   1.513   6.840   6.953
   47SBC   C0AD33013   1.575   6.876   6.837
   47SBC   C0AF33014   1.555   6.722   7.012
   47SBC   C0AG33015   1.488   6.663   7.123
   47SBC   C0B733016   1.373   6.735   7.170
   47SBC   C0AE33017   1.665   6.661   6.958
   47SBC   C0AB33018   1.735   6.703   6.847
   47SBC   C0AA33019   1.850   6.647   6.807
   47SBC   C0AJ33020   1.705   6.546   7.022
   47SBC   C0AK33021   1.822   6.491   6.981
   47SBC   C06W33022   1.844   6.394   7.069
   47SBC   C0AI33023   1.653   6.491   7.137
   47SBC   C0BP33024   1.276   7.251   6.797
   47SBC   C0BQ33025   1.200   7.213   6.916
   47SBC   C0BW33026   1.528   6.990   6.777
   47SBC   C0AC33027   1.685   6.813   6.780
   47SBC   C0A633028   1.745   7.011   6.482
   47SBC   C0A333029   1.738   7.160   6.291
   47SBC   C09Z33030   1.850   7.243   6.057
   47SBC   C09W33031   2.008   6.899   6.243
   47SBC   C07233032   2.057   6.788   6.308
   47SBC   C09H33033   2.066   7.097   5.953
   47SBC   C09G33034   2.028   7.214   5.904
   47SBC   C09P33035   2.087   7.218   5.780
   47SBC   C02O33036   2.265   6.924   5.605
   47SBC   C02M33037   2.326   6.695   5.618
   47SBC   C02F33038   2.436   6.471   5.481
   47SBC   C00W33039   2.495   6.367   5.272
   47SBC   C01R33040   2.462   6.407   4.987
   47SBC   C01N33041   2.393   6.687   5.204
   47SBC   C01L33042   2.256   6.877   5.138
   47SBC   C01H33043   2.138   6.976   4.823
   47SBC   C01K33044   2.337   6.657   4.847
   47SBC   C01E33045   2.255   6.622   4.596
   47SBC   C01G33046   2.098   6.962   4.681
   47SBC   C01D33047   2.218   6.610   4.465
   47SBC   C01A33048   2.161   6.600   4.184
   47SBC   H00133049   2.149   6.594   4.077
   47SBC   C01F33050   2.025   6.917   4.407
   47SBC   C03P33051   1.863   7.097   4.261
   47SBC   C03T33052   1.838   7.225   4.454
   47SBC   C08I33053   1.730   7.435   4.607
   47SBC   C08J33054   1.669   7.517   4.693
   47SBC   C08L33055   1.632   7.606   4.917
   47SBC   C09333056   1.595   7.691   5.152
   47SBC   C08Z33057   1.812   7.515   5.230
   47SBC   C09T33058   1.615   7.698   5.626
   47SBC   C09S33059   1.904   7.510   5.522
   47SBC   C09Q33060   2.035   7.314   5.689
   47SBC   C09F33061   1.917   7.289   5.948
   47SBC   C09E33062   1.716   7.559   5.806
   47SBC   C0A033063   1.733   7.305   6.096
   47SBC   C0CU33064   1.498   7.429   6.191
   47SBC   C0CR33065   1.382   7.492   6.251
   47SBC   C0CZ33066   1.317   7.591   6.177
   47SBC   C0DA33067   1.603   7.645   5.775
   47SBC   C0D933068   1.438   7.931   5.901
   47SBC   H00V33069   1.532   7.984   5.896
   47SBC   C0CY33070   1.375   7.638   6.056
   47SBC   C0DF33071   1.328   7.979   5.983
   47SBC   C0DE33072   1.290   8.081   6.081
   47SBC   C0GI33073   1.329   8.219   6.097
   47SBC   H01K33074   1.392   8.268   6.024
   47SBC   C0GJ33075   1.273   8.289   6.196
   47SBC   H01J33076   1.299   8.394   6.204
   47SBC   O00I33077   1.190   8.232   6.294
   47SBC   C0GH33078   1.156   8.101   6.293
   47SBC   C0GG33079   1.078   8.052   6.402
   47SBC   O00G33080   1.038   8.149   6.488
   47SBC   C0G833081   0.972   8.120   6.606
   47SBC   C0G933082   0.927   8.236   6.674
   47SBC   H01G33083   0.955   8.337   6.647
   47SBC   C0GA33084   0.846   8.221   6.788
   47SBC   H01H33085   0.810   8.310   6.836
   47SBC   C0GB33086   0.824   8.095   6.844
   47SBC   C0EP33087   0.883   7.980   6.780
   47SBC   C0E833088   0.893   7.857   6.864
   47SBC   C0CK33089   0.951   7.727   6.853
   47SBC   C0CL33090   0.959   7.671   6.727
   47SBC   C0E933091   0.970   7.750   6.602
   47SBC   C0GE33092   0.986   7.891   6.564
   47SBC   C0E733093   0.808   7.842   6.969
   47SBC   C0CJ33094   0.800   7.713   7.020
   47SBC   C0E633095   0.688   7.694   7.108
   47SBC   H00Y33096   0.664   7.591   7.129
   47SBC   C0EO33097   0.634   7.805   7.169
   47SBC   H01133098   0.561   7.783   7.246
   47SBC   C0G633099   0.657   7.933   7.131
   47SBC   C0G533100   0.598   8.048   7.192
   47SBC   H01F33101   0.538   8.034   7.281
   47SBC   C0GD33102   0.612   8.167   7.139
   47SBC   H01I33103   0.572   8.249   7.196
   47SBC   O00H33104   0.676   8.187   7.018
   47SBC   C0EQ33105   0.740   7.951   7.023
   47SBC   C0GC33106   0.749   8.082   6.965
   47SBC   C0G733107   0.952   7.992   6.659
   47SBC   C0DD33108   1.208   8.025   6.182
   47SBC   C0GF33109   1.044   7.919   6.436
   47SBC   C0CO33110   0.992   7.649   6.515
   47SBC   C0D033111   1.206   7.652   6.239
   47SBC   C0C433112   1.326   7.442   6.377
   47SBC   C0CN33113   0.993   7.518   6.565
   47SBC   C0CP33114   1.270   7.346   6.692
   47SBC   C0CM33115   0.961   7.525   6.700
   47SBC   C0CI33116   0.904   7.635   6.959
   47SBC   C0CD33117   0.861   7.252   7.245
   47SBC   C0BR33118   1.091   7.286   6.967
   47SBC   C0CS33119   1.242   7.090   6.977
   47SBC   C0B633120   1.332   6.855   7.107
   47SBC   C0CG33121   0.986   7.058   7.226
   47SBC   C0CF33122   0.874   7.120   7.272
   47SBC   C0E533123   0.661   7.248   7.375
   47SBC   C0DT33124   0.448   7.108   7.473
   47SBC   C0DL33125   0.704   6.841   7.437
   47SBC   C0DM33126   0.728   6.715   7.486
   47SBC   C0DY33127   0.500   6.695   7.554
   47SBC   C0DU33128   0.346   7.025   7.511
   47SBC   C0F033129   0.145   7.023   7.645
   47SBC   C0F433130  -0.009   6.912   7.841
   47SBC   C0FG33131   0.179   6.624   7.706
   47SBC   O00B33132  -0.029   6.715   7.983
   47SBC   C0FN33133   0.194   6.507   7.769
   47SBC   C0DZ33134   0.399   6.627   7.621
   47SBC   O00C33135   0.600   6.344   7.752
   47SBC   C0FR33136   0.719   6.285   7.737
   47SBC   O00D33137   0.727   6.177   7.794
   47SBC   C0E033138   0.630   6.641   7.552
   47SBC   C0E333139   0.828   6.357   7.673
   47SBC   C0AW33140   0.957   6.314   7.664
   47SBC   C0AV33141   1.003   6.189   7.716
   47SBC   H00Q33142   0.942   6.127   7.779
   47SBC   C0AU33143   1.128   6.131   7.676
   47SBC   H00R33144   1.162   6.036   7.714
   47SBC   C0AT33145   1.219   6.209   7.605
   47SBC   C0AS33146   1.356   6.205   7.554
   47SBC   C0AR33147   1.441   6.096   7.588
   47SBC   C0BE33148   1.174   6.334   7.566
   47SBC   C0DN33149   0.856   6.671   7.477
   47SBC   C0AX33150   1.041   6.383   7.583
   47SBC   C0BB33151   1.080   6.681   7.383
   47SBC   C0BD33152   1.270   6.396   7.486
   47SBC   C0B233153   1.291   6.675   7.262
   47SBC   C0AH33154   1.529   6.546   7.187
   47SBC   C0BF33155   1.384   6.319   7.463
   47SBC   C0AL33156   1.744   6.385   7.168
   47SBC   C07U33157   1.633   6.141   7.416
   47SBC   C0AQ33158   1.567   6.071   7.520
   47SBC   C0BG33159   1.427   5.998   7.695
   47SBC   C0FY33160   1.715   5.855   7.850
   47SBC   C0BJ33161   1.420   6.032   7.840
   47SBC   H00S33162   1.393   6.128   7.882
   47SBC   C0FZ33163   1.719   5.899   7.982
   47SBC   C07S33164   1.831   5.856   7.773
   47SBC   C0G133165   2.071   5.883   8.065
   47SBC   C07K33166   2.315   5.802   7.806
   47SBC   C07H33167   2.079   5.829   7.644
   47SBC   C06B33168   2.237   5.626   7.402
   47SBC   C06N33169   2.208   5.770   7.219
   47SBC   C06633170   1.957   5.933   7.442
   47SBC   C06233171   1.958   6.148   7.223
   47SBC   C05Y33172   2.207   5.939   7.024
   47SBC   C06133173   2.027   6.242   7.143
   47SBC   C05H33174   2.224   6.226   6.832
   47SBC   C06V33175   1.968   6.332   7.051
   47SBC   C06Y33176   1.900   6.543   6.877
   47SBC   C05C33177   2.170   6.423   6.640
   47SBC   C06Z33178   1.905   6.678   6.682
   47SBC   C07033179   2.009   6.750   6.434
   47SBC   C05B33180   2.205   6.448   6.506
   47SBC   C05733181   2.271   6.497   6.234
   47SBC   C05933182   2.152   6.708   6.241
   48SBC   C05833183   7.183  10.197  13.961
   48SBC   C05A33184   7.103  10.228  14.074
   48SBC   C06Q33185   6.967  10.242  14.059
   48SBC   C06R33186   6.886  10.263  14.170
   48SBC   C06S33187   6.936  10.281  14.301
   48SBC   C06T33188   6.845  10.290  14.406
   48SBC   C06U33189   6.872  10.283  14.553
   48SBC   C06X33190   6.984  10.274  14.632
   48SBC   C06033191   6.951  10.252  14.767
   48SBC   C05Z33192   7.014  10.300  14.890
   48SBC   C06833193   6.910  10.360  14.969
   48SBC   C06733194   6.920  10.418  15.102
   48SBC   C06933195   7.043  10.391  15.185
   48SBC   C06A33196   7.051  10.418  15.331
   48SBC   C07333197   7.034  10.538  15.399
   48SBC   C07P33198   7.131  10.594  15.480
   48SBC   C07O33199   7.271  10.563  15.463
   48SBC   H00D33200   7.295  10.497  15.382
   48SBC   C07N33201   7.370  10.616  15.547
   48SBC   H00E33202   7.474  10.594  15.527
   48SBC   C07M33203   7.319  10.711  15.637
   48SBC   H00F33204   7.398  10.756  15.697
   48SBC   C07L33205   7.186  10.752  15.656
   48SBC   C07Q33206   7.138  10.847  15.751
   48SBC   H00G33207   7.214  10.893  15.812
   48SBC   O00F33208   7.004  10.869  15.777
   48SBC   C07J33209   6.915  10.803  15.695
   48SBC   C07I33210   6.956  10.712  15.592
   48SBC   N00433211   6.860  10.661  15.503
   48SBC   C07R33212   6.724  10.685  15.537
   48SBC   C07T33213   6.690  10.778  15.636
   48SBC   C0FX33214   6.562  10.815  15.664
   48SBC   C0FW33215   6.514  10.909  15.755
   48SBC   C0G033216   6.617  10.968  15.831
   48SBC   C0G233217   6.583  11.076  15.908
   48SBC   H01E33218   6.666  11.124  15.960
   48SBC   C0G333219   6.450  11.123  15.916
   48SBC   H01C33220   6.432  11.209  15.979
   48SBC   C0G433221   6.351  11.055  15.841
   48SBC   H01D33222   6.249  11.091  15.846
   48SBC   O00E33223   6.746  10.922  15.821
   48SBC   C0FV33224   6.380  10.946  15.758
   48SBC   C0FU33225   6.290  10.882  15.665
   48SBC   H01B33226   6.189  10.918  15.651
   48SBC   C0FT33227   6.331  10.772  15.593
   48SBC   C0FS33228   6.276  10.684  15.488
   48SBC   C0BI33229   6.369  10.568  15.480
   48SBC   C0BH33230   6.348  10.500  15.354
   48SBC   C07F33231   6.439  10.487  15.252
   48SBC   C07E33232   6.583  10.486  15.254
   48SBC   C07G33233   6.656  10.548  15.350
   48SBC   C07433234   6.792  10.533  15.311
   48SBC   C06533235   6.661  10.458  15.142
   48SBC   C06433236   6.587  10.443  15.023
   48SBC   C06333237   6.641  10.411  14.899
   48SBC   C07533238   6.518  10.405  14.813
   48SBC   C0AM33239   6.391  10.432  14.876
   48SBC   C0AN33240   6.247  10.440  14.826
   48SBC   C0AO33241   6.199  10.421  14.685
   48SBC   C0B133242   6.058  10.437  14.650
   48SBC   C0B033243   5.967  10.473  14.747
   48SBC   C0AZ33244   5.833  10.501  14.724
   48SBC   C0AY33245   5.750  10.548  14.829
   48SBC   N00733246   5.617  10.572  14.805
   48SBC   C0E233247   5.538  10.629  14.910
   48SBC   C0E133248   5.403  10.659  14.884
   48SBC   C0E433249   5.331  10.724  14.984
   48SBC   C0FF33250   5.192  10.743  14.970
   48SBC   C0FJ33251   5.094  10.812  15.060
   48SBC   C0FK33252   5.135  10.934  15.114
   48SBC   H01633253   5.235  10.973  15.128
   48SBC   C0FL33254   5.013  11.013  15.125
   48SBC   H01733255   5.004  11.120  15.136
   48SBC   C0FM33256   4.899  10.935  15.073
   48SBC   C0FH33257   4.787  10.955  14.975
   48SBC   C0FI33258   4.811  10.845  14.887
   48SBC   C0F333259   4.764  10.858  14.756
   48SBC   C0F233260   4.830  10.780  14.673
   48SBC   C0DW33261   4.949  10.708  14.692
   48SBC   C0FE33262   5.005  10.715  14.815
   48SBC   C0DV33263   5.030  10.666  14.595
   48SBC   C0DX33264   5.166  10.641  14.618
   48SBC   C0DK33265   5.244  10.600  14.509
   48SBC   C0DJ33266   5.199  10.611  14.378
   48SBC   C0DI33267   5.279  10.572  14.272
   48SBC   C0DH33268   5.406  10.520  14.297
   48SBC   C0DG33269   5.454  10.525  14.430
   48SBC   C0BV33270   5.588  10.483  14.453
   48SBC   C0BC33271   5.642  10.493  14.583
   48SBC   C0BA33272   5.674  10.447  14.346
   48SBC   C0B433273   5.806  10.422  14.370
   48SBC   C0B333274   5.863  10.433  14.499
   48SBC   C0B533275   5.888  10.383  14.263
   48SBC   C0BU33276   5.831  10.377  14.132
   48SBC   C0BT33277   5.701  10.402  14.108
   48SBC   C0BS33278   5.655  10.402  13.974
   48SBC   C0CC33279   5.525  10.448  13.955
   48SBC   C0CB33280   5.473  10.455  13.829
   48SBC   C0CH33281   5.373  10.554  13.810
   48SBC   C0DO33282   5.283  10.587  13.912
   48SBC   C0DP33283   5.163  10.663  13.886
   48SBC   C0EA33284   5.132  10.721  13.755
   48SBC   H01233285   5.197  10.692  13.673
   48SBC   O00933286   5.024  10.804  13.731
   48SBC   C0EH33287   4.944  10.828  13.834
   48SBC   C0EG33288   4.841  10.909  13.801
   48SBC   C0EJ33289   4.777  10.959  13.679
   48SBC   H01033290   4.799  10.944  13.574
   48SBC   C0EK33291   4.676  11.056  13.713
   48SBC   H00Z33292   4.623  11.119  13.644
   48SBC   C0EL33293   4.681  11.054  13.855
   48SBC   C0EM33294   4.598  11.123  13.945
   48SBC   C0EW33295   4.496  11.215  13.915
   48SBC   H01333296   4.479  11.245  13.812
   48SBC   C0EX33297   4.406  11.263  14.017
   48SBC   H01433298   4.320  11.325  13.999
   48SBC   C0F133299   4.427  11.215  14.149
   48SBC   C0EU33300   4.545  11.144  14.179
   48SBC   C0ET33301   4.581  11.090  14.307
   48SBC   C0ES33302   4.698  11.012  14.284
   48SBC   C0EE33303   4.724  11.020  14.142
   48SBC   C0ED33304   4.792  10.939  14.048
   48SBC   C0EC33305   4.893  10.841  14.071
   48SBC   C0EB33306   4.917  10.784  14.200
   48SBC   C0EN33307   4.832  10.806  14.315
   48SBC   C0ER33308   4.862  10.742  14.431
   48SBC   C0DS33309   5.030  10.698  14.223
   48SBC   C0DR33310   5.119  10.666  14.121
   48SBC   C0EY33311   4.724  10.899  14.353
   48SBC   C0EZ33312   4.708  10.897  14.497
   48SBC   C0F533313   4.637  10.981  14.592
   48SBC   C0F633314   4.541  11.077  14.549
   48SBC   N00833315   4.477  11.138  14.654
   48SBC   C0F733316   4.528  11.134  14.794
   48SBC   C0FQ33317   4.463  11.216  14.892
   48SBC   H01833318   4.501  11.205  14.993
   48SBC   C0FP33319   4.349  11.290  14.862
   48SBC   H01933320   4.305  11.345  14.943
   48SBC   C0FO33321   4.300  11.291  14.738
   48SBC   H01A33322   4.220  11.363  14.722
   48SBC   C0F833323   4.638  11.052  14.822
   48SBC   C0F933324   4.357  11.217  14.631
   48SBC   C0FA33325   4.302  11.231  14.501
   48SBC   H01533326   4.209  11.285  14.492
   48SBC   C0FB33327   4.382  11.189  14.390
   48SBC   C0FD33328   4.491  11.107  14.422
   48SBC   C0FC33329   4.341  11.243  14.258
   48SBC   O00A33330   4.246  11.320  14.247
   48SBC   C0EV33331   4.629  11.098  14.081
   48SBC   C0EF33332   4.777  10.967  13.908
   48SBC   C0EI33333   4.975  10.789  13.970
   48SBC   C0DQ33334   5.088  10.704  13.995
   48SBC   C0CE33335   5.319  10.556  14.039
   48SBC   H00U33336   5.348  10.587  13.710
   48SBC   C0CA33337   5.531  10.380  13.723
   48SBC   C0C933338   5.667  10.338  13.731
   48SBC   C0C833339   5.726  10.270  13.621
   48SBC   C0C733340   5.863  10.235  13.584
   48SBC   C0C633341   5.876  10.174  13.454
   48SBC   C0C533342   5.981  10.164  13.348
   48SBC   C0CQ33343   5.941  10.151  13.217
   48SBC   C0D133344   5.810  10.179  13.189
   48SBC   C0D833345   5.794  10.255  13.078
   48SBC   C0D733346   5.918  10.225  13.012
   48SBC   C0D633347   5.951  10.277  12.889
   48SBC   C0D533348   6.070  10.241  12.818
   48SBC   C0D433349   6.192  10.188  12.863
   48SBC   C0D333350   6.298  10.242  12.783
   48SBC   C0CX33351   6.419  10.238  12.862
   48SBC   C0CW33352   6.376  10.225  13.004
   48SBC   C0CV33353   6.437  10.230  13.139
   48SBC   C0D233354   6.578  10.248  13.151
   48SBC   C09D33355   6.680  10.269  13.048
   48SBC   C09C33356   6.822  10.276  13.077
   48SBC   C09B33357   6.930  10.275  12.985
   48SBC   C09A33358   6.892  10.277  12.848
   48SBC   C09933359   6.764  10.289  12.814
   48SBC   C09833360   6.747  10.243  12.680
   48SBC   C08Y33361   6.878  10.192  12.636
   48SBC   C08X33362   6.914  10.097  12.529
   48SBC   C08W33363   6.807  10.031  12.451
   48SBC   C08U33364   6.662  10.050  12.466
   48SBC   C08V33365   6.573  10.115  12.570
   48SBC   C0DC33366   6.445  10.120  12.509
   48SBC   H00W33367   6.373  10.190  12.550
   48SBC   C0DB33368   6.437  10.034  12.399
   48SBC   H00X33369   6.351  10.009  12.339
   48SBC   C08T33370   6.572   9.990  12.376
   48SBC   C08S33371   6.604   9.903  12.275
   48SBC   H00N33372   6.529   9.869  12.205
   48SBC   C08R33373   6.741   9.855  12.277
   48SBC   C08Q33374   6.779   9.753  12.189
   48SBC   H00O33375   6.704   9.699  12.131
   48SBC   C08P33376   6.907   9.691  12.188
   48SBC   C08O33377   6.935   9.573  12.118
   48SBC   H00P33378   6.863   9.530  12.050
   48SBC   C08N33379   7.067   9.515  12.133
   48SBC   C08M33380   7.094   9.391  12.063
   48SBC   O00833381   7.009   9.331  11.997
   48SBC   O00733382   7.228   9.350  12.058
   48SBC   C08H33383   7.323   9.413  12.143
   48SBC   C08G33384   7.455   9.356  12.158
   48SBC   C03V33385   7.512   9.245  12.084
   48SBC   H00933386   7.454   9.199  12.005
   48SBC   C03U33387   7.640   9.207  12.098
   48SBC   C03W33388   7.708   9.106  12.027
   48SBC   H00A33389   7.651   9.056  11.950
   48SBC   C03X33390   7.836   9.086  12.040
   48SBC   H00B33391   7.886   9.026  11.965
   48SBC   O00533392   7.911   9.140  12.141
   48SBC   C03O33393   7.854   9.236  12.217
   48SBC   C03N33394   7.924   9.287  12.320
   48SBC   O00033395   8.047   9.236  12.351
   48SBC   C01933396   8.103   9.252  12.476
   48SBC   C01833397   8.057   9.358  12.553
   48SBC   C01733398   7.941   9.427  12.518
   48SBC   C01633399   7.899   9.541  12.591
   48SBC   C01533400   7.977   9.576  12.700
   48SBC   C01433401   7.933   9.677  12.783
   48SBC   C01333402   7.814   9.745  12.762
   48SBC   C01233403   7.806   9.837  12.874
   48SBC   C01133404   7.928   9.814  12.945
   48SBC   C01033405   7.969   9.888  13.047
   48SBC   C00Z33406   8.076   9.873  13.134
   48SBC   C00Y33407   8.033   9.943  13.245
   48SBC   C01O33408   7.911  10.001  13.228
   48SBC   C01P33409   7.826  10.025  13.336
   48SBC   C02L33410   7.695  10.051  13.299
   48SBC   C02K33411   7.665  10.044  13.161
   48SBC   C01M33412   7.744   9.985  13.061
   48SBC   C02J33413   7.536  10.091  13.131
   48SBC   C02I33414   7.477  10.112  13.004
   48SBC   C02H33415   7.516  10.071  12.877
   48SBC   C01Q33416   7.615   9.978  12.841
   48SBC   C02G33417   7.602   9.941  12.701
   48SBC   C08933418   7.492  10.018  12.651
   48SBC   C08833419   7.418   9.935  12.561
   48SBC   C08733420   7.505   9.815  12.541
   48SBC   C08633421   7.484   9.713  12.440
   48SBC   C03S33422   7.569   9.602  12.405
   48SBC   N00633423   7.501   9.530  12.313
   48SBC   C08F33424   7.379   9.583  12.300
   48SBC   C01J33425   7.698   9.553  12.451
   48SBC   C03R33426   7.743   9.441  12.378
   48SBC   C03Q33427   7.670   9.382  12.275
   48SBC   C08E33428   7.361   9.695  12.371
   48SBC   C08D33429   7.236   9.758  12.369
   48SBC   C08K33430   7.130   9.698  12.293
   48SBC   C08C33431   7.201   9.881  12.440
   48SBC   C09133432   7.065   9.929  12.424
   48SBC   C09233433   6.963   9.860  12.357
   48SBC   C08B33434   7.278   9.963  12.527
   48SBC   C09033435   7.181  10.069  12.569
   48SBC   C09433436   7.198  10.158  12.684
   48SBC   C09533437   7.098  10.211  12.769
   48SBC   C09R33438   7.149  10.240  12.896
   48SBC   C09733439   7.280  10.201  12.907
   48SBC   C09633440   7.315  10.148  12.778
   48SBC   C01I33441   7.620   9.812  12.627
   48SBC   C08A33442   7.440  10.091  12.762
   48SBC   C09L33443   7.359  10.186  13.024
   48SBC   C09K33444   7.344  10.207  13.163
   48SBC   C09J33445   7.223  10.239  13.219
   48SBC   C09I33446   7.189  10.226  13.356
   48SBC   C09O33447   7.248  10.189  13.479
   48SBC   C09N33448   7.383  10.154  13.488
   48SBC   C09M33449   7.472  10.125  13.376
   48SBC   C06O33450   7.432  10.141  13.622
   48SBC   C05M33451   7.351  10.157  13.735
   48SBC   C06P33452   7.214  10.170  13.723
   48SBC   C04233453   7.404  10.156  13.862
   48SBC   C04133454   7.540  10.127  13.884
   48SBC   C04033455   7.590  10.119  14.013
   48SBC   C03Z33456   7.722  10.082  14.033
   48SBC   C03Y33457   7.799  10.042  13.927
   48SBC   C02733458   7.928  10.001  13.952
   48SBC   C02633459   8.008   9.965  13.847
   48SBC   C02833460   8.133   9.911  13.864
   48SBC   C02933461   8.174   9.879  13.992
   48SBC   C02B33462   8.290   9.801  14.011
   48SBC   C02C33463   8.326   9.765  14.139
   48SBC   C02X33464   8.437   9.684  14.157
   48SBC   C03E33465   8.464   9.641  14.283
   48SBC   C03G33466   8.383   9.657  14.390
   48SBC   C04Q33467   8.276   9.741  14.380
   48SBC   C04R33468   8.196   9.774  14.489
   48SBC   C04S33469   8.083   9.856  14.473
   48SBC   C04L33470   8.047   9.896  14.341
   48SBC   C04M33471   8.129   9.870  14.230
   48SBC   C04K33472   7.930   9.967  14.317
   48SBC   C04F33473   7.851   9.996  14.424
   48SBC   C04E33474   7.889   9.958  14.557
   48SBC   C04D33475   7.805   9.993  14.662
   48SBC   C05033476   7.829   9.939  14.785
   48SBC   C05133477   7.745   9.969  14.895
   48SBC   C05Q33478   7.764   9.903  15.016
   48SBC   C05V33479   7.677   9.935  15.124
   48SBC   N00533480   7.703   9.883  15.250
   48SBC   C07V33481   7.807   9.789  15.264
   48SBC   C08233482   7.833   9.744  15.395
   48SBC   C08133483   7.754   9.770  15.507
   48SBC   C07C33484   7.647   9.857  15.485
   48SBC   C07B33485   7.574   9.903  15.593
   48SBC   C08033486   7.593   9.841  15.719
   48SBC   C07Z33487   7.505   9.882  15.821
   48SBC   H00L33488   7.523   9.840  15.919
   48SBC   C07933489   7.414   9.992  15.813
   48SBC   C07833490   7.403  10.053  15.686
   48SBC   C07733491   7.304  10.148  15.668
   48SBC   C07X33492   7.244  10.205  15.780
   48SBC   H00I33493   7.173  10.285  15.766
   48SBC   C07Y33494   7.267  10.164  15.910
   48SBC   H00H33495   7.227  10.208  16.000
   48SBC   C07633496   7.265  10.187  15.539
   48SBC   C06C33497   7.164  10.284  15.520
   48SBC   H00C33498   7.090  10.319  15.591
   48SBC   C06F33499   7.334  10.137  15.429
   48SBC   C06E33500   7.295  10.169  15.301
   48SBC   C06G33501   7.366  10.134  15.188
   48SBC   C06H33502   7.480  10.055  15.212
   48SBC   C06I33503   7.514  10.003  15.338
   48SBC   C06L33504   7.330  10.181  15.059
   48SBC   C06M33505   7.210  10.253  15.036
   48SBC   C06K33506   7.412  10.144  14.950
   48SBC   C05S33507   7.535  10.070  14.976
   48SBC   C05U33508   7.382  10.188  14.827
   48SBC   C05X33509   7.252  10.240  14.800
   48SBC   C05G33510   7.226  10.263  14.658
   48SBC   C05F33511   7.329  10.241  14.563
   48SBC   C05E33512   7.285  10.261  14.438
   48SBC   C04833513   7.362  10.225  14.329
   48SBC   C05633514   7.297  10.220  14.208
   48SBC   C04533515   7.376  10.184  14.101
   48SBC   C04733516   7.493  10.187  14.354
   48SBC   C04933517   7.537  10.164  14.481
   48SBC   C04B33518   7.652  10.100  14.506
   48SBC   C04633519   7.569  10.148  14.249
   48SBC   C04H33520   7.697  10.101  14.270
   48SBC   C05D33521   7.147  10.273  14.440
   48SBC   C04A33522   7.458  10.194  14.594
   48SBC   C05T33523   7.481  10.161  14.724
   48SBC   C05533524   7.603  10.098  14.747
   48SBC   C06D33525   7.194  10.262  15.283
   48SBC   C07W33526   7.437  10.044  15.447
   48SBC   C08533527   7.348  10.053  15.924
   48SBC   H00M33528   7.358  10.003  16.020
   48SBC   C08433529   7.694   9.743  15.731
   48SBC   H00J33530   7.706   9.703  15.831
   48SBC   C07A33531   7.472   9.998  15.576
   48SBC   C08333532   7.778   9.712  15.632
   48SBC   H00K33533   7.864   9.649  15.649
   48SBC   O00K33534   7.939   9.657  15.416
   48SBC   C0GO33535   8.019   9.622  15.308
   48SBC   C0GN33536   8.125   9.535  15.328
   48SBC   H01L33537   8.143   9.485  15.422
   48SBC   C0GM33538   8.207   9.495  15.219
   48SBC   C0GL33539   8.316   9.416  15.243
   48SBC   H01M33540   8.336   9.388  15.345
   48SBC   O00J33541   8.399   9.375  15.145
   48SBC   C0GK33542   8.389   9.439  15.022
   48SBC   H01N33543   8.475   9.422  14.959
   48SBC   C05K33544   8.279   9.515  14.993
   48SBC   C05J33545   8.274   9.585  14.862
   48SBC   C04Y33546   8.350   9.562  14.746
   48SBC   C04X33547   8.333   9.626  14.624
   48SBC   O00633548   8.434   9.457  14.746
   48SBC   C05333549   8.528   9.436  14.649
   48SBC   C04O33550   8.518   9.501  14.522
   48SBC   C03C33551   8.594   9.475  14.406
   48SBC   C03B33552   8.691   9.371  14.362
   48SBC   C05433553   8.711   9.255  14.433
   48SBC   C0GR33554   8.802   9.161  14.391
   48SBC   C03M33555   8.869   9.126  14.265
   48SBC   C03I33556   8.843   9.195  14.137
   48SBC   C03J33557   8.904   9.140  14.022
   48SBC   N00233558   8.873   9.183  13.886
   48SBC   C02U33559   8.916   9.118  13.768
   48SBC   C02T33560   8.884   9.159  13.641
   48SBC   C02Z33561   8.929   9.092  13.528
   48SBC   N00133562   8.871   9.126  13.398
   48SBC   C02R33563   8.915   9.049  13.285
   48SBC   C03233564   9.005   8.939  13.305
   48SBC   C03133565   9.051   8.909  13.432
   48SBC   H00733566   9.112   8.823  13.456
   48SBC   C03333567   9.042   8.866  13.187
   48SBC   H00333568   9.108   8.780  13.192
   48SBC   O00433569   9.002   8.893  13.059
   48SBC   C03433570   8.912   8.994  13.047
   48SBC   C03533571   8.864   9.023  12.919
   48SBC   C03633572   8.773   9.130  12.900
   48SBC   H00533573   8.731   9.132  12.801
   48SBC   C03733574   8.736   9.213  13.006
   48SBC   H00633575   8.677   9.302  12.988
   48SBC   C00D33576   8.779   9.187  13.134
   48SBC   C00C33577   8.736   9.259  13.246
   48SBC   C00B33578   8.648   9.373  13.242
   48SBC   C00A33579   8.557   9.438  13.147
   48SBC   C00933580   8.519   9.559  13.218
   48SBC   C00833581   8.401   9.638  13.199
   48SBC   C00733582   8.321   9.603  13.092
   48SBC   C00633583   8.209   9.680  13.054
   48SBC   C00533584   8.130   9.646  12.940
   48SBC   C00433585   8.160   9.530  12.865
   48SBC   C00333586   8.265   9.446  12.910
   48SBC   C00233587   8.288   9.327  12.841
   48SBC   C01C33588   8.228   9.304  12.721
   48SBC   C01B33589   8.281   9.204  12.632
   48SBC   H00033590   8.364   9.144  12.665
   48SBC   C00133591   8.355   9.228  12.911
   48SBC   C00033592   8.424   9.261  13.027
   48SBC   C01U33593   8.452   9.135  13.086
   48SBC   H00233594   8.505   9.114  13.178
   48SBC   C01T33595   8.405   9.025  12.993
   48SBC   O00233596   8.408   8.905  13.012
   48SBC   O00133597   8.353   9.094  12.885
   48SBC   C01S33598   8.343   9.485  13.022
   48SBC   C00N33599   8.364   9.727  13.301
   48SBC   C00M33600   8.425   9.728  13.427
   48SBC   C00J33601   8.533   9.651  13.450
   48SBC   C00I33602   8.564   9.603  13.576
   48SBC   C00H33603   8.653   9.494  13.594
   48SBC   C00G33604   8.693   9.419  13.488
   48SBC   C00F33605   8.770   9.311  13.492
   48SBC   C01X33606   8.688   9.451  13.722
   48SBC   C01W33607   8.632   9.517  13.828
   48SBC   C01V33608   8.541   9.621  13.810
   48SBC   C02033609   8.471   9.676  13.917
   48SBC   C01Z33610   8.661   9.475  13.955
   48SBC   C02Y33611   8.605   9.547  14.055
   48SBC   C03933612   8.627   9.494  14.183
   48SBC   C02W33613   8.737   9.360  13.979
   48SBC   C01Y33614   8.765   9.333  13.737
   48SBC   C00U33615   8.506   9.657  13.682
   48SBC   C00S33616   8.401   9.751  13.665
   48SBC   C00T33617   8.330   9.804  13.772
   48SBC   C00R33618   8.359   9.782  13.537
   48SBC   C00Q33619   8.244   9.852  13.518
   48SBC   C00V33620   8.167   9.895  13.628
   48SBC   C02433621   8.040   9.949  13.613
   48SBC   C00X33622   8.001   9.971  13.482
   48SBC   C00P33623   8.198   9.867  13.385
   48SBC   C00O33624   8.252   9.802  13.273
   48SBC   C00K33625   8.585   9.575  13.337
   48SBC   N00033626   8.448   9.398  13.063
   48SBC   C00L33627   8.652   9.459  13.359
   48SBC   H00433628   8.900   8.969  12.832
   48SBC   C02Q33629   8.868   9.077  13.156
   48SBC   C00E33630   8.788   9.235  13.375
   48SBC   C03033631   9.014   8.984  13.542
   48SBC   O00333632   9.046   8.941  13.669
   48SBC   C02S33633   8.807   9.269  13.619
   48SBC   C03833634   8.997   9.003  13.782
   48SBC   C03L33635   9.043   8.973  13.908
   48SBC   H00833636   9.119   8.897  13.922
   48SBC   C02V33637   8.790   9.295  13.870
   48SBC   C03K33638   8.992   9.032  14.023
   48SBC   C0BK33639   9.024   8.991  14.152
   48SBC   H00T33640   9.099   8.915  14.169
   48SBC   C03H33641   8.760   9.306  14.110
   48SBC   C0BL33642   8.972   9.032  14.271
   48SBC   C0GU33643   9.009   8.982  14.395
   48SBC   H01O33644   9.096   8.919  14.399
   48SBC   C0GT33645   8.944   9.002  14.517
   48SBC   H01P33646   8.980   8.950  14.605
   48SBC   C0GS33647   8.842   9.089  14.505
   48SBC   C0GV33648   8.770   9.138  14.622
   48SBC   C0GW33649   8.778   9.104  14.760
   48SBC   H01Q33650   8.836   9.026  14.808
   48SBC   C0GX33651   8.699   9.173  14.844
   48SBC   H01R33652   8.700   9.158  14.951
   48SBC   O00L33653   8.617   9.276  14.803
   48SBC   C0GQ33654   8.685   9.245  14.573
   48SBC   C03A33655   8.702   9.383  14.219
   48SBC   C05L33656   8.614   9.324  14.674
   48SBC   C04W33657   8.163   9.673  14.843
   48SBC   C05I33658   8.070   9.703  14.944
   48SBC   C05O33659   8.081   9.643  15.068
   48SBC   C05233660   7.957   9.790  14.928
   48SBC   C04V33661   8.134   9.737  14.720
   48SBC   C04U33662   8.027   9.825  14.702
   48SBC   N00933663   8.183   9.545  15.091
   48SBC   C0GP33664   7.999   9.677  15.180
   48SBC   C05W33665   7.892   9.768  15.159
   48SBC   C07D33666   7.618   9.912  15.361
   48SBC   C06J33667   7.563  10.024  15.105
   48SBC   C05P33668   7.877   9.825  15.034
   48SBC   C05R33669   7.629  10.049  14.876
   48SBC   C04Z33670   7.941   9.853  14.807
   48SBC   C04C33671   7.688  10.067  14.638
   48SBC   C04G33672   7.734  10.069  14.401
   48SBC   C04J33673   7.892  10.006  14.188
   48SBC   C04T33674   8.001   9.879  14.578
   48SBC   N00333675   8.220   9.711  14.614
   48SBC   C04P33676   8.415   9.600  14.514
   48SBC   C03D33677   8.555   9.542  14.293
   48SBC   C02133678   8.508   9.640  14.043
   48SBC   C03F33679   8.246   9.795  14.253
   48SBC   C02233680   8.366   9.762  13.898
   48SBC   C02A33681   8.096   9.915  14.101
   48SBC   C02333682   8.211   9.871  13.758
   48SBC   C02533683   7.959   9.972  13.719
   48SBC   C02D33684   7.833  10.028  13.694
   48SBC   C02E33685   7.783  10.032  13.562
   48SBC   C02N33686   7.650  10.072  13.537
   48SBC   C04N33687   7.974   9.980  14.080
   48SBC   C02P33688   7.748  10.054  13.795
   48SBC   C04I33689   7.771  10.067  14.165
   48SBC   C04433690   7.512  10.149  14.122
   48SBC   C04333691   7.617  10.086  13.776
   48SBC   C05N33692   7.563  10.101  13.646
   48SBC   C09U33693   7.159  10.193  13.595
   48SBC   C09V33694   7.021  10.215  13.581
   48SBC   C09X33695   6.961  10.236  13.460
   48SBC   C09Y33696   6.827  10.243  13.441
   48SBC   C0A133697   6.744  10.241  13.548
   48SBC   C0A233698   6.797  10.228  13.674
   48SBC   C0A433699   6.717  10.236  13.787
   48SBC   C07133700   6.774  10.243  13.916
   48SBC   C0A533701   6.690  10.257  14.024
   48SBC   C0A933702   6.551  10.276  14.004
   48SBC   C0A833703   6.498  10.274  13.874
   48SBC   C0AP33704   6.364  10.285  13.861
   48SBC   C0BY33705   6.315  10.274  13.730
   48SBC   C0BX33706   6.388  10.249  13.620
   48SBC   C0C233707   6.331  10.238  13.491
   48SBC   C0C333708   6.407  10.235  13.376
   48SBC   C0CT33709   6.545  10.246  13.394
   48SBC   C0C133710   6.189  10.222  13.486
   48SBC   C0C033711   6.110  10.262  13.603
   48SBC   C0A733712   6.527  10.247  13.638
   48SBC   C0BZ33713   6.179  10.271  13.718
   48SBC   C0BO33714   6.096  10.285  13.826
   48SBC   C0BN33715   6.144  10.306  13.957
   48SBC   C0BM33716   6.051  10.331  14.053
   48SBC   C0B933717   6.105  10.341  14.184
   48SBC   C0B833718   6.243  10.334  14.200
   48SBC   C0AD33719   6.331  10.312  14.094
   48SBC   C0AF33720   6.298  10.340  14.327
   48SBC   C0AG33721   6.214  10.365  14.441
   48SBC   C0B733722   6.077  10.371  14.415
   48SBC   C0AE33723   6.432  10.334  14.340
   48SBC   C0AB33724   6.520  10.313  14.237
   48SBC   C0AA33725   6.655  10.298  14.256
   48SBC   C0AJ33726   6.484  10.341  14.466
   48SBC   C0AK33727   6.617  10.331  14.480
   48SBC   C06W33728   6.642  10.325  14.614
   48SBC   C0AI33729   6.415  10.362  14.581
   48SBC   C0BP33730   5.966  10.317  13.790
   48SBC   C0BQ33731   5.866  10.336  13.892
   48SBC   C0BW33732   6.278  10.299  13.968
   48SBC   C0AC33733   6.468  10.298  14.109
   48SBC   C0A633734   6.583  10.253  13.764
   48SBC   C0A333735   6.606  10.247  13.524
   48SBC   C09Z33736   6.769  10.257  13.311
   48SBC   C09W33737   6.938  10.217  13.692
   48SBC   C07233738   6.990  10.210  13.819
   48SBC   C09H33739   7.047  10.243  13.354
   48SBC   C09G33740   6.996  10.270  13.233
   48SBC   C09P33741   7.100  10.268  13.145
   48SBC   C02O33742   7.446  10.146  13.234
   48SBC   C02M33743   7.607  10.086  13.403
   48SBC   C02F33744   7.873  10.008  13.461
   48SBC   C00W33745   8.077   9.930  13.377
   48SBC   C01R33746   8.183   9.784  13.152
   48SBC   C01N33747   7.870   9.967  13.104
   48SBC   C01L33748   7.716   9.934  12.927
   48SBC   C01H33749   7.733   9.717  12.646
   48SBC   C01K33750   8.006   9.710  12.897
   48SBC   C01E33751   8.090   9.506  12.744
   48SBC   C01G33752   7.777   9.606  12.557
   48SBC   C01D33753   8.129   9.392  12.668
   48SBC   C01A33754   8.222   9.182  12.509
   48SBC   H00133755   8.249   9.117  12.427
   48SBC   C01F33756   7.870   9.389  12.407
   48SBC   C03P33757   7.719   9.277  12.200
   48SBC   C03T33758   7.543   9.417  12.247
   48SBC   C08I33759   7.285   9.528  12.218
   48SBC   C08J33760   7.157   9.579  12.216
   48SBC   C08L33761   7.000   9.749  12.281
   48SBC   C09333762   6.833   9.922  12.363
   48SBC   C08Z33763   7.051  10.044  12.508
   48SBC   C09T33764   6.615  10.191  12.681
   48SBC   C09S33765   6.964  10.233  12.742
   48SBC   C09Q33766   7.068  10.268  13.009
   48SBC   C09F33767   6.858  10.271  13.206
   48SBC   C09E33768   6.661  10.267  12.904
   48SBC   C0A033769   6.632  10.253  13.285
   48SBC   C0CU33770   6.348  10.227  13.250
   48SBC   C0CR33771   6.206  10.200  13.249
   48SBC   C0CZ33772   6.151  10.194  13.119
   48SBC   C0DA33773   6.556  10.232  12.815
   48SBC   C0D933774   6.238  10.355  12.711
   48SBC   H00V33775   6.288  10.444  12.675
   48SBC   C0CY33776   6.237  10.198  12.999
   48SBC   C0DF33777   6.096  10.342  12.726
   48SBC   C0DE33778   5.977  10.425  12.712
   48SBC   C0GI33779   5.934  10.519  12.610
   48SBC   H01K33780   5.998  10.542  12.526
   48SBC   C0GJ33781   5.813  10.571  12.626
   48SBC   H01J33782   5.781  10.643  12.551
   48SBC   O00I33783   5.721  10.530  12.723
   48SBC   C0GH33784   5.758  10.447  12.830
   48SBC   C0GG33785   5.663  10.419  12.935
   48SBC   O00G33786   5.551  10.495  12.927
   48SBC   C0G833787   5.444  10.477  13.009
   48SBC   C0G933788   5.323  10.526  12.967
   48SBC   H01G33789   5.308  10.560  12.866
   48SBC   C0GA33790   5.224  10.529  13.063
   48SBC   H01H33791   5.127  10.561  13.028
   48SBC   C0GB33792   5.230  10.477  13.194
   48SBC   C0EP33793   5.359  10.437  13.231
   48SBC   C0E833794   5.380  10.419  13.377
   48SBC   C0CK33795   5.495  10.404  13.462
   48SBC   C0CL33796   5.585  10.307  13.420
   48SBC   C0E933797   5.618  10.289  13.283
   48SBC   C0GE33798   5.591  10.360  13.155
   48SBC   C0E733799   5.268  10.398  13.460
   48SBC   C0CJ33800   5.302  10.379  13.594
   48SBC   C0E633801   5.200  10.350  13.686
   48SBC   H00Y33802   5.210  10.335  13.792
   48SBC   C0EO33803   5.068  10.366  13.636
   48SBC   H01133804   4.990  10.363  13.711
   48SBC   C0G633805   5.034  10.401  13.506
   48SBC   C0G533806   4.903  10.424  13.448
   48SBC   H01F33807   4.810  10.405  13.499
   48SBC   C0GD33808   4.885  10.468  13.323
   48SBC   H01I33809   4.783  10.485  13.291
   48SBC   O00H33810   4.989  10.486  13.236
   48SBC   C0EQ33811   5.142  10.421  13.414
   48SBC   C0GC33812   5.117  10.464  13.281
   48SBC   C0G733813   5.467  10.426  13.138
   48SBC   C0DD33814   5.890  10.389  12.820
   48SBC   C0GF33815   5.679  10.335  13.044
   48SBC   C0CO33816   5.715  10.189  13.289
   48SBC   C0D033817   6.014  10.197  13.111
   48SBC   C0C433818   6.122  10.191  13.362
   48SBC   C0CN33819   5.741  10.148  13.422
   48SBC   C0CP33820   5.975  10.289  13.649
   48SBC   C0CM33821   5.660  10.220  13.506
   48SBC   C0CI33822   5.447  10.386  13.603
   48SBC   C0CD33823   5.444  10.490  14.063
   48SBC   C0BR33824   5.734  10.357  13.861
   48SBC   C0CS33825   5.916  10.352  14.023
   48SBC   C0B633826   6.021  10.361  14.287
   48SBC   C0CG33827   5.619  10.442  14.218
   48SBC   C0CF33828   5.488  10.475  14.194
   48SBC   C0E533829   5.239  10.593  14.144
   48SBC   C0DT33830   5.073  10.665  14.355
   48SBC   C0DL33831   5.374  10.559  14.534
   48SBC   C0DM33832   5.426  10.567  14.660
   48SBC   C0DY33833   5.218  10.650  14.744
   48SBC   C0DU33834   4.988  10.682  14.460
   48SBC   C0F033835   4.797  10.800  14.543
   48SBC   C0F433836   4.682  10.961  14.722
   48SBC   C0FG33837   4.922  10.769  14.919
   48SBC   O00B33838   4.698  11.057  14.947
   48SBC   C0FN33839   4.956  10.806  15.042
   48SBC   C0DZ33840   5.139  10.705  14.845
   48SBC   O00C33841   5.386  10.749  15.106
   48SBC   C0FR33842   5.519  10.744  15.131
   48SBC   O00D33843   5.559  10.805  15.228
   48SBC   C0E033844   5.349  10.614  14.762
   48SBC   C0E333845   5.593  10.664  15.039
   48SBC   C0AW33846   5.725  10.627  15.063
   48SBC   C0AV33847   5.787  10.633  15.190
   48SBC   H00Q33848   5.730  10.668  15.275
   48SBC   C0AU33849   5.926  10.587  15.209
   48SBC   H00R33850   5.961  10.605  15.310
   48SBC   C0AT33851   5.996  10.544  15.090
   48SBC   C0AS33852   6.131  10.506  15.064
   48SBC   C0AR33853   6.239  10.524  15.151
   48SBC   C0BE33854   5.929  10.536  14.974
   48SBC   C0DN33855   5.560  10.539  14.680
   48SBC   C0AX33856   5.793  10.565  14.957
   48SBC   C0BB33857   5.780  10.471  14.605
   48SBC   C0BD33858   6.016  10.499  14.871
   48SBC   C0B233859   6.001  10.411  14.522
   48SBC   C0AH33860   6.278  10.387  14.571
   48SBC   C0BF33861   6.148  10.486  14.919
   48SBC   C0AL33862   6.518  10.350  14.684
   48SBC   C07U33863   6.441  10.460  15.013
   48SBC   C0AQ33864   6.374  10.487  15.128
   48SBC   C0BG33865   6.224  10.553  15.298
   48SBC   C0FY33866   6.492  10.620  15.525
   48SBC   C0BJ33867   6.184  10.676  15.374
   48SBC   H00S33868   6.117  10.754  15.342
   48SBC   C0FZ33869   6.463  10.738  15.599
   48SBC   C07S33870   6.620  10.612  15.468
   48SBC   C0G133871   6.785  10.835  15.717
   48SBC   C07K33872   7.092  10.686  15.575
   48SBC   C07H33873   6.902  10.578  15.396
   48SBC   C06B33874   7.133  10.322  15.388
   48SBC   C06N33875   7.158  10.307  15.158
   48SBC   C06633876   6.799  10.463  15.180
   48SBC   C06233877   6.784  10.357  14.882
   48SBC   C05Y33878   7.155  10.269  14.905
   48SBC   C06133879   6.814  10.267  14.779
   48SBC   C05H33880   7.114  10.282  14.579
   48SBC   C06V33881   6.773  10.297  14.650
   48SBC   C06Y33882   6.712  10.311  14.378
   48SBC   C05C33883   7.077  10.269  14.312
   48SBC   C06Z33884   6.745  10.269  14.152
   48SBC   C07033885   6.910  10.230  13.929
   48SBC   C05B33886   7.160  10.241  14.202
   48SBC   C05733887   7.320  10.179  13.976
   48SBC   C05933888   7.128  10.190  13.833
   49SBC   C05833889   7.836  11.734   6.577
   49SBC   C05A33890   7.821  11.670   6.450
   49SBC   C06Q33891   7.915  11.575   6.406
   49SBC   C06R33892   7.904  11.524   6.275
   49SBC   C06S33893   7.800  11.564   6.187
   49SBC   C06T33894   7.795  11.502   6.060
   49SBC   C06U33895   7.699  11.516   5.949
   49SBC   C06X33896   7.586  11.596   5.928
   49SBC   C06033897   7.518  11.564   5.798
   49SBC   C05Z33898   7.439  11.635   5.709
   49SBC   C06833899   7.465  11.565   5.583
   49SBC   C06733900   7.380  11.566   5.450
   49SBC   C06933901   7.242  11.624   5.455
   49SBC   C06A33902   7.129  11.614   5.360
   49SBC   C07333903   7.119  11.592   5.221
   49SBC   C07P33904   7.014  11.660   5.153
   49SBC   C07O33905   6.951  11.786   5.185
   49SBC   H00D33906   6.975  11.850   5.268
   49SBC   C07N33907   6.841  11.839   5.116
   49SBC   H00E33908   6.808  11.936   5.151
   49SBC   C07M33909   6.789  11.761   5.020
   49SBC   H00F33910   6.703  11.801   4.969
   49SBC   C07L33911   6.846  11.636   4.978
   49SBC   C07Q33912   6.799  11.552   4.871
   49SBC   H00G33913   6.711  11.588   4.819
   49SBC   O00F33914   6.848  11.426   4.840
   49SBC   C07J33915   6.971  11.404   4.892
   49SBC   C07I33916   7.032  11.485   4.991
   49SBC   N00433917   7.164  11.463   5.033
   49SBC   C07R33918   7.239  11.361   4.970
   49SBC   C07T33919   7.170  11.274   4.876
   49SBC   C0FX33920   7.232  11.167   4.823
   49SBC   C0FW33921   7.177  11.071   4.745
   49SBC   C0G033922   7.044  11.092   4.699
   49SBC   C0G233923   6.975  11.009   4.616
   49SBC   H01E33924   6.873  11.039   4.596
   49SBC   C0G333925   7.038  10.888   4.582
   49SBC   H01C33926   6.988  10.822   4.512
   49SBC   C0G433927   7.171  10.862   4.632
   49SBC   H01D33928   7.215  10.768   4.604
   49SBC   O00E33929   6.979  11.206   4.740
   49SBC   C0FV33930   7.247  10.953   4.708
   49SBC   C0FU33931   7.388  10.951   4.747
   49SBC   H01B33932   7.455  10.870   4.721
   49SBC   C0FT33933   7.455  11.055   4.805
   49SBC   C0FS33934   7.584  11.090   4.862
   49SBC   C0BI33935   7.574  11.228   4.894
   49SBC   C0BH33936   7.681  11.272   4.971
   49SBC   C07F33937   7.663  11.320   5.106
   49SBC   C07E33938   7.551  11.374   5.165
   49SBC   C07G33939   7.429  11.402   5.109
   49SBC   C07433940   7.345  11.460   5.202
   49SBC   C06533941   7.546  11.424   5.298
   49SBC   C06433942   7.662  11.384   5.374
   49SBC   C06333943   7.683  11.401   5.508
   49SBC   C07533944   7.809  11.337   5.536
   49SBC   C0AM33945   7.874  11.280   5.417
   49SBC   C0AN33946   8.012  11.221   5.397
   49SBC   C0AO33947   8.126  11.202   5.493
   49SBC   C0B133948   8.257  11.160   5.448
   49SBC   C0B033949   8.278  11.140   5.314
   49SBC   C0AZ33950   8.398  11.108   5.253
   49SBC   C0AY33951   8.411  11.086   5.113
   49SBC   N00733952   8.535  11.075   5.052
   49SBC   C0E233953   8.545  11.071   4.910
   49SBC   C0E133954   8.671  11.066   4.856
   49SBC   C0E433955   8.683  11.052   4.716
   49SBC   C0FF33956   8.806  11.067   4.654
   49SBC   C0FJ33957   8.852  11.060   4.512
   49SBC   C0FK33958   8.809  10.978   4.403
   49SBC   H01633959   8.713  10.929   4.396
   49SBC   C0FL33960   8.926  10.949   4.319
   49SBC   H01733961   8.923  10.881   4.235
   49SBC   C0FM33962   9.035  11.033   4.367
   49SBC   C0FH33963   9.176  11.062   4.374
   49SBC   C0FI33964   9.194  11.139   4.486
   49SBC   C0F333965   9.304  11.114   4.568
   49SBC   C0F233966   9.276  11.124   4.701
   49SBC   C0DW33967   9.158  11.146   4.765
   49SBC   C0FE33968   9.047  11.150   4.687
   49SBC   C0DV33969   9.148  11.130   4.901
   49SBC   C0DX33970   9.021  11.118   4.959
   49SBC   C0DK33971   9.007  11.093   5.095
   49SBC   C0DJ33972   9.124  11.076   5.173
   49SBC   C0DI33973   9.117  11.074   5.314
   49SBC   C0DH33974   8.990  11.079   5.377
   49SBC   C0DG33975   8.876  11.082   5.296
   49SBC   C0BV33976   8.747  11.080   5.353
   49SBC   C0BC33977   8.633  11.084   5.273
   49SBC   C0BA33978   8.737  11.093   5.495
   49SBC   C0B433979   8.611  11.103   5.549
   49SBC   C0B333980   8.493  11.113   5.467
   49SBC   C0B533981   8.598  11.114   5.688
   49SBC   C0BU33982   8.717  11.096   5.767
   49SBC   C0BT33983   8.845  11.086   5.709
   49SBC   C0BS33984   8.961  11.070   5.791
   49SBC   C0CC33985   9.088  11.052   5.724
   49SBC   C0CB33986   9.204  11.034   5.803
   49SBC   C0CH33987   9.328  11.057   5.737
   49SBC   C0DO33988   9.342  11.052   5.599
   49SBC   C0DP33989   9.460  11.024   5.535
   49SBC   C0EA33990   9.585  11.021   5.607
   49SBC   H01233991   9.594  11.031   5.714
   49SBC   O00933992   9.704  10.987   5.552
   49SBC   C0EH33993   9.706  10.976   5.415
   49SBC   C0EG33994   9.828  10.936   5.358
   49SBC   C0EJ33995   9.958  10.901   5.406
   49SBC   H01033996   9.989  10.905   5.510
   49SBC   C0EK33997  10.044  10.874   5.294
   49SBC   H00Z33998  10.146  10.837   5.294
   49SBC   C0EL33999   9.974  10.910   5.179
   49SBC   C0EM34000  10.007  10.910   5.040
   49SBC   C0EW34001  10.127  10.872   4.978
   49SBC   H01334002  10.216  10.852   5.036
   49SBC   C0EX34003  10.140  10.865   4.833
   49SBC   H01434004  10.233  10.829   4.792
   49SBC   C0F134005  10.028  10.897   4.744
   49SBC   C0EU34006   9.913  10.938   4.812
   49SBC   C0ET34007   9.787  10.969   4.749
   49SBC   C0ES34008   9.703  10.988   4.863
   49SBC   C0EE34009   9.766  10.971   4.986
   49SBC   C0ED34010   9.740  10.975   5.130
   49SBC   C0EC34011   9.614  11.007   5.188
   49SBC   C0EB34012   9.501  11.038   5.121
   49SBC   C0EN34013   9.498  11.066   4.975
   49SBC   C0ER34014   9.381  11.115   4.917
   49SBC   C0DS34015   9.370  11.051   5.185
   49SBC   C0DR34016   9.360  11.048   5.322
   49SBC   C0EY34017   9.584  11.054   4.858
   49SBC   C0EZ34018   9.522  11.077   4.739
   49SBC   C0F534019   9.541  11.045   4.594
   49SBC   C0F634020   9.657  10.994   4.536
   49SBC   N00834021   9.650  10.970   4.394
   49SBC   C0F734022   9.528  10.981   4.316
   49SBC   C0FQ34023   9.540  10.970   4.180
   49SBC   H01834024   9.451  10.984   4.120
   49SBC   C0FP34025   9.657  10.933   4.114
   49SBC   H01934026   9.662  10.932   4.007
   49SBC   C0FO34027   9.769  10.928   4.193
   49SBC   H01A34028   9.861  10.901   4.144
   49SBC   C0F834029   9.413  11.017   4.387
   49SBC   C0F934030   9.772  10.945   4.330
   49SBC   C0FA34031   9.897  10.917   4.394
   49SBC   H01534032   9.987  10.890   4.341
   49SBC   C0FB34033   9.896  10.929   4.542
   49SBC   C0FD34034   9.777  10.968   4.608
   49SBC   C0FC34035  10.021  10.888   4.601
   49SBC   O00A34036  10.118  10.841   4.539
   49SBC   C0EV34037   9.903  10.949   4.952
   49SBC   C0EF34038   9.841  10.938   5.221
   49SBC   C0EI34039   9.594  10.997   5.331
   49SBC   C0DQ34040   9.471  11.025   5.396
   49SBC   C0CE34041   9.224  11.051   5.524
   49SBC   H00U34042   9.416  11.071   5.797
   49SBC   C0CA34043   9.196  11.011   5.943
   49SBC   C0C934044   9.069  11.038   6.010
   49SBC   C0C834045   9.067  11.017   6.151
   49SBC   C0C734046   8.988  11.078   6.258
   49SBC   C0C634047   9.033  11.054   6.390
   49SBC   C0C534048   9.029  11.139   6.512
   49SBC   C0CQ34049   9.140  11.131   6.600
   49SBC   C0D134050   9.253  11.069   6.561
   49SBC   C0D834051   9.365  11.143   6.606
   49SBC   C0D734052   9.319  11.244   6.696
   49SBC   C0D634053   9.398  11.356   6.713
   49SBC   C0D534054   9.348  11.473   6.783
   49SBC   C0D434055   9.222  11.538   6.788
   49SBC   C0D334056   9.209  11.600   6.918
   49SBC   C0CX34057   9.067  11.599   6.955
   49SBC   C0CW34058   8.991  11.515   6.863
   49SBC   C0CV34059   8.860  11.472   6.827
   49SBC   C0D234060   8.751  11.515   6.901
   49SBC   C09D34061   8.755  11.580   7.026
   49SBC   C09C34062   8.634  11.610   7.097
   49SBC   C09B34063   8.625  11.688   7.209
   49SBC   C09A34064   8.746  11.725   7.272
   49SBC   C09934065   8.865  11.680   7.230
   49SBC   C09834066   8.971  11.763   7.281
   49SBC   C08Y34067   8.904  11.870   7.358
   49SBC   C08X34068   8.953  12.001   7.399
   49SBC   C08W34069   9.081  12.051   7.351
   49SBC   C08U34070   9.170  11.995   7.248
   49SBC   C08V34071   9.165  11.877   7.166
   49SBC   C0DC34072   9.294  11.879   7.098
   49SBC   H00W34073   9.325  11.797   7.035
   49SBC   C0DB34074   9.380  11.977   7.142
   49SBC   H00X34075   9.487  11.986   7.124
   49SBC   C08T34076   9.293  12.059   7.219
   49SBC   C08S34077   9.334  12.174   7.280
   49SBC   H00N34078   9.430  12.216   7.257
   49SBC   C08R34079   9.253  12.238   7.372
   49SBC   C08Q34080   9.281  12.364   7.430
   49SBC   H00O34081   9.377  12.408   7.408
   49SBC   C08P34082   9.199  12.447   7.512
   49SBC   C08O34083   9.240  12.572   7.565
   49SBC   H00P34084   9.336  12.617   7.540
   49SBC   C08N34085   9.146  12.655   7.643
   49SBC   C08M34086   9.181  12.787   7.689
   49SBC   O00834087   9.288  12.841   7.674
   49SBC   O00734088   9.093  12.854   7.764
   49SBC   C08H34089   8.967  12.806   7.795
   49SBC   C08G34090   8.870  12.881   7.867
   49SBC   C03V34091   8.874  13.004   7.930
   49SBC   H00934092   8.969  13.055   7.922
   49SBC   C03U34093   8.772  13.066   8.010
   49SBC   C03W34094   8.784  13.191   8.083
   49SBC   H00A34095   8.871  13.255   8.091
   49SBC   C03X34096   8.685  13.225   8.170
   49SBC   H00B34097   8.708  13.304   8.240
   49SBC   O00534098   8.565  13.154   8.175
   49SBC   C03O34099   8.550  13.046   8.091
   49SBC   C03N34100   8.422  12.991   8.084
   49SBC   O00034101   8.326  13.064   8.151
   49SBC   C01934102   8.205  13.013   8.126
   49SBC   C01834103   8.169  12.903   8.044
   49SBC   C01734104   8.275  12.825   7.991
   49SBC   C01634105   8.245  12.713   7.913
   49SBC   C01534106   8.106  12.683   7.894
   49SBC   C01434107   8.077  12.570   7.823
   49SBC   C01334108   8.170  12.481   7.772
   49SBC   C01234109   8.087  12.387   7.699
   49SBC   C01134110   7.952  12.428   7.719
   49SBC   C01034111   7.846  12.354   7.666
   49SBC   C00Z34112   7.721  12.400   7.643
   49SBC   C00Y34113   7.676  12.330   7.534
   49SBC   C01O34114   7.767  12.227   7.497
   49SBC   C01P34115   7.777  12.180   7.365
   49SBC   C02L34116   7.893  12.119   7.330
   49SBC   C02K34117   8.006  12.145   7.410
   49SBC   C01M34118   8.009  12.225   7.532
   49SBC   C02J34119   8.117  12.064   7.365
   49SBC   C02I34120   8.240  12.054   7.431
   49SBC   C02H34121   8.295  12.122   7.536
   49SBC   C01Q34122   8.251  12.232   7.607
   49SBC   C02G34123   8.364  12.286   7.683
   49SBC   C08934124   8.466  12.187   7.670
   49SBC   C08834125   8.588  12.262   7.676
   49SBC   C08734126   8.543  12.389   7.742
   49SBC   C08634127   8.630  12.498   7.769
   49SBC   C03S34128   8.596  12.622   7.826
   49SBC   N00634129   8.716  12.695   7.827
   49SBC   C08F34130   8.817  12.629   7.766
   49SBC   C01J34131   8.483  12.686   7.878
   49SBC   C03R34132   8.509  12.807   7.946
   49SBC   C03Q34133   8.632  12.877   7.941
   49SBC   C08E34134   8.766  12.504   7.727
   49SBC   C08D34135   8.854  12.418   7.647
   49SBC   C08K34136   8.985  12.469   7.617
   49SBC   C08C34137   8.820  12.291   7.584
   49SBC   C09134138   8.917  12.219   7.508
   49SBC   C09234139   9.044  12.269   7.481
   49SBC   C08B34140   8.701  12.221   7.595
   49SBC   C09034141   8.739  12.085   7.537
   49SBC   C09434142   8.641  11.978   7.514
   49SBC   C09534143   8.659  11.880   7.418
   49SBC   C09R34144   8.539  11.844   7.367
   49SBC   C09734145   8.442  11.932   7.414
   49SBC   C09634146   8.504  12.004   7.508
   49SBC   C01I34147   8.400  12.408   7.742
   49SBC   C08A34148   8.432  12.103   7.570
   49SBC   C09L34149   8.314  11.961   7.362
   49SBC   C09K34150   8.237  11.909   7.254
   49SBC   C09J34151   8.262  11.789   7.192
   49SBC   C09I34152   8.192  11.746   7.074
   49SBC   C09O34153   8.077  11.787   6.992
   49SBC   C09N34154   7.989  11.890   7.043
   49SBC   C09M34155   8.003  11.971   7.161
   49SBC   C06O34156   7.874  11.917   6.952
   49SBC   C05M34157   7.865  11.857   6.828
   49SBC   C06P34158   7.958  11.764   6.786
   49SBC   C04234159   7.764  11.897   6.737
   49SBC   C04134160   7.677  11.999   6.773
   49SBC   C04034161   7.584  12.047   6.684
   49SBC   C03Z34162   7.507  12.158   6.708
   49SBC   C03Y34163   7.505  12.213   6.833
   49SBC   C02734164   7.427  12.321   6.862
   49SBC   C02634165   7.422  12.369   6.993
   49SBC   C02834166   7.347  12.482   7.025
   49SBC   C02934167   7.275  12.545   6.925
   49SBC   C02B34168   7.218  12.669   6.949
   49SBC   C02C34169   7.148  12.735   6.843
   49SBC   C02X34170   7.082  12.846   6.872
   49SBC   C03E34171   7.006  12.903   6.771
   49SBC   C03G34172   6.982  12.845   6.649
   49SBC   C04Q34173   7.053  12.726   6.616
   49SBC   C04R34174   7.040  12.659   6.497
   49SBC   C04S34175   7.118  12.551   6.470
   49SBC   C04L34176   7.207  12.500   6.562
   49SBC   C04M34177   7.209  12.557   6.686
   49SBC   C04K34178   7.278  12.387   6.533
   49SBC   C04F34179   7.273  12.332   6.413
   49SBC   C04E34180   7.185  12.381   6.315
   49SBC   C04D34181   7.168  12.312   6.195
   49SBC   C05034182   7.079  12.363   6.099
   49SBC   C05134183   7.056  12.287   5.988
   49SBC   C05Q34184   6.953  12.326   5.902
   49SBC   C05V34185   6.927  12.247   5.792
   49SBC   N00534186   6.813  12.274   5.715
   49SBC   C07V34187   6.741  12.392   5.736
   49SBC   C08234188   6.631  12.420   5.652
   49SBC   C08134189   6.570  12.322   5.578
   49SBC   C07C34190   6.633  12.202   5.566
   49SBC   C07B34191   6.564  12.093   5.509
   49SBC   C08034192   6.431  12.098   5.474
   49SBC   C07Z34193   6.374  11.985   5.431
   49SBC   H00L34194   6.273  11.995   5.395
   49SBC   C07934195   6.435  11.858   5.419
   49SBC   C07834196   6.567  11.852   5.444
   49SBC   C07734197   6.645  11.733   5.426
   49SBC   C07X34198   6.583  11.610   5.392
   49SBC   H00I34199   6.630  11.513   5.403
   49SBC   C07Y34200   6.445  11.617   5.358
   49SBC   H00H34201   6.392  11.524   5.345
   49SBC   C07634202   6.783  11.735   5.453
   49SBC   C06C34203   6.869  11.635   5.405
   49SBC   H00C34204   6.834  11.576   5.322
   49SBC   C06F34205   6.835  11.836   5.526
   49SBC   C06E34206   6.965  11.833   5.570
   49SBC   C06G34207   7.027  11.924   5.648
   49SBC   C06H34208   6.951  12.038   5.672
   49SBC   C06I34209   6.827  12.057   5.615
   49SBC   C06L34210   7.154  11.900   5.703
   49SBC   C06M34211   7.238  11.788   5.665
   49SBC   C06K34212   7.188  11.981   5.810
   49SBC   C05S34213   7.104  12.095   5.843
   49SBC   C05U34214   7.283  11.934   5.901
   49SBC   C05X34215   7.364  11.824   5.871
   49SBC   C05G34216   7.446  11.787   5.986
   49SBC   C05F34217   7.432  11.855   6.108
   49SBC   C05E34218   7.528  11.814   6.197
   49SBC   C04834219   7.541  11.867   6.319
   49SBC   C05634220   7.635  11.816   6.406
   49SBC   C04534221   7.654  11.884   6.529
   49SBC   C04734222   7.468  11.980   6.343
   49SBC   C04934223   7.383  12.032   6.243
   49SBC   C04B34224   7.318  12.147   6.265
   49SBC   C04634225   7.489  12.042   6.460
   49SBC   C04H34226   7.415  12.154   6.487
   49SBC   C05D34227   7.600  11.705   6.152
   49SBC   C04A34228   7.367  11.971   6.124
   49SBC   C05T34229   7.289  12.009   6.019
   49SBC   C05534230   7.215  12.123   6.049
   49SBC   C06D34231   7.052  11.732   5.527
   49SBC   C07W34232   6.762  11.958   5.542
   49SBC   C08534233   6.376  11.737   5.375
   49SBC   H00M34234   6.273  11.750   5.346
   49SBC   C08434235   6.373  12.228   5.468
   49SBC   H00J34236   6.275  12.242   5.424
   49SBC   C07A34237   6.632  11.969   5.492
   49SBC   C08334238   6.443  12.332   5.517
   49SBC   H00K34239   6.387  12.424   5.524
   49SBC   O00K34240   6.561  12.536   5.669
   49SBC   C0GO34241   6.591  12.612   5.777
   49SBC   C0GN34242   6.509  12.718   5.806
   49SBC   H01L34243   6.442  12.744   5.725
   49SBC   C0GM34244   6.536  12.805   5.920
   49SBC   C0GL34245   6.461  12.917   5.930
   49SBC   H01M34246   6.389  12.944   5.855
   49SBC   O00J34247   6.472  12.996   6.043
   49SBC   C0GK34248   6.574  12.961   6.135
   49SBC   H01N34249   6.592  13.036   6.211
   49SBC   C05K34250   6.647  12.847   6.120
   49SBC   C05J34251   6.745  12.808   6.221
   49SBC   C04Y34252   6.760  12.869   6.355
   49SBC   C04X34253   6.862  12.831   6.445
   49SBC   O00634254   6.681  12.973   6.398
   49SBC   C05334255   6.684  13.029   6.527
   49SBC   C04O34256   6.794  13.005   6.609
   49SBC   C03C34257   6.825  13.069   6.734
   49SBC   C03B34258   6.762  13.155   6.832
   49SBC   C05434259   6.623  13.176   6.822
   49SBC   C0GR34260   6.553  13.242   6.929
   49SBC   C03M34261   6.575  13.283   7.069
   49SBC   C03I34262   6.696  13.260   7.146
   49SBC   C03J34263   6.691  13.299   7.288
   49SBC   N00234264   6.802  13.278   7.375
   49SBC   C02U34265   6.809  13.323   7.506
   49SBC   C02T34266   6.915  13.292   7.592
   49SBC   C02Z34267   6.905  13.318   7.726
   49SBC   N00134268   6.993  13.255   7.822
   49SBC   C02R34269   6.977  13.278   7.959
   49SBC   C03234270   6.886  13.376   8.005
   49SBC   C03134271   6.804  13.442   7.912
   49SBC   H00734272   6.727  13.515   7.935
   49SBC   C03334273   6.883  13.398   8.146
   49SBC   H00334274   6.812  13.473   8.176
   49SBC   O00434275   6.952  13.323   8.237
   49SBC   C03434276   7.046  13.238   8.187
   49SBC   C03534277   7.118  13.159   8.288
   49SBC   C03634278   7.212  13.075   8.243
   49SBC   H00534279   7.259  12.999   8.304
   49SBC   C03734280   7.247  13.065   8.108
   49SBC   H00634281   7.328  12.995   8.095
   49SBC   C00D34282   7.175  13.138   8.012
   49SBC   C00C34283   7.197  13.132   7.875
   49SBC   C00B34284   7.309  13.050   7.817
   49SBC   C00A34285   7.407  12.940   7.863
   49SBC   C00934286   7.418  12.853   7.752
   49SBC   C00834287   7.504  12.747   7.724
   49SBC   C00734288   7.615  12.733   7.801
   49SBC   C00634289   7.702  12.625   7.776
   49SBC   C00534290   7.831  12.636   7.835
   49SBC   C00434291   7.867  12.745   7.908
   49SBC   C00334292   7.769  12.841   7.950
   49SBC   C00234293   7.805  12.950   8.029
   49SBC   C01C34294   7.938  12.957   8.072
   49SBC   C01B34295   7.973  13.046   8.174
   49SBC   H00034296   7.899  13.083   8.244
   49SBC   C00134297   7.720  13.058   8.042
   49SBC   C00034298   7.591  13.052   7.983
   49SBC   C01U34299   7.532  13.170   8.019
   49SBC   H00234300   7.427  13.194   8.014
   49SBC   C01T34301   7.630  13.257   8.084
   49SBC   O00234302   7.617  13.372   8.133
   49SBC   O00134303   7.745  13.184   8.088
   49SBC   C01S34304   7.639  12.833   7.893
   49SBC   C00N34305   7.485  12.674   7.607
   49SBC   C00M34306   7.404  12.724   7.508
   49SBC   C00J34307   7.349  12.850   7.522
   49SBC   C00I34308   7.268  12.912   7.433
   49SBC   C00H34309   7.192  13.023   7.469
   49SBC   C00G34310   7.204  13.084   7.591
   49SBC   C00F34311   7.111  13.174   7.640
   49SBC   C01X34312   7.097  13.069   7.378
   49SBC   C01W34313   7.091  13.015   7.255
   49SBC   C01V34314   7.173  12.907   7.221
   49SBC   C02034315   7.162  12.840   7.101
   49SBC   C01Z34316   7.005  13.060   7.161
   49SBC   C02Y34317   7.008  13.001   7.039
   49SBC   C03934318   6.932  13.059   6.939
   49SBC   C02W34319   6.908  13.152   7.195
   49SBC   C01Y34320   7.008  13.165   7.416
   49SBC   C00U34321   7.252  12.853   7.316
   49SBC   C00S34322   7.313  12.727   7.289
   49SBC   C00T34323   7.306  12.669   7.166
   49SBC   C00R34324   7.382  12.660   7.391
   49SBC   C00Q34325   7.448  12.542   7.370
   49SBC   C00V34326   7.432  12.482   7.244
   49SBC   C02434327   7.504  12.368   7.215
   49SBC   C00X34328   7.591  12.315   7.309
   49SBC   C00P34329   7.532  12.490   7.468
   49SBC   C00O34330   7.554  12.558   7.587
   49SBC   C00K34331   7.352  12.910   7.646
   49SBC   N00034332   7.541  12.945   7.910
   49SBC   C00L34333   7.291  13.026   7.682
   49SBC   H00434334   7.088  13.167   8.392
   49SBC   C02Q34335   7.070  13.223   8.050
   49SBC   C00E34336   7.109  13.187   7.776
   49SBC   C03034337   6.802  13.400   7.775
   49SBC   O00334338   6.711  13.454   7.683
   49SBC   C02S34339   7.016  13.213   7.544
   49SBC   C03834340   6.702  13.395   7.556
   49SBC   C03L34341   6.600  13.429   7.472
   49SBC   H00834342   6.519  13.489   7.511
   49SBC   C02V34343   6.908  13.200   7.327
   49SBC   C03K34344   6.583  13.373   7.341
   49SBC   C0BK34345   6.469  13.386   7.263
   49SBC   H00T34346   6.387  13.439   7.310
   49SBC   C03H34347   6.809  13.192   7.100
   49SBC   C0BL34348   6.456  13.339   7.130
   49SBC   C0GU34349   6.330  13.343   7.061
   49SBC   H01O34350   6.249  13.391   7.113
   49SBC   C0GT34351   6.320  13.325   6.924
   49SBC   H01P34352   6.231  13.354   6.869
   49SBC   C0GS34353   6.427  13.267   6.864
   49SBC   C0GV34354   6.432  13.234   6.729
   49SBC   C0GW34355   6.329  13.239   6.628
   49SBC   H01Q34356   6.232  13.282   6.646
   49SBC   C0GX34357   6.368  13.201   6.500
   49SBC   H01R34358   6.302  13.215   6.416
   49SBC   O00L34359   6.487  13.142   6.467
   49SBC   C0GQ34360   6.554  13.177   6.698
   49SBC   C03A34361   6.826  13.152   6.960
   49SBC   C05L34362   6.576  13.113   6.567
   49SBC   C04W34363   6.823  12.692   6.197
   49SBC   C05I34364   6.814  12.624   6.076
   49SBC   C05O34365   6.718  12.656   5.988
   49SBC   C05234366   6.903  12.522   6.043
   49SBC   C04V34367   6.924  12.651   6.287
   49SBC   C04U34368   7.010  12.544   6.251
   49SBC   N00934369   6.633  12.766   6.011
   49SBC   C0GP34370   6.696  12.584   5.869
   49SBC   C05W34371   6.777  12.477   5.844
   49SBC   C07D34372   6.756  12.177   5.631
   49SBC   C06J34373   6.998  12.130   5.762
   49SBC   C05P34374   6.882  12.444   5.926
   49SBC   C05R34375   7.126  12.175   5.956
   49SBC   C04Z34376   7.002  12.479   6.130
   49SBC   C04C34377   7.236  12.199   6.169
   49SBC   C04G34378   7.333  12.211   6.389
   49SBC   C04J34379   7.354  12.328   6.632
   49SBC   C04T34380   7.108  12.498   6.342
   49SBC   N00334381   6.940  12.714   6.413
   49SBC   C04P34382   6.877  12.891   6.571
   49SBC   C03D34383   6.935  13.014   6.806
   49SBC   C02134384   7.088  12.900   7.000
   49SBC   C03F34385   7.140  12.676   6.713
   49SBC   C02234386   7.231  12.726   7.070
   49SBC   C02A34387   7.279  12.496   6.791
   49SBC   C02334388   7.361  12.546   7.143
   49SBC   C02534389   7.505  12.309   7.086
   49SBC   C02D34390   7.599  12.211   7.057
   49SBC   C02E34391   7.692  12.168   7.147
   49SBC   C02N34392   7.794  12.077   7.112
   49SBC   C04N34393   7.353  12.381   6.760
   49SBC   C02P34394   7.594  12.162   6.929
   49SBC   C04I34395   7.423  12.216   6.610
   49SBC   C04434396   7.577  11.992   6.556
   49SBC   C04334397   7.685  12.059   6.898
   49SBC   C05N34398   7.790  12.021   6.983
   49SBC   C09U34399   8.063  11.724   6.866
   49SBC   C09V34400   8.155  11.632   6.821
   49SBC   C09X34401   8.271  11.596   6.892
   49SBC   C09Y34402   8.383  11.534   6.841
   49SBC   C0A134403   8.368  11.484   6.716
   49SBC   C0A234404   8.248  11.497   6.647
   49SBC   C0A434405   8.230  11.432   6.525
   49SBC   C07134406   8.115  11.452   6.445
   49SBC   C0A534407   8.105  11.396   6.318
   49SBC   C0A934408   8.217  11.326   6.263
   49SBC   C0A834409   8.335  11.310   6.340
   49SBC   C0AP34410   8.439  11.248   6.283
   49SBC   C0BY34411   8.554  11.242   6.358
   49SBC   C0BX34412   8.571  11.284   6.485
   49SBC   C0C234413   8.699  11.291   6.546
   49SBC   C0C334414   8.712  11.368   6.662
   49SBC   C0CT34415   8.604  11.426   6.720
   49SBC   C0C134416   8.806  11.229   6.487
   49SBC   C0C034417   8.797  11.201   6.347
   49SBC   C0A734418   8.461  11.349   6.542
   49SBC   C0BZ34419   8.674  11.203   6.295
   49SBC   C0BO34420   8.672  11.155   6.165
   49SBC   C0BN34421   8.557  11.166   6.089
   49SBC   C0BM34422   8.578  11.137   5.957
   49SBC   C0B934423   8.467  11.157   5.878
   49SBC   C0B834424   8.342  11.199   5.937
   49SBC   C0AD34425   8.335  11.235   6.073
   49SBC   C0AF34426   8.235  11.219   5.852
   49SBC   C0AG34427   8.239  11.199   5.715
   49SBC   C0B734428   8.363  11.160   5.667
   49SBC   C0AE34429   8.127  11.269   5.919
   49SBC   C0AB34430   8.116  11.311   6.048
   49SBC   C0AA34431   8.006  11.383   6.101
   49SBC   C0AJ34432   8.020  11.306   5.841
   49SBC   C0AK34433   7.913  11.371   5.887
   49SBC   C06W34434   7.830  11.396   5.782
   49SBC   C0AI34435   8.010  11.283   5.702
   49SBC   C0BP34436   8.801  11.133   6.122
   49SBC   C0BQ34437   8.820  11.089   5.987
   49SBC   C0BW34438   8.440  11.213   6.149
   49SBC   C0AC34439   8.220  11.292   6.130
   49SBC   C0A634440   8.341  11.359   6.473
   49SBC   C0A334441   8.476  11.418   6.662
   49SBC   C09Z34442   8.506  11.532   6.912
   49SBC   C09W34443   8.144  11.577   6.694
   49SBC   C07234444   8.032  11.599   6.618
   49SBC   C09H34445   8.278  11.648   7.020
   49SBC   C09G34446   8.396  11.636   7.087
   49SBC   C09P34447   8.393  11.726   7.196
   49SBC   C02O34448   8.120  11.982   7.248
   49SBC   C02M34449   7.894  12.054   7.205
   49SBC   C02F34450   7.681  12.220   7.277
   49SBC   C00W34451   7.594  12.379   7.434
   49SBC   C01R34452   7.656  12.529   7.676
   49SBC   C01N34453   7.879  12.260   7.570
   49SBC   C01L34454   8.125  12.283   7.604
   49SBC   C01H34455   8.311  12.508   7.793
   49SBC   C01K34456   7.939  12.545   7.786
   49SBC   C01E34457   8.004  12.764   7.941
   49SBC   C01G34458   8.347  12.638   7.863
   49SBC   C01D34459   8.036  12.871   8.022
   49SBC   C01A34460   8.105  13.084   8.190
   49SBC   H00134461   8.132  13.173   8.243
   49SBC   C01F34462   8.405  12.875   8.006
   49SBC   C03P34463   8.654  12.994   8.015
   49SBC   C03T34464   8.742  12.820   7.880
   49SBC   C08I34465   8.941  12.676   7.749
   49SBC   C08J34466   9.023  12.602   7.665
   49SBC   C08L34467   9.075  12.393   7.539
   49SBC   C09334468   9.125  12.184   7.396
   49SBC   C08Z34469   8.874  12.088   7.480
   49SBC   C09T34470   9.068  11.763   7.168
   49SBC   C09S34471   8.769  11.826   7.366
   49SBC   C09Q34472   8.513  11.750   7.261
   49SBC   C09F34473   8.517  11.583   7.033
   49SBC   C09E34474   8.870  11.632   7.094
   49SBC   C0A034475   8.623  11.490   6.846
   49SBC   C0CU34476   8.839  11.392   6.711
   49SBC   C0CR34477   8.947  11.322   6.651
   49SBC   C0CZ34478   9.073  11.341   6.707
   49SBC   C0DA34479   9.008  11.670   7.063
   49SBC   C0D934480   9.320  11.546   7.000
   49SBC   H00V34481   9.318  11.524   7.106
   49SBC   C0CY34482   9.094  11.469   6.772
   49SBC   C0DF34483   9.413  11.484   6.907
   49SBC   C0DE34484   9.528  11.396   6.891
   49SBC   C0GI34485   9.642  11.373   6.973
   49SBC   H01K34486   9.648  11.413   7.073
   49SBC   C0GJ34487   9.745  11.300   6.920
   49SBC   H01J34488   9.832  11.282   6.981
   49SBC   O00I34489   9.746  11.240   6.795
   49SBC   C0GH34490   9.630  11.244   6.722
   49SBC   C0GG34491   9.618  11.169   6.602
   49SBC   O00G34492   9.734  11.116   6.548
   49SBC   C0G834493   9.733  11.056   6.425
   49SBC   C0G934494   9.858  11.017   6.383
   49SBC   H01G34495   9.948  11.058   6.426
   49SBC   C0GA34496   9.869  10.931   6.271
   49SBC   H01H34497   9.964  10.896   6.235
   49SBC   C0GB34498   9.755  10.899   6.191
   49SBC   C0EP34499   9.630  10.950   6.230
   49SBC   C0E834500   9.519  10.945   6.131
   49SBC   C0CK34501   9.381  10.995   6.124
   49SBC   C0CL34502   9.304  10.990   6.238
   49SBC   C0E934503   9.360  11.014   6.369
   49SBC   C0GE34504   9.496  11.051   6.421
   49SBC   C0E734505   9.531  10.870   6.018
   49SBC   C0CJ34506   9.413  10.870   5.942
   49SBC   C0E634507   9.415  10.789   5.826
   49SBC   H00Y34508   9.325  10.782   5.766
   49SBC   C0EO34509   9.539  10.727   5.788
   49SBC   H01134510   9.539  10.678   5.692
   49SBC   C0G634511   9.654  10.722   5.874
   49SBC   C0G534512   9.785  10.655   5.852
   49SBC   H01F34513   9.786  10.588   5.767
   49SBC   C0GD34514   9.889  10.675   5.936
   49SBC   H01I34515   9.982  10.630   5.906
   49SBC   O00H34516   9.879  10.748   6.049
   49SBC   C0EQ34517   9.651  10.802   5.996
   49SBC   C0GC34518   9.763  10.815   6.077
   49SBC   C0G734519   9.614  11.019   6.353
   49SBC   C0DD34520   9.526  11.337   6.763
   49SBC   C0GF34521   9.494  11.123   6.550
   49SBC   C0CO34522   9.249  11.000   6.445
   49SBC   C0D034523   9.174  11.247   6.674
   49SBC   C0C434524   8.925  11.231   6.551
   49SBC   C0CN34525   9.131  10.959   6.376
   49SBC   C0CP34526   8.882  11.156   6.239
   49SBC   C0CM34527   9.167  10.948   6.237
   49SBC   C0CI34528   9.323  10.968   5.996
   49SBC   C0CD34529   9.099  11.063   5.588
   49SBC   C0BR34530   8.950  11.066   5.932
   49SBC   C0CS34531   8.707  11.104   5.905
   49SBC   C0B634532   8.476  11.145   5.741
   49SBC   C0CG34533   8.856  11.084   5.572
   49SBC   C0CF34534   8.982  11.076   5.512
   49SBC   C0E534535   9.232  11.053   5.383
   49SBC   C0DT34536   9.253  11.075   5.113
   49SBC   C0DL34537   8.884  11.083   5.155
   49SBC   C0DM34538   8.772  11.083   5.076
   49SBC   C0DY34539   8.908  11.105   4.878
   49SBC   C0DU34540   9.257  11.112   4.979
   49SBC   C0F034541   9.391  11.114   4.782
   49SBC   C0F434542   9.419  11.065   4.516
   49SBC   C0FG34543   9.068  11.149   4.544
   49SBC   O00B34544   9.287  11.003   4.319
   49SBC   C0FN34545   8.973  11.108   4.470
   49SBC   C0DZ34546   8.916  11.113   4.736
   49SBC   O00C34547   8.570  11.038   4.640
   49SBC   C0FR34548   8.443  11.068   4.686
   49SBC   O00D34549   8.357  11.073   4.595
   49SBC   C0E034550   8.783  11.085   4.936
   49SBC   C0E334551   8.427  11.074   4.830
   49SBC   C0AW34552   8.303  11.094   4.891
   49SBC   C0AV34553   8.173  11.115   4.820
   49SBC   H00Q34554   8.173  11.115   4.712
   49SBC   C0AU34555   8.056  11.141   4.886
   49SBC   H00R34556   7.971  11.151   4.820
   49SBC   C0AT34557   8.064  11.138   5.028
   49SBC   C0AS34558   7.967  11.160   5.136
   49SBC   C0AR34559   7.826  11.162   5.111
   49SBC   C0BE34560   8.182  11.121   5.089
   49SBC   C0DN34561   8.649  11.082   5.135
   49SBC   C0AX34562   8.307  11.098   5.027
   49SBC   C0BB34563   8.508  11.097   5.331
   49SBC   C0BD34564   8.169  11.141   5.227
   49SBC   C0B234565   8.369  11.141   5.530
   49SBC   C0AH34566   8.126  11.223   5.633
   49SBC   C0BF34567   8.038  11.181   5.263
   49SBC   C0AL34568   7.880  11.337   5.664
   49SBC   C07U34569   7.772  11.304   5.317
   49SBC   C0AQ34570   7.757  11.266   5.186
   49SBC   C0BG34571   7.765  11.156   4.980
   49SBC   C0FY34572   7.440  11.273   4.891
   49SBC   C0BJ34573   7.705  11.044   4.923
   49SBC   H00S34574   7.731  10.939   4.926
   49SBC   C0FZ34575   7.371  11.164   4.839
   49SBC   C07S34576   7.375  11.359   4.986
   49SBC   C0G134577   7.038  11.292   4.837
   49SBC   C07K34578   6.965  11.595   5.037
   49SBC   C07H34579   7.217  11.516   5.155
   49SBC   C06B34580   7.009  11.645   5.431
   49SBC   C06N34581   7.190  11.718   5.554
   49SBC   C06634582   7.416  11.486   5.327
   49SBC   C06234583   7.586  11.474   5.599
   49SBC   C05Y34584   7.353  11.756   5.742
   49SBC   C06134585   7.598  11.464   5.740
   49SBC   C05H34586   7.540  11.687   6.024
   49SBC   C06V34587   7.714  11.455   5.821
   49SBC   C06Y34588   7.902  11.421   6.018
   49SBC   C05C34589   7.708  11.655   6.233
   49SBC   C06Z34590   8.004  11.433   6.236
   49SBC   C07034591   8.021  11.538   6.495
   49SBC   C05B34592   7.719  11.712   6.362
   49SBC   C05734593   7.752  11.838   6.612
   49SBC   C05934594   7.945  11.699   6.660
   50SBC   C05834595   0.251   4.302   5.433
   50SBC   C05A34596   0.275   4.404   5.342
   50SBC   C06Q34597   0.315   4.376   5.212
   50SBC   C06R34598   0.369   4.482   5.132
   50SBC   C06S34599   0.378   4.618   5.177
   50SBC   C06T34600   0.432   4.713   5.090
   50SBC   C06U34601   0.467   4.857   5.116
   50SBC   C06X34602   0.441   4.945   5.220
   50SBC   C06034603   0.495   5.071   5.202
   50SBC   C05Z34604   0.438   5.202   5.213
   50SBC   C06834605   0.519   5.279   5.112
   50SBC   C06734606   0.541   5.422   5.100
   50SBC   C06934607   0.467   5.515   5.191
   50SBC   C06A34608   0.483   5.660   5.206
   50SBC   C07334609   0.609   5.726   5.215
   50SBC   C07P34610   0.633   5.803   5.332
   50SBC   C07O34611   0.557   5.800   5.453
   50SBC   H00D34612   0.483   5.723   5.470
   50SBC   C07N34613   0.579   5.884   5.562
   50SBC   H00E34614   0.519   5.892   5.652
   50SBC   C07M34615   0.681   5.976   5.553
   50SBC   H00F34616   0.698   6.043   5.636
   50SBC   C07L34617   0.762   5.984   5.438
   50SBC   C07Q34618   0.872   6.071   5.412
   50SBC   H00G34619   0.890   6.142   5.492
   50SBC   O00F34620   0.958   6.074   5.309
   50SBC   C07J34621   0.925   5.992   5.208
   50SBC   C07I34622   0.813   5.903   5.212
   50SBC   N00434623   0.793   5.814   5.103
   50SBC   C07R34624   0.877   5.821   4.990
   50SBC   C07T34625   0.990   5.904   4.997
   50SBC   C0FX34626   1.091   5.892   4.902
   50SBC   C0FW34627   1.221   5.926   4.919
   50SBC   C0G034628   1.244   6.015   5.031
   50SBC   C0G234629   1.371   6.058   5.064
   50SBC   H01E34630   1.399   6.122   5.147
   50SBC   C0G334631   1.475   6.007   4.988
   50SBC   H01C34632   1.572   6.008   5.036
   50SBC   C0G434633   1.453   5.920   4.877
   50SBC   H01D34634   1.538   5.885   4.820
   50SBC   O00E34635   1.139   6.055   5.110
   50SBC   C0FV34636   1.323   5.874   4.839
   50SBC   C0FU34637   1.293   5.795   4.723
   50SBC   H01B34638   1.371   5.755   4.660
   50SBC   C0FT34639   1.160   5.762   4.703
   50SBC   C0FS34640   1.088   5.670   4.619
   50SBC   C0BI34641   0.948   5.702   4.636
   50SBC   C0BH34642   0.874   5.595   4.587
   50SBC   C07F34643   0.814   5.504   4.681
   50SBC   C07E34644   0.747   5.531   4.801
   50SBC   C07G34645   0.758   5.642   4.883
   50SBC   C07434646   0.690   5.617   5.000
   50SBC   C06534647   0.688   5.432   4.871
   50SBC   C06434648   0.697   5.299   4.819
   50SBC   C06334649   0.641   5.185   4.873
   50SBC   C07534650   0.678   5.075   4.779
   50SBC   C0AM34651   0.749   5.126   4.665
   50SBC   C0AN34652   0.803   5.050   4.548
   50SBC   C0AO34653   0.792   4.903   4.506
   50SBC   C0B134654   0.850   4.848   4.385
   50SBC   C0B034655   0.927   4.930   4.300
   50SBC   C0AZ34656   0.999   4.890   4.188
   50SBC   C0AY34657   1.072   4.981   4.109
   50SBC   N00734658   1.148   4.938   4.002
   50SBC   C0E234659   1.223   5.035   3.926
   50SBC   C0E134660   1.289   4.989   3.811
   50SBC   C0E434661   1.351   5.087   3.731
   50SBC   C0FF34662   1.410   5.050   3.609
   50SBC   C0FJ34663   1.446   5.135   3.499
   50SBC   C0FK34664   1.403   5.267   3.463
   50SBC   H01634665   1.350   5.345   3.516
   50SBC   C0FL34666   1.424   5.268   3.321
   50SBC   H01734667   1.374   5.337   3.255
   50SBC   C0FM34668   1.485   5.141   3.274
   50SBC   C0FH34669   1.500   5.047   3.167
   50SBC   C0FI34670   1.543   4.926   3.237
   50SBC   C0F334671   1.506   4.798   3.188
   50SBC   C0F234672   1.484   4.707   3.289
   50SBC   C0DW34673   1.463   4.726   3.424
   50SBC   C0FE34674   1.480   4.855   3.472
   50SBC   C0DV34675   1.393   4.643   3.508
   50SBC   C0DX34676   1.339   4.682   3.627
   50SBC   C0DK34677   1.257   4.589   3.698
   50SBC   C0DJ34678   1.239   4.465   3.645
   50SBC   C0DI34679   1.166   4.374   3.722
   50SBC   C0DH34680   1.103   4.411   3.841
   50SBC   C0DG34681   1.130   4.540   3.890
   50SBC   C0BV34682   1.065   4.577   4.006
   50SBC   C0BC34683   1.069   4.712   4.043
   50SBC   C0BA34684   0.984   4.488   4.076
   50SBC   C0B434685   0.910   4.533   4.185
   50SBC   C0B334686   0.922   4.668   4.233
   50SBC   C0B534687   0.830   4.443   4.254
   50SBC   C0BU34688   0.819   4.308   4.210
   50SBC   C0BT34689   0.887   4.266   4.097
   50SBC   C0BS34690   0.870   4.130   4.049
   50SBC   C0CC34691   0.946   4.091   3.937
   50SBC   C0CB34692   0.938   3.959   3.889
   50SBC   C0CH34693   1.042   3.922   3.791
   50SBC   C0DO34694   1.108   4.017   3.712
   50SBC   C0DP34695   1.138   3.987   3.575
   50SBC   C0EA34696   1.131   3.853   3.523
   50SBC   H01234697   1.117   3.767   3.587
   50SBC   O00934698   1.139   3.822   3.391
   50SBC   C0EH34699   1.155   3.932   3.313
   50SBC   C0EG34700   1.137   3.909   3.178
   50SBC   C0EJ34701   1.092   3.798   3.094
   50SBC   H01034702   1.049   3.709   3.137
   50SBC   C0EK34703   1.093   3.841   2.954
   50SBC   H00Z34704   1.077   3.779   2.867
   50SBC   C0EL34705   1.143   3.974   2.962
   50SBC   C0EM34706   1.155   4.068   2.858
   50SBC   C0EW34707   1.139   4.049   2.721
   50SBC   H01334708   1.118   3.949   2.683
   50SBC   C0EX34709   1.175   4.154   2.619
   50SBC   H01434710   1.160   4.135   2.514
   50SBC   C0F134711   1.222   4.286   2.668
   50SBC   C0EU34712   1.233   4.306   2.807
   50SBC   C0ET34713   1.278   4.420   2.873
   50SBC   C0ES34714   1.262   4.386   3.015
   50SBC   C0EE34715   1.215   4.251   3.027
   50SBC   C0ED34716   1.202   4.147   3.122
   50SBC   C0EC34717   1.218   4.171   3.266
   50SBC   C0EB34718   1.262   4.289   3.327
   50SBC   C0EN34719   1.320   4.398   3.250
   50SBC   C0ER34720   1.395   4.490   3.322
   50SBC   C0DS34721   1.249   4.311   3.465
   50SBC   C0DR34722   1.191   4.214   3.544
   50SBC   C0EY34723   1.333   4.445   3.116
   50SBC   C0EZ34724   1.407   4.563   3.107
   50SBC   C0F534725   1.419   4.667   3.004
   50SBC   C0F634726   1.393   4.643   2.864
   50SBC   N00834727   1.427   4.761   2.787
   50SBC   C0F734728   1.458   4.894   2.836
   50SBC   C0FQ34729   1.481   4.992   2.745
   50SBC   H01834730   1.503   5.089   2.786
   50SBC   C0FP34731   1.470   4.970   2.610
   50SBC   H01934732   1.489   5.050   2.541
   50SBC   C0FO34733   1.451   4.844   2.560
   50SBC   H01A34734   1.428   4.836   2.454
   50SBC   C0F834735   1.465   4.905   2.978
   50SBC   C0F934736   1.428   4.736   2.650
   50SBC   C0FA34737   1.392   4.615   2.583
   50SBC   H01534738   1.393   4.606   2.475
   50SBC   C0FB34739   1.327   4.509   2.658
   50SBC   C0FD34740   1.339   4.527   2.800
   50SBC   C0FC34741   1.258   4.395   2.587
   50SBC   O00A34742   1.243   4.387   2.466
   50SBC   C0EV34743   1.199   4.205   2.896
   50SBC   C0EF34744   1.161   4.015   3.090
   50SBC   C0EI34745   1.180   4.067   3.353
   50SBC   C0DQ34746   1.166   4.090   3.487
   50SBC   C0CE34747   1.096   4.146   3.750
   50SBC   H00U34748   1.055   3.818   3.765
   50SBC   C0CA34749   0.841   3.870   3.936
   50SBC   C0C934750   0.750   3.907   4.046
   50SBC   C0C834751   0.647   3.813   4.078
   50SBC   C0C734752   0.565   3.789   4.191
   50SBC   C0C634753   0.480   3.679   4.199
   50SBC   C0C534754   0.417   3.592   4.294
   50SBC   C0CQ34755   0.382   3.463   4.248
   50SBC   C0D134756   0.439   3.418   4.132
   50SBC   C0D834757   0.490   3.286   4.155
   50SBC   C0D734758   0.410   3.243   4.259
   50SBC   C0D634759   0.428   3.118   4.324
   50SBC   C0D534760   0.337   3.077   4.428
   50SBC   C0D434761   0.250   3.150   4.511
   50SBC   C0D334762   0.231   3.076   4.631
   50SBC   C0CX34763   0.234   3.162   4.744
   50SBC   C0CW34764   0.271   3.293   4.691
   50SBC   C0CV34765   0.281   3.426   4.748
   50SBC   C0D234766   0.257   3.455   4.886
   50SBC   C09D34767   0.253   3.358   4.992
   50SBC   C09C34768   0.255   3.390   5.129
   50SBC   C09B34769   0.232   3.308   5.240
   50SBC   C09A34770   0.216   3.168   5.212
   50SBC   C09934771   0.232   3.122   5.085
   50SBC   C09834772   0.154   3.002   5.066
   50SBC   C08Y34773   0.090   2.982   5.194
   50SBC   C08X34774  -0.020   2.894   5.225
   50SBC   C08W34775  -0.060   2.806   5.123
   50SBC   C08U34776  -0.038   2.808   4.977
   50SBC   C08V34777   0.028   2.903   4.884
   50SBC   C0DC34778   0.023   2.836   4.762
   50SBC   H00W34779   0.079   2.877   4.680
   50SBC   C0DB34780  -0.058   2.720   4.764
   50SBC   H00X34781  -0.086   2.670   4.672
   50SBC   C08T34782  -0.091   2.696   4.903
   50SBC   C08S34783  -0.160   2.590   4.954
   50SBC   H00N34784  -0.180   2.521   4.873
   50SBC   C08R34785  -0.204   2.594   5.089
   50SBC   C08Q34786  -0.297   2.500   5.138
   50SBC   H00O34787  -0.322   2.418   5.072
   50SBC   C08P34788  -0.366   2.514   5.255
   50SBC   C08O34789  -0.463   2.423   5.308
   50SBC   H00P34790  -0.484   2.331   5.256
   50SBC   C08N34791  -0.537   2.454   5.424
   50SBC   C08M34792  -0.645   2.369   5.459
   50SBC   O00834793  -0.687   2.275   5.389
   50SBC   O00734794  -0.720   2.412   5.570
   50SBC   C08H34795  -0.705   2.529   5.640
   50SBC   C08G34796  -0.790   2.575   5.748
   50SBC   C03V34797  -0.906   2.515   5.802
   50SBC   H00934798  -0.927   2.417   5.761
   50SBC   C03U34799  -0.984   2.571   5.903
   50SBC   C03W34800  -1.096   2.516   5.963
   50SBC   H00A34801  -1.108   2.412   5.934
   50SBC   C03X34802  -1.168   2.582   6.050
   50SBC   H00B34803  -1.255   2.529   6.085
   50SBC   O00534804  -1.141   2.714   6.099
   50SBC   C03O34805  -1.022   2.763   6.049
   50SBC   C03N34806  -0.978   2.886   6.099
   50SBC   O00034807  -1.057   2.950   6.188
   50SBC   C01934808  -1.034   3.086   6.218
   50SBC   C01834809  -0.910   3.145   6.182
   50SBC   C01734810  -0.819   3.077   6.104
   50SBC   C01634811  -0.698   3.133   6.069
   50SBC   C01534812  -0.665   3.249   6.136
   50SBC   C01434813  -0.540   3.302   6.117
   50SBC   C01334814  -0.451   3.258   6.025
   50SBC   C01234815  -0.339   3.349   6.036
   50SBC   C01134816  -0.367   3.429   6.152
   50SBC   C01034817  -0.273   3.509   6.205
   50SBC   C00Z34818  -0.287   3.610   6.301
   50SBC   C00Y34819  -0.179   3.695   6.278
   50SBC   C01O34820  -0.097   3.652   6.178
   50SBC   C01P34821  -0.030   3.739   6.094
   50SBC   C02L34822  -0.006   3.699   5.964
   50SBC   C02K34823  -0.048   3.568   5.931
   50SBC   C01M34824  -0.136   3.489   6.005
   50SBC   C02J34825   0.010   3.517   5.810
   50SBC   C02I34826   0.014   3.390   5.761
   50SBC   C02H34827  -0.063   3.284   5.797
   50SBC   C01Q34828  -0.173   3.273   5.882
   50SBC   C02G34829  -0.242   3.153   5.856
   50SBC   C08934830  -0.154   3.076   5.776
   50SBC   C08834831  -0.231   2.985   5.702
   50SBC   C08734832  -0.363   2.992   5.761
   50SBC   C08634833  -0.465   2.902   5.735
   50SBC   C03S34834  -0.587   2.881   5.813
   50SBC   N00634835  -0.644   2.761   5.765
   50SBC   C08F34836  -0.571   2.719   5.660
   50SBC   C01J34837  -0.657   2.945   5.917
   50SBC   C03R34838  -0.779   2.888   5.959
   50SBC   C03Q34839  -0.821   2.756   5.910
   50SBC   C08E34840  -0.455   2.794   5.647
   50SBC   C08D34841  -0.369   2.768   5.535
   50SBC   C08K34842  -0.406   2.659   5.452
   50SBC   C08C34843  -0.250   2.833   5.505
   50SBC   C09134844  -0.193   2.812   5.378
   50SBC   C09234845  -0.227   2.708   5.288
   50SBC   C08B34846  -0.179   2.929   5.579
   50SBC   C09034847  -0.066   2.965   5.481
   50SBC   C09434848   0.041   3.051   5.515
   50SBC   C09534849   0.121   3.113   5.415
   50SBC   C09R34850   0.166   3.239   5.458
   50SBC   C09734851   0.112   3.265   5.587
   50SBC   C09634852   0.033   3.150   5.614
   50SBC   C01I34853  -0.373   3.089   5.867
   50SBC   C08A34854  -0.053   3.161   5.728
   50SBC   C09L34855   0.107   3.384   5.661
   50SBC   C09K34856   0.153   3.518   5.638
   50SBC   C09J34857   0.216   3.560   5.516
   50SBC   C09I34858   0.217   3.695   5.474
   50SBC   C09O34859   0.192   3.830   5.530
   50SBC   C09N34860   0.159   3.852   5.668
   50SBC   C09M34861   0.105   3.754   5.758
   50SBC   C06O34862   0.159   3.985   5.708
   50SBC   C05M34863   0.190   4.092   5.617
   50SBC   C06P34864   0.215   4.067   5.483
   50SBC   C04234865   0.186   4.228   5.657
   50SBC   C04134866   0.138   4.259   5.788
   50SBC   C04034867   0.129   4.398   5.819
   50SBC   C03Z34868   0.090   4.435   5.948
   50SBC   C03Y34869   0.058   4.334   6.039
   50SBC   C02734870   0.010   4.372   6.162
   50SBC   C02634871  -0.036   4.272   6.248
   50SBC   C02834872  -0.112   4.308   6.360
   50SBC   C02934873  -0.129   4.443   6.394
   50SBC   C02B34874  -0.217   4.482   6.496
   50SBC   C02C34875  -0.242   4.617   6.516
   50SBC   C02X34876  -0.341   4.652   6.601
   50SBC   C03E34877  -0.369   4.784   6.616
   50SBC   C03G34878  -0.303   4.885   6.558
   50SBC   C04Q34879  -0.210   4.848   6.466
   50SBC   C04R34880  -0.158   4.949   6.384
   50SBC   C04S34881  -0.085   4.911   6.275
   50SBC   C04L34882  -0.052   4.779   6.257
   50SBC   C04M34883  -0.092   4.682   6.346
   50SBC   C04K34884   0.005   4.739   6.137
   50SBC   C04F34885   0.031   4.836   6.044
   50SBC   C04E34886   0.000   4.972   6.063
   50SBC   C04D34887   0.028   5.073   5.967
   50SBC   C05034888  -0.012   5.204   5.985
   50SBC   C05134889   0.000   5.294   5.882
   50SBC   C05Q34890  -0.040   5.422   5.898
   50SBC   C05V34891  -0.010   5.517   5.801
   50SBC   N00534892  -0.062   5.650   5.813
   50SBC   C07V34893  -0.147   5.679   5.924
   50SBC   C08234894  -0.192   5.812   5.933
   50SBC   C08134895  -0.174   5.911   5.838
   50SBC   C07C34896  -0.096   5.880   5.727
   50SBC   C07B34897  -0.055   5.977   5.635
   50SBC   C08034898  -0.106   6.107   5.642
   50SBC   C07Z34899  -0.061   6.200   5.546
   50SBC   H00L34900  -0.097   6.302   5.539
   50SBC   C07934901   0.029   6.179   5.449
   50SBC   C07834902   0.079   6.047   5.443
   50SBC   C07734903   0.174   6.018   5.344
   50SBC   C07X34904   0.232   6.121   5.266
   50SBC   H00I34905   0.305   6.103   5.188
   50SBC   C07Y34906   0.180   6.254   5.273
   50SBC   H00H34907   0.205   6.325   5.196
   50SBC   C07634908   0.216   5.887   5.327
   50SBC   C06C34909   0.334   5.855   5.257
   50SBC   H00C34910   0.399   5.929   5.214
   50SBC   C06F34911   0.162   5.783   5.407
   50SBC   C06E34912   0.189   5.651   5.385
   50SBC   C06G34913   0.162   5.543   5.472
   50SBC   C06H34914   0.085   5.583   5.584
   50SBC   C06I34915   0.040   5.713   5.602
   50SBC   C06L34916   0.219   5.413   5.461
   50SBC   C06M34917   0.313   5.380   5.350
   50SBC   C06K34918   0.179   5.314   5.551
   50SBC   C05S34919   0.100   5.348   5.663
   50SBC   C05U34920   0.224   5.182   5.537
   50SBC   C05X34921   0.297   5.145   5.421
   50SBC   C05G34922   0.301   5.001   5.410
   50SBC   C05F34923   0.262   4.918   5.509
   50SBC   C05E34924   0.282   4.786   5.478
   50SBC   C04834925   0.245   4.686   5.564
   50SBC   C05634926   0.248   4.562   5.514
   50SBC   C04534927   0.213   4.461   5.603
   50SBC   C04734928   0.193   4.723   5.685
   50SBC   C04934929   0.181   4.858   5.716
   50SBC   C04B34930   0.123   4.897   5.830
   50SBC   C04634931   0.158   4.626   5.769
   50SBC   C04H34932   0.104   4.662   5.889
   50SBC   C05D34933   0.317   4.775   5.350
   50SBC   C04A34934   0.218   4.961   5.630
   50SBC   C05T34935   0.187   5.093   5.640
   50SBC   C05534936   0.119   5.130   5.752
   50SBC   C06D34937   0.291   5.616   5.296
   50SBC   C07W34938   0.076   5.814   5.511
   50SBC   C08534939   0.085   6.280   5.364
   50SBC   H00M34940   0.053   6.382   5.380
   50SBC   C08434941  -0.195   6.140   5.745
   50SBC   H00J34942  -0.228   6.243   5.752
   50SBC   C07A34943   0.036   5.946   5.531
   50SBC   C08334944  -0.219   6.046   5.842
   50SBC   H00K34945  -0.288   6.060   5.925
   50SBC   O00K34946  -0.244   5.855   6.057
   50SBC   C0GO34947  -0.256   5.760   6.154
   50SBC   C0GN34948  -0.317   5.794   6.273
   50SBC   H01L34949  -0.348   5.897   6.272
   50SBC   C0GM34950  -0.330   5.707   6.384
   50SBC   C0GL34951  -0.368   5.756   6.501
   50SBC   H01M34952  -0.398   5.859   6.511
   50SBC   O00J34953  -0.376   5.680   6.614
   50SBC   C0GK34954  -0.351   5.543   6.592
   50SBC   H01N34955  -0.353   5.486   6.684
   50SBC   C05K34956  -0.316   5.490   6.472
   50SBC   C05J34957  -0.279   5.350   6.460
   50SBC   C04Y34958  -0.308   5.244   6.549
   50SBC   C04X34959  -0.273   5.114   6.522
   50SBC   O00634960  -0.377   5.272   6.664
   50SBC   C05334961  -0.443   5.181   6.732
   50SBC   C04O34962  -0.434   5.047   6.686
   50SBC   C03C34963  -0.520   4.942   6.726
   50SBC   C03B34964  -0.641   4.926   6.806
   50SBC   C05434965  -0.663   5.012   6.915
   50SBC   C0GR34966  -0.768   4.986   7.003
   50SBC   C03M34967  -0.859   4.873   7.030
   50SBC   C03I34968  -0.853   4.744   6.975
   50SBC   C03J34969  -0.957   4.652   6.999
   50SBC   N00234970  -0.938   4.516   6.964
   50SBC   C02U34971  -1.044   4.424   6.978
   50SBC   C02T34972  -1.033   4.291   6.940
   50SBC   C02Z34973  -1.136   4.200   6.956
   50SBC   N00134974  -1.121   4.062   6.927
   50SBC   C02R34975  -1.225   3.967   6.948
   50SBC   C03234976  -1.345   4.016   6.996
   50SBC   C03134977  -1.361   4.156   7.019
   50SBC   H00734978  -1.452   4.185   7.068
   50SBC   C03334979  -1.450   3.917   7.012
   50SBC   H00334980  -1.546   3.943   7.053
   50SBC   O00434981  -1.424   3.779   6.998
   50SBC   C03434982  -1.307   3.743   6.933
   50SBC   C03534983  -1.294   3.609   6.912
   50SBC   C03634984  -1.177   3.558   6.874
   50SBC   H00534985  -1.167   3.451   6.862
   50SBC   C03734986  -1.068   3.649   6.843
   50SBC   H00634987  -0.969   3.615   6.816
   50SBC   C00D34988  -1.087   3.787   6.855
   50SBC   C00C34989  -0.991   3.884   6.829
   50SBC   C00B34990  -0.865   3.851   6.750
   50SBC   C00A34991  -0.802   3.735   6.675
   50SBC   C00934992  -0.660   3.770   6.667
   50SBC   C00834993  -0.570   3.725   6.564
   50SBC   C00734994  -0.609   3.619   6.488
   50SBC   C00634995  -0.520   3.574   6.384
   50SBC   C00534996  -0.570   3.469   6.302
   50SBC   C00434997  -0.701   3.420   6.309
   50SBC   C00334998  -0.796   3.493   6.386
   50SBC   C00234999  -0.928   3.458   6.387
   50SBC   C01C35000  -0.965   3.338   6.321
   50SBC   C01B35001  -1.091   3.276   6.352
   50SBC   H00035002  -1.166   3.323   6.415
   50SBC   C00135003  -1.023   3.539   6.452
   50SBC   C00035004  -0.970   3.657   6.514
   50SBC   C01U35005  -1.084   3.734   6.544
   50SBC   H00235006  -1.096   3.830   6.592
   50SBC   C01T35007  -1.196   3.665   6.477
   50SBC   O00235008  -1.309   3.707   6.455
   50SBC   O00135009  -1.155   3.545   6.428
   50SBC   C01S35010  -0.747   3.590   6.480
   50SBC   C00N35011  -0.460   3.803   6.537
   50SBC   C00M35012  -0.437   3.929   6.605
   50SBC   C00J35013  -0.529   3.975   6.699
   50SBC   C00I35014  -0.551   4.108   6.731
   50SBC   C00H35015  -0.666   4.157   6.797
   50SBC   C00G35016  -0.770   4.071   6.823
   50SBC   C00F35017  -0.896   4.108   6.862
   50SBC   C01X35018  -0.688   4.286   6.822
   50SBC   C01W35019  -0.585   4.373   6.792
   50SBC   C01V35020  -0.474   4.331   6.717
   50SBC   C02035021  -0.386   4.424   6.655
   50SBC   C01Z35022  -0.612   4.508   6.805
   50SBC   C02Y35023  -0.529   4.593   6.745
   50SBC   C03935024  -0.562   4.724   6.751
   50SBC   C02W35025  -0.724   4.559   6.871
   50SBC   C01Y35026  -0.808   4.330   6.879
   50SBC   C00U35027  -0.456   4.197   6.690
   50SBC   C00S35028  -0.357   4.158   6.598
   50SBC   C00T35029  -0.275   4.250   6.536
   50SBC   C00R35030  -0.347   4.026   6.559
   50SBC   C00Q35031  -0.257   3.988   6.460
   50SBC   C00V35032  -0.173   4.082   6.398
   50SBC   C02435033  -0.091   4.045   6.292
   50SBC   C00X35034  -0.079   3.911   6.263
   50SBC   C00P35035  -0.255   3.856   6.425
   50SBC   C00O35036  -0.368   3.769   6.448
   50SBC   C00K35037  -0.641   3.894   6.728
   50SBC   N00035038  -0.843   3.666   6.561
   50SBC   C00L35039  -0.760   3.944   6.776
   50SBC   H00435040  -1.376   3.548   6.947
   50SBC   C02Q35041  -1.204   3.832   6.910
   50SBC   C00E35042  -0.999   4.016   6.869
   50SBC   C03035043  -1.258   4.251   7.007
   50SBC   O00335044  -1.276   4.381   7.039
   50SBC   C02S35045  -0.918   4.243   6.886
   50SBC   C03835046  -1.162   4.463   7.036
   50SBC   C03L35047  -1.176   4.590   7.087
   50SBC   H00835048  -1.257   4.610   7.155
   50SBC   C02V35049  -0.822   4.468   6.905
   50SBC   C03K35050  -1.072   4.686   7.071
   50SBC   C0BK35051  -1.067   4.815   7.131
   50SBC   H00T35052  -1.142   4.836   7.205
   50SBC   C03H35053  -0.751   4.697   6.893
   50SBC   C0BL35054  -0.964   4.909   7.116
   50SBC   C0GU35055  -0.964   5.031   7.189
   50SBC   H01O35056  -1.046   5.057   7.255
   50SBC   C0GT35057  -0.867   5.130   7.177
   50SBC   H01P35058  -0.873   5.221   7.236
   50SBC   C0GS35059  -0.775   5.114   7.077
   50SBC   C0GV35060  -0.683   5.211   7.026
   50SBC   C0GW35061  -0.657   5.345   7.063
   50SBC   H01Q35062  -0.711   5.399   7.140
   50SBC   C0GX35063  -0.557   5.405   7.001
   50SBC   H01R35064  -0.536   5.507   7.032
   50SBC   O00L35065  -0.485   5.352   6.893
   50SBC   C0GQ35066  -0.612   5.148   6.927
   50SBC   C03A35067  -0.667   4.786   6.821
   50SBC   C05L35068  -0.517   5.224   6.851
   50SBC   C04W35069  -0.208   5.317   6.344
   50SBC   C05I35070  -0.186   5.407   6.244
   50SBC   C05O35071  -0.231   5.533   6.252
   50SBC   C05235072  -0.124   5.366   6.123
   50SBC   C04V35073  -0.161   5.188   6.322
   50SBC   C04U35074  -0.091   5.145   6.203
   50SBC   N00935075  -0.296   5.578   6.366
   50SBC   C0GP35076  -0.217   5.624   6.143
   50SBC   C05W35077  -0.154   5.586   6.024
   50SBC   C07D35078  -0.042   5.747   5.711
   50SBC   C06J35079   0.061   5.484   5.681
   50SBC   C05P35080  -0.109   5.456   6.016
   50SBC   C05R35081   0.073   5.257   5.764
   50SBC   C04Z35082  -0.075   5.238   6.102
   50SBC   C04C35083   0.090   5.032   5.852
   50SBC   C04G35084   0.089   4.799   5.923
   50SBC   C04J35085   0.032   4.601   6.107
   50SBC   C04T35086  -0.056   5.011   6.180
   50SBC   N00335087  -0.194   5.088   6.412
   50SBC   C04P35088  -0.335   5.016   6.594
   50SBC   C03D35089  -0.480   4.819   6.697
   50SBC   C02135090  -0.413   4.558   6.670
   50SBC   C03F35091  -0.175   4.715   6.446
   50SBC   C02235092  -0.288   4.383   6.565
   50SBC   C02A35093  -0.073   4.545   6.313
   50SBC   C02335094  -0.189   4.213   6.428
   50SBC   C02535095  -0.033   4.140   6.211
   50SBC   C02D35096   0.019   4.100   6.095
   50SBC   C02E35097   0.023   3.965   6.055
   50SBC   C02N35098   0.069   3.925   5.923
   50SBC   C04N35099  -0.011   4.508   6.194
   50SBC   C02P35100   0.069   4.196   6.006
   50SBC   C04I35101   0.078   4.571   5.983
   50SBC   C04435102   0.170   4.495   5.729
   50SBC   C04335103   0.112   4.157   5.878
   50SBC   C05N35104   0.110   4.023   5.835
   50SBC   C09U35105   0.207   3.934   5.436
   50SBC   C09V35106   0.229   3.914   5.297
   50SBC   C09X35107   0.232   3.786   5.241
   50SBC   C09Y35108   0.244   3.751   5.109
   50SBC   C0A135109   0.268   3.858   5.023
   50SBC   C0A235110   0.272   3.987   5.072
   50SBC   C0A435111   0.319   4.085   4.988
   50SBC   C07135112   0.338   4.217   5.035
   50SBC   C0A535113   0.385   4.320   4.955
   50SBC   C0A935114   0.416   4.288   4.826
   50SBC   C0A835115   0.403   4.160   4.776
   50SBC   C0AP35116   0.455   4.127   4.653
   50SBC   C0BY35117   0.439   3.994   4.609
   50SBC   C0BX35118   0.386   3.891   4.679
   50SBC   C0C235119   0.374   3.763   4.625
   50SBC   C0C335120   0.318   3.662   4.704
   50SBC   C0CT35121   0.289   3.691   4.835
   50SBC   C0C135122   0.422   3.736   4.492
   50SBC   C0C035123   0.498   3.841   4.424
   50SBC   C0A735124   0.342   3.926   4.807
   50SBC   C0BZ35125   0.498   3.967   4.486
   50SBC   C0BO35126   0.577   4.058   4.418
   50SBC   C0BN35127   0.588   4.191   4.462
   50SBC   C0BM35128   0.671   4.270   4.390
   50SBC   C0B935129   0.679   4.401   4.430
   50SBC   C0B835130   0.611   4.446   4.543
   50SBC   C0AD35131   0.536   4.348   4.623
   50SBC   C0AF35132   0.627   4.575   4.588
   50SBC   C0AG35133   0.697   4.673   4.518
   50SBC   C0B735134   0.774   4.623   4.412
   50SBC   C0AE35135   0.568   4.603   4.704
   50SBC   C0AB35136   0.504   4.508   4.791
   50SBC   C0AA35137   0.458   4.544   4.924
   50SBC   C0AJ35138   0.585   4.727   4.760
   50SBC   C0AK35139   0.537   4.760   4.885
   50SBC   C06W35140   0.567   4.885   4.906
   50SBC   C0AI35141   0.648   4.833   4.694
   50SBC   C0BP35142   0.631   4.007   4.303
   50SBC   C0BQ35143   0.707   4.092   4.222
   50SBC   C0BW35144   0.522   4.223   4.576
   50SBC   C0AC35145   0.482   4.381   4.746
   50SBC   C0A635146   0.345   4.057   4.851
   50SBC   C0A335147   0.297   3.823   4.886
   50SBC   C09Z35148   0.249   3.621   5.064
   50SBC   C09W35149   0.251   4.016   5.207
   50SBC   C07235150   0.264   4.144   5.256
   50SBC   C09H35151   0.237   3.688   5.335
   50SBC   C09G35152   0.248   3.558   5.292
   50SBC   C09P35153   0.235   3.478   5.398
   50SBC   C02O35154   0.099   3.608   5.735
   50SBC   C02M35155   0.060   3.792   5.884
   50SBC   C02F35156  -0.027   3.871   6.140
   50SBC   C00W35157  -0.164   3.823   6.331
   50SBC   C01R35158  -0.397   3.649   6.378
   50SBC   C01N35159  -0.157   3.536   6.131
   50SBC   C01L35160  -0.215   3.371   5.968
   50SBC   C01H35161  -0.480   3.139   5.948
   50SBC   C01K35162  -0.494   3.407   6.200
   50SBC   C01E35163  -0.743   3.313   6.228
   50SBC   C01G35164  -0.610   3.073   5.971
   50SBC   C01D35165  -0.873   3.268   6.240
   50SBC   C01A35166  -1.128   3.153   6.301
   50SBC   H00135167  -1.220   3.105   6.331
   50SBC   C01F35168  -0.856   2.949   6.054
   50SBC   C03P35169  -0.938   2.694   5.955
   50SBC   C03T35170  -0.752   2.693   5.810
   50SBC   C08I35171  -0.598   2.604   5.595
   50SBC   C08J35172  -0.515   2.571   5.490
   50SBC   C08L35173  -0.335   2.629   5.331
   50SBC   C09335174  -0.155   2.703   5.163
   50SBC   C08Z35175  -0.080   2.896   5.355
   50SBC   C09T35176   0.120   3.003   4.927
   50SBC   C09S35177   0.145   3.075   5.286
   50SBC   C09Q35178   0.217   3.341   5.372
   50SBC   C09F35179   0.256   3.526   5.155
   50SBC   C09E35180   0.232   3.217   4.981
   50SBC   C0A035181   0.258   3.590   4.930
   50SBC   C0CU35182   0.310   3.532   4.652
   50SBC   C0CR35183   0.345   3.508   4.518
   50SBC   C0CZ35184   0.334   3.377   4.464
   50SBC   C0DA35185   0.179   3.133   4.875
   50SBC   C0D935186   0.334   2.965   4.628
   50SBC   H00V35187   0.367   2.912   4.716
   50SBC   C0CY35188   0.284   3.281   4.552
   50SBC   C0DF35189   0.396   2.968   4.494
   50SBC   C0DE35190   0.506   2.922   4.412
   50SBC   C0GI35191   0.584   2.800   4.414
   50SBC   H01K35192   0.573   2.719   4.486
   50SBC   C0GJ35193   0.679   2.789   4.316
   50SBC   H01J35194   0.742   2.702   4.317
   50SBC   O00I35195   0.702   2.887   4.219
   50SBC   C0GH35196   0.633   3.004   4.214
   50SBC   C0GG35197   0.674   3.102   4.122
   50SBC   O00G35198   0.785   3.069   4.047
   50SBC   C0G835199   0.825   3.148   3.938
   50SBC   C0G935200   0.895   3.089   3.835
   50SBC   H01G35201   0.926   2.986   3.851
   50SBC   C0GA35202   0.928   3.165   3.718
   50SBC   H01H35203   0.973   3.112   3.636
   50SBC   C0GB35204   0.906   3.303   3.715
   50SBC   C0EP35205   0.851   3.363   3.832
   50SBC   C0E835206   0.862   3.505   3.840
   50SBC   C0CK35207   0.832   3.606   3.932
   50SBC   C0CL35208   0.698   3.587   3.980
   50SBC   C0E935209   0.635   3.462   4.010
   50SBC   C0GE35210   0.684   3.325   4.015
   50SBC   C0E735211   0.870   3.579   3.714
   50SBC   C0CJ35212   0.848   3.716   3.729
   50SBC   C0E635213   0.839   3.795   3.617
   50SBC   H00Y35214   0.820   3.901   3.617
   50SBC   C0EO35215   0.852   3.726   3.491
   50SBC   H01135216   0.853   3.783   3.400
   50SBC   C0G635217   0.875   3.588   3.476
   50SBC   C0G535218   0.892   3.514   3.348
   50SBC   H01F35219   0.884   3.567   3.255
   50SBC   C0GD35220   0.940   3.390   3.353
   50SBC   H01I35221   0.961   3.344   3.258
   50SBC   O00H35222   0.947   3.320   3.469
   50SBC   C0EQ35223   0.888   3.507   3.595
   50SBC   C0GC35224   0.924   3.376   3.590
   50SBC   C0G735225   0.786   3.285   3.929
   50SBC   C0DD35226   0.525   3.015   4.304
   50SBC   C0GF35227   0.612   3.232   4.096
   50SBC   C0CO35228   0.508   3.499   4.053
   50SBC   C0D035229   0.370   3.358   4.331
   50SBC   C0C435230   0.388   3.616   4.433
   50SBC   C0CN35231   0.493   3.637   4.061
   50SBC   C0CP35232   0.576   3.870   4.304
   50SBC   C0CM35233   0.608   3.697   4.000
   50SBC   C0CI35234   0.849   3.738   3.873
   50SBC   C0CD35235   1.024   4.184   3.867
   50SBC   C0BR35236   0.774   4.037   4.108
   50SBC   C0CS35237   0.727   4.221   4.273
   50SBC   C0B635238   0.760   4.492   4.359
   50SBC   C0CG35239   0.972   4.354   4.031
   50SBC   C0CF35240   1.037   4.315   3.916
   50SBC   C0E535241   1.154   4.241   3.673
   50SBC   C0DT35242   1.287   4.432   3.524
   50SBC   C0DL35243   1.204   4.631   3.816
   50SBC   C0DM35244   1.218   4.762   3.859
   50SBC   C0DY35245   1.353   4.816   3.664
   50SBC   C0DU35246   1.364   4.523   3.455
   50SBC   C0F035247   1.447   4.589   3.239
   50SBC   C0F435248   1.464   4.790   3.058
   50SBC   C0FG35249   1.530   4.952   3.378
   50SBC   O00B35250   1.472   5.037   3.030
   50SBC   C0FN35251   1.522   5.082   3.395
   50SBC   C0DZ35252   1.415   4.907   3.583
   50SBC   O00C35253   1.335   5.218   3.760
   50SBC   C0FR35254   1.295   5.264   3.881
   50SBC   O00D35255   1.308   5.383   3.900
   50SBC   C0E035256   1.286   4.858   3.779
   50SBC   C0E335257   1.229   5.169   3.972
   50SBC   C0AW35258   1.161   5.211   4.086
   50SBC   C0AV35259   1.153   5.343   4.137
   50SBC   H00Q35260   1.203   5.427   4.090
   50SBC   C0AU35261   1.078   5.374   4.253
   50SBC   H00R35262   1.078   5.478   4.282
   50SBC   C0AT35263   1.006   5.276   4.317
   50SBC   C0AS35264   0.932   5.263   4.439
   50SBC   C0AR35265   0.919   5.373   4.529
   50SBC   C0BE35266   1.017   5.149   4.270
   50SBC   C0DN35267   1.145   4.802   3.970
   50SBC   C0AX35268   1.092   5.112   4.152
   50SBC   C0BB35269   0.996   4.758   4.155
   50SBC   C0BD35270   0.939   5.060   4.343
   50SBC   C0B235271   0.850   4.712   4.342
   50SBC   C0AH35272   0.711   4.807   4.566
   50SBC   C0BF35273   0.887   5.124   4.459
   50SBC   C0AL35274   0.646   4.939   4.795
   50SBC   C07U35275   0.766   5.268   4.698
   50SBC   C0AQ35276   0.827   5.372   4.632
   50SBC   C0BG35277   0.968   5.507   4.513
   50SBC   C0FY35278   0.934   5.767   4.763
   50SBC   C0BJ35279   1.100   5.550   4.538
   50SBC   H00S35280   1.194   5.502   4.512
   50SBC   C0FZ35281   1.062   5.818   4.787
   50SBC   C07S35282   0.852   5.742   4.874
   50SBC   C0G135283   1.021   5.987   5.105
   50SBC   C07K35284   0.733   5.899   5.325
   50SBC   C07H35285   0.693   5.716   5.106
   50SBC   C06B35286   0.364   5.721   5.241
   50SBC   C06N35287   0.356   5.497   5.280
   50SBC   C06635288   0.637   5.482   4.996
   50SBC   C06235289   0.577   5.182   5.011
   50SBC   C05Y35290   0.352   5.247   5.327
   50SBC   C06135291   0.566   5.064   5.082
   50SBC   C05H35292   0.346   4.909   5.312
   50SBC   C06V35293   0.530   4.939   5.023
   50SBC   C06Y35294   0.476   4.669   4.967
   50SBC   C05C35295   0.331   4.637   5.304
   50SBC   C06Z35296   0.407   4.449   5.004
   50SBC   C07035297   0.303   4.248   5.167
   50SBC   C05B35298   0.285   4.534   5.387
   50SBC   C05735299   0.219   4.328   5.565
   50SBC   C05935300   0.246   4.170   5.392
   51SBC   C05835301   4.708   4.553   8.929
   51SBC   C05A35302   4.778   4.436   8.961
   51SBC   C06Q35303   4.916   4.430   8.939
   51SBC   C06R35304   4.983   4.312   8.968
   51SBC   C06S35305   4.922   4.202   9.037
   51SBC   C06T35306   5.004   4.094   9.084
   51SBC   C06U35307   4.968   3.973   9.165
   51SBC   C06X35308   4.849   3.925   9.218
   51SBC   C06035309   4.878   3.816   9.302
   51SBC   C05Z35310   4.799   3.696   9.325
   51SBC   C06835311   4.904   3.585   9.330
   51SBC   C06735312   4.883   3.440   9.355
   51SBC   C06935313   4.761   3.399   9.418
   51SBC   C06A35314   4.736   3.266   9.468
   51SBC   C07335315   4.743   3.153   9.382
   51SBC   C07P35316   4.628   3.082   9.348
   51SBC   C07O35317   4.496   3.130   9.333
   51SBC   H00D35318   4.474   3.236   9.339
   51SBC   C07N35319   4.382   3.044   9.331
   51SBC   H00E35320   4.281   3.079   9.345
   51SBC   C07M35321   4.402   2.906   9.321
   51SBC   H00F35322   4.317   2.839   9.320
   51SBC   C07L35323   4.534   2.854   9.327
   51SBC   C07Q35324   4.561   2.713   9.319
   51SBC   H00G35325   4.480   2.645   9.297
   51SBC   O00F35326   4.691   2.657   9.315
   51SBC   C07J35327   4.790   2.756   9.309
   51SBC   C07I35328   4.769   2.892   9.331
   51SBC   N00435329   4.885   2.973   9.332
   51SBC   C07R35330   5.015   2.918   9.338
   51SBC   C07T35331   5.029   2.785   9.292
   51SBC   C0FX35332   5.149   2.726   9.248
   51SBC   C0FW35333   5.166   2.609   9.179
   51SBC   C0G035334   5.048   2.535   9.167
   51SBC   C0G235335   5.045   2.409   9.107
   51SBC   H01E35336   4.955   2.349   9.105
   51SBC   C0G335337   5.164   2.364   9.048
   51SBC   H01C35338   5.165   2.265   9.005
   51SBC   C0G435339   5.279   2.449   9.039
   51SBC   H01D35340   5.361   2.416   8.977
   51SBC   O00E35341   4.930   2.577   9.232
   51SBC   C0FV35342   5.286   2.573   9.112
   51SBC   C0FU35343   5.397   2.665   9.132
   51SBC   H01B35344   5.498   2.657   9.096
   51SBC   C0FT35345   5.384   2.778   9.220
   51SBC   C0FS35346   5.452   2.901   9.245
   51SBC   C0BI35347   5.382   2.967   9.351
   51SBC   C0BH35348   5.427   3.104   9.355
   51SBC   C07F35349   5.344   3.216   9.326
   51SBC   C07E35350   5.203   3.231   9.343
   51SBC   C07G35351   5.111   3.137   9.363
   51SBC   C07435352   4.987   3.195   9.365
   51SBC   C06535353   5.133   3.349   9.322
   51SBC   C06435354   5.208   3.452   9.263
   51SBC   C06335355   5.165   3.583   9.245
   51SBC   C07535356   5.287   3.643   9.178
   51SBC   C0AM35357   5.406   3.554   9.162
   51SBC   C0AN35358   5.544   3.571   9.101
   51SBC   C0AO35359   5.603   3.693   9.038
   51SBC   C0B135360   5.734   3.692   8.978
   51SBC   C0B035361   5.805   3.574   8.959
   51SBC   C0AZ35362   5.935   3.562   8.898
   51SBC   C0AY35363   5.998   3.438   8.896
   51SBC   N00735364   6.132   3.427   8.861
   51SBC   C0E235365   6.201   3.303   8.875
   51SBC   C0E135366   6.339   3.306   8.851
   51SBC   C0E435367   6.404   3.183   8.857
   51SBC   C0FF35368   6.547   3.179   8.867
   51SBC   C0FJ35369   6.649   3.079   8.868
   51SBC   C0FK35370   6.643   2.964   8.789
   51SBC   H01635371   6.556   2.909   8.755
   51SBC   C0FL35372   6.785   2.923   8.765
   51SBC   H01735373   6.827   2.843   8.705
   51SBC   C0FM35374   6.873   3.017   8.829
   51SBC   C0FH35375   7.007   3.082   8.833
   51SBC   C0FI35376   6.978   3.213   8.878
   51SBC   C0F335377   7.038   3.326   8.819
   51SBC   C0F235378   6.957   3.433   8.822
   51SBC   C0DW35379   6.821   3.442   8.847
   51SBC   C0FE35380   6.756   3.329   8.885
   51SBC   C0DV35381   6.749   3.549   8.811
   51SBC   C0DX35382   6.612   3.547   8.813
   51SBC   C0DK35383   6.545   3.659   8.776
   51SBC   C0DJ35384   6.608   3.779   8.741
   51SBC   C0DI35385   6.541   3.894   8.708
   51SBC   C0DH35386   6.404   3.899   8.739
   51SBC   C0DG35387   6.340   3.781   8.767
   51SBC   C0BV35388   6.204   3.788   8.801
   51SBC   C0BC35389   6.138   3.667   8.829
   51SBC   C0BA35390   6.134   3.910   8.799
   51SBC   C0B435391   5.998   3.909   8.826
   51SBC   C0B335392   5.931   3.795   8.869
   51SBC   C0B535393   5.931   4.032   8.827
   51SBC   C0BU35394   6.004   4.152   8.796
   51SBC   C0BT35395   6.136   4.152   8.765
   51SBC   C0BS35396   6.215   4.272   8.752
   51SBC   C0CC35397   6.349   4.259   8.714
   51SBC   C0CB35398   6.427   4.380   8.695
   51SBC   C0CH35399   6.539   4.363   8.613
   51SBC   C0DO35400   6.602   4.233   8.598
   51SBC   C0DP35401   6.726   4.211   8.536
   51SBC   C0EA35402   6.787   4.324   8.462
   51SBC   H01235403   6.733   4.417   8.460
   51SBC   O00935404   6.909   4.312   8.398
   51SBC   C0EH35405   6.978   4.195   8.426
   51SBC   C0EG35406   7.102   4.176   8.362
   51SBC   C0EJ35407   7.184   4.259   8.279
   51SBC   H01035408   7.159   4.356   8.238
   51SBC   C0EK35409   7.305   4.189   8.242
   51SBC   H00Z35410   7.378   4.235   8.178
   51SBC   C0EL35411   7.291   4.061   8.301
   51SBC   C0EM35412   7.375   3.946   8.311
   51SBC   C0EW35413   7.507   3.932   8.259
   51SBC   H01335414   7.545   4.006   8.191
   51SBC   C0EX35415   7.589   3.812   8.287
   51SBC   H01435416   7.694   3.800   8.264
   51SBC   C0F135417   7.533   3.703   8.361
   51SBC   C0EU35418   7.404   3.721   8.411
   51SBC   C0ET35419   7.342   3.636   8.503
   51SBC   C0ES35420   7.232   3.714   8.537
   51SBC   C0EE35421   7.220   3.837   8.470
   51SBC   C0ED35422   7.137   3.956   8.465
   51SBC   C0EC35423   7.008   3.972   8.534
   51SBC   C0EB35424   6.950   3.876   8.619
   51SBC   C0EN35425   7.018   3.752   8.662
   51SBC   C0ER35426   6.946   3.664   8.748
   51SBC   C0DS35427   6.820   3.881   8.660
   51SBC   C0DR35428   6.745   3.993   8.630
   51SBC   C0EY35429   7.138   3.681   8.636
   51SBC   C0EZ35430   7.133   3.545   8.688
   51SBC   C0F535431   7.210   3.419   8.676
   51SBC   C0F635432   7.340   3.405   8.619
   51SBC   N00835433   7.407   3.280   8.633
   51SBC   C0F735434   7.339   3.169   8.694
   51SBC   C0FQ35435   7.413   3.049   8.704
   51SBC   H01835436   7.367   2.972   8.764
   51SBC   C0FP35437   7.543   3.038   8.655
   51SBC   H01935438   7.590   2.940   8.654
   51SBC   C0FO35439   7.603   3.142   8.579
   51SBC   H01A35440   7.694   3.122   8.523
   51SBC   C0F835441   7.207   3.179   8.740
   51SBC   C0F935442   7.532   3.264   8.565
   51SBC   C0FA35443   7.597   3.367   8.493
   51SBC   H01535444   7.688   3.347   8.438
   51SBC   C0FB35445   7.529   3.490   8.476
   51SBC   C0FD35446   7.402   3.504   8.536
   51SBC   C0FC35447   7.603   3.585   8.395
   51SBC   O00A35448   7.717   3.570   8.362
   51SBC   C0EV35449   7.331   3.840   8.390
   51SBC   C0EF35450   7.177   4.064   8.384
   51SBC   C0EI35451   6.928   4.084   8.508
   51SBC   C0DQ35452   6.802   4.097   8.556
   51SBC   C0CE35453   6.544   4.124   8.655
   51SBC   H00U35454   6.582   4.454   8.576
   51SBC   C0CA35455   6.380   4.504   8.744
   51SBC   C0C935456   6.239   4.517   8.773
   51SBC   C0C835457   6.188   4.641   8.833
   51SBC   C0C735458   6.055   4.701   8.840
   51SBC   C0C635459   6.050   4.828   8.906
   51SBC   C0C535460   5.962   4.948   8.901
   51SBC   C0CQ35461   6.026   5.073   8.922
   51SBC   C0D135462   6.164   5.074   8.923
   51SBC   C0D835463   6.206   5.188   8.856
   51SBC   C0D735464   6.098   5.278   8.860
   51SBC   C0D635465   6.094   5.409   8.809
   51SBC   C0D535466   5.972   5.489   8.810
   51SBC   C0D435467   5.837   5.471   8.850
   51SBC   C0D335468   5.752   5.552   8.766
   51SBC   C0CX35469   5.626   5.490   8.751
   51SBC   C0CW35470   5.646   5.350   8.776
   51SBC   C0CV35471   5.565   5.229   8.775
   51SBC   C0D235472   5.429   5.233   8.748
   51SBC   C09D35473   5.348   5.351   8.720
   51SBC   C09C35474   5.212   5.344   8.689
   51SBC   C09B35475   5.122   5.449   8.673
   51SBC   C09A35476   5.183   5.580   8.671
   51SBC   C09935477   5.314   5.598   8.663
   51SBC   C09835478   5.344   5.729   8.705
   51SBC   C08Y35479   5.218   5.785   8.759
   51SBC   C08X35480   5.193   5.903   8.840
   51SBC   C08W35481   5.306   5.980   8.895
   51SBC   C08U35482   5.450   5.935   8.897
   51SBC   C08V35483   5.525   5.819   8.857
   51SBC   C0DC35484   5.664   5.847   8.883
   51SBC   H00W35485   5.744   5.781   8.855
   51SBC   C0DB35486   5.678   5.975   8.943
   51SBC   H00X35487   5.771   6.020   8.975
   51SBC   C08T35488   5.545   6.026   8.951
   51SBC   C08S35489   5.513   6.149   9.008
   51SBC   H00N35490   5.585   6.221   9.045
   51SBC   C08R35491   5.377   6.184   9.021
   51SBC   C08Q35492   5.332   6.299   9.095
   51SBC   H00O35493   5.415   6.358   9.131
   51SBC   C08P35494   5.200   6.340   9.119
   51SBC   C08O35495   5.155   6.457   9.189
   51SBC   H00P35496   5.233   6.524   9.223
   51SBC   C08N35497   5.017   6.485   9.216
   51SBC   C08M35498   4.979   6.600   9.297
   51SBC   O00835499   5.059   6.676   9.348
   51SBC   O00735500   4.845   6.619   9.312
   51SBC   C08H35501   4.748   6.532   9.269
   51SBC   C08G35502   4.610   6.552   9.298
   51SBC   C03V35503   4.552   6.662   9.366
   51SBC   H00935504   4.617   6.739   9.404
   51SBC   C03U35505   4.415   6.671   9.380
   51SBC   C03W35506   4.342   6.777   9.446
   51SBC   H00A35507   4.394   6.857   9.498
   51SBC   C03X35508   4.210   6.774   9.458
   51SBC   H00B35509   4.167   6.857   9.513
   51SBC   O00535510   4.126   6.679   9.407
   51SBC   C03O35511   4.192   6.575   9.343
   51SBC   C03N35512   4.107   6.466   9.309
   51SBC   O00035513   3.976   6.487   9.324
   51SBC   C01935514   3.905   6.374   9.321
   51SBC   C01835515   3.951   6.258   9.254
   51SBC   C01735516   4.084   6.250   9.204
   51SBC   C01635517   4.134   6.143   9.132
   51SBC   C01535518   4.033   6.048   9.115
   51SBC   C01435519   4.076   5.935   9.043
   51SBC   C01335520   4.212   5.912   9.003
   51SBC   C01235521   4.205   5.779   8.942
   51SBC   C01135522   4.068   5.741   8.946
   51SBC   C01035523   4.033   5.618   8.896
   51SBC   C00Z35524   3.916   5.549   8.921
   51SBC   C00Y35525   3.949   5.415   8.884
   51SBC   C01O35526   4.074   5.400   8.831
   51SBC   C01P35527   4.150   5.284   8.848
   51SBC   C02L35528   4.288   5.296   8.843
   51SBC   C02K35529   4.340   5.427   8.834
   51SBC   C01M35530   4.261   5.551   8.856
   51SBC   C02J35531   4.476   5.423   8.792
   51SBC   C02I35532   4.559   5.534   8.779
   51SBC   C02H35533   4.541   5.667   8.813
   51SBC   C01Q35534   4.430   5.735   8.862
   51SBC   C02G35535   4.481   5.864   8.905
   51SBC   C08935536   4.610   5.880   8.847
   51SBC   C08835537   4.684   5.973   8.912
   51SBC   C08735538   4.574   6.056   8.974
   51SBC   C08635539   4.600   6.160   9.064
   51SBC   C03S35540   4.498   6.250   9.112
   51SBC   N00635541   4.570   6.356   9.167
   51SBC   C08F35542   4.699   6.337   9.156
   51SBC   C01J35543   4.357   6.250   9.134
   51SBC   C03R35544   4.299   6.361   9.199
   51SBC   C03Q35545   4.384   6.457   9.257
   51SBC   C08E35546   4.726   6.227   9.080
   51SBC   C08D35547   4.860   6.191   9.055
   51SBC   C08K35548   4.963   6.283   9.097
   51SBC   C08C35549   4.906   6.085   8.971
   51SBC   C09135550   5.040   6.061   8.952
   51SBC   C09235551   5.147   6.140   9.000
   51SBC   C08B35552   4.825   5.990   8.899
   51SBC   C09035553   4.926   5.902   8.827
   51SBC   C09435554   4.893   5.789   8.749
   51SBC   C09535555   4.980   5.689   8.714
   51SBC   C09R35556   4.921   5.564   8.685
   51SBC   C09735557   4.787   5.582   8.721
   51SBC   C09635558   4.775   5.715   8.758
   51SBC   C01I35559   4.441   5.984   8.972
   51SBC   C08A35560   4.650   5.756   8.802
   51SBC   C09L35561   4.681   5.490   8.735
   51SBC   C09K35562   4.675   5.345   8.715
   51SBC   C09J35563   4.788   5.269   8.710
   51SBC   C09I35564   4.796   5.134   8.753
   51SBC   C09O35565   4.712   5.029   8.798
   51SBC   C09N35566   4.569   5.044   8.815
   51SBC   C09M35567   4.494   5.169   8.809
   51SBC   C06O35568   4.499   4.925   8.857
   51SBC   C05M35569   4.573   4.803   8.875
   51SBC   C06P35570   4.709   4.791   8.852
   51SBC   C04235571   4.502   4.692   8.927
   51SBC   C04135572   4.360   4.699   8.950
   51SBC   C04035573   4.294   4.586   8.999
   51SBC   C03Z35574   4.161   4.594   9.039
   51SBC   C03Y35575   4.091   4.712   9.021
   51SBC   C02735576   3.959   4.715   9.059
   51SBC   C02635577   3.891   4.836   9.047
   51SBC   C02835578   3.764   4.853   9.100
   51SBC   C02935579   3.702   4.746   9.158
   51SBC   C02B35580   3.571   4.758   9.207
   51SBC   C02C35581   3.511   4.653   9.272
   51SBC   C02X35582   3.388   4.670   9.340
   51SBC   C03E35583   3.339   4.564   9.411
   51SBC   C03G35584   3.398   4.440   9.424
   51SBC   C04Q35585   3.527   4.428   9.366
   51SBC   C04R35586   3.594   4.313   9.388
   51SBC   C04S35587   3.724   4.301   9.338
   51SBC   C04L35588   3.784   4.405   9.269
   51SBC   C04M35589   3.714   4.524   9.245
   51SBC   C04K35590   3.914   4.393   9.222
   51SBC   C04F35591   3.984   4.280   9.259
   51SBC   C04E35592   3.926   4.174   9.323
   51SBC   C04D35593   4.002   4.064   9.357
   51SBC   C05035594   3.947   3.961   9.433
   51SBC   C05135595   4.024   3.846   9.462
   51SBC   C05Q35596   3.963   3.737   9.524
   51SBC   C05V35597   4.039   3.621   9.546
   51SBC   N00535598   3.971   3.511   9.601
   51SBC   C07V35599   3.834   3.510   9.624
   51SBC   C08235600   3.767   3.396   9.663
   51SBC   C08135601   3.822   3.267   9.667
   51SBC   C07C35602   3.959   3.270   9.653
   51SBC   C07B35603   4.027   3.147   9.665
   51SBC   C08035604   3.964   3.028   9.705
   51SBC   C07Z35605   4.041   2.915   9.702
   51SBC   H00L35606   3.995   2.818   9.706
   51SBC   C07935607   4.180   2.907   9.685
   51SBC   C07835608   4.246   3.027   9.666
   51SBC   C07735609   4.389   3.032   9.669
   51SBC   C07X35610   4.459   2.912   9.670
   51SBC   H00I35611   4.567   2.907   9.662
   51SBC   C07Y35612   4.396   2.786   9.684
   51SBC   H00H35613   4.448   2.692   9.689
   51SBC   C07635614   4.453   3.155   9.650
   51SBC   C06C35615   4.591   3.155   9.634
   51SBC   H00C35616   4.657   3.070   9.647
   51SBC   C06F35617   4.381   3.270   9.623
   51SBC   C06E35618   4.442   3.385   9.576
   51SBC   C06G35619   4.377   3.496   9.523
   51SBC   C06H35620   4.242   3.499   9.546
   51SBC   C06I35621   4.175   3.385   9.599
   51SBC   C06L35622   4.448   3.601   9.459
   51SBC   C06M35623   4.588   3.590   9.421
   51SBC   C06K35624   4.372   3.714   9.421
   51SBC   C05S35625   4.234   3.722   9.452
   51SBC   C05U35626   4.432   3.813   9.341
   51SBC   C05X35627   4.568   3.805   9.304
   51SBC   C05G35628   4.606   3.923   9.229
   51SBC   C05F35629   4.511   4.017   9.189
   51SBC   C05E35630   4.570   4.124   9.123
   51SBC   C04835631   4.505   4.244   9.092
   51SBC   C05635632   4.575   4.349   9.036
   51SBC   C04535633   4.506   4.468   9.010
   51SBC   C04735634   4.376   4.248   9.130
   51SBC   C04935635   4.312   4.136   9.193
   51SBC   C04B35636   4.186   4.151   9.241
   51SBC   C04635637   4.307   4.362   9.093
   51SBC   C04H35638   4.176   4.371   9.139
   51SBC   C05D35639   4.707   4.106   9.110
   51SBC   C04A35640   4.379   4.021   9.228
   51SBC   C05T35641   4.339   3.920   9.305
   51SBC   C05535642   4.211   3.932   9.352
   51SBC   C06D35643   4.578   3.385   9.552
   51SBC   C07W35644   4.243   3.268   9.629
   51SBC   C08535645   4.258   2.789   9.686
   51SBC   H00M35646   4.208   2.694   9.694
   51SBC   C08435647   3.825   3.030   9.719
   51SBC   H00J35648   3.770   2.939   9.735
   51SBC   C07A35649   4.169   3.147   9.653
   51SBC   C08335650   3.755   3.150   9.698
   51SBC   H00K35651   3.650   3.159   9.721
   51SBC   O00K35652   3.627   3.399   9.674
   51SBC   C0GO35653   3.564   3.517   9.667
   51SBC   C0GN35654   3.427   3.520   9.692
   51SBC   H01L35655   3.378   3.430   9.726
   51SBC   C0GM35656   3.350   3.642   9.687
   51SBC   C0GL35657   3.218   3.639   9.712
   51SBC   H01M35658   3.168   3.545   9.729
   51SBC   O00J35659   3.144   3.759   9.713
   51SBC   C0GK35660   3.211   3.862   9.666
   51SBC   H01N35661   3.144   3.947   9.665
   51SBC   C05K35662   3.344   3.868   9.639
   51SBC   C05J35663   3.407   3.992   9.593
   51SBC   C04Y35664   3.349   4.125   9.590
   51SBC   C04X35665   3.402   4.220   9.511
   51SBC   O00635666   3.231   4.148   9.655
   51SBC   C05335667   3.160   4.267   9.647
   51SBC   C04O35668   3.210   4.371   9.567
   51SBC   C03C35669   3.157   4.504   9.553
   51SBC   C03B35670   3.045   4.575   9.614
   51SBC   C05435671   2.973   4.530   9.724
   51SBC   C0GR35672   2.891   4.617   9.807
   51SBC   C03M35673   2.854   4.762   9.808
   51SBC   C03I35674   2.917   4.867   9.726
   51SBC   C03J35675   2.883   5.001   9.760
   51SBC   N00235676   2.950   5.112   9.694
   51SBC   C02U35677   2.929   5.249   9.735
   51SBC   C02T35678   2.999   5.354   9.676
   51SBC   C02Z35679   2.972   5.484   9.712
   51SBC   N00135680   3.034   5.593   9.650
   51SBC   C02R35681   3.016   5.725   9.705
   51SBC   C03235682   2.939   5.748   9.816
   51SBC   C03135683   2.876   5.637   9.877
   51SBC   H00735684   2.814   5.652   9.964
   51SBC   C03335685   2.920   5.889   9.854
   51SBC   H00335686   2.854   5.912   9.936
   51SBC   O00435687   2.985   5.993   9.792
   51SBC   C03435688   3.057   5.965   9.682
   51SBC   C03535689   3.106   6.073   9.609
   51SBC   C03635690   3.172   6.056   9.486
   51SBC   H00535691   3.192   6.147   9.433
   51SBC   C03735692   3.195   5.925   9.441
   51SBC   H00635693   3.240   5.914   9.344
   51SBC   C00D35694   3.157   5.812   9.524
   51SBC   C00C35695   3.188   5.685   9.483
   51SBC   C00B35696   3.289   5.652   9.382
   51SBC   C00A35697   3.394   5.716   9.294
   51SBC   C00935698   3.444   5.608   9.215
   51SBC   C00835699   3.566   5.599   9.134
   51SBC   C00735700   3.652   5.707   9.144
   51SBC   C00635701   3.775   5.696   9.078
   51SBC   C00535702   3.856   5.815   9.074
   51SBC   C00435703   3.824   5.927   9.153
   51SBC   C00335704   3.703   5.927   9.227
   51SBC   C00235705   3.670   6.034   9.311
   51SBC   C01C35706   3.744   6.148   9.311
   51SBC   C01B35707   3.693   6.270   9.365
   51SBC   H00035708   3.594   6.270   9.409
   51SBC   C00135709   3.579   6.017   9.413
   51SBC   C00035710   3.495   5.901   9.410
   51SBC   C01U35711   3.473   5.877   9.549
   51SBC   H00235712   3.434   5.788   9.596
   51SBC   C01T35713   3.503   6.006   9.622
   51SBC   O00235714   3.469   6.039   9.734
   51SBC   O00135715   3.575   6.081   9.536
   51SBC   C01S35716   3.620   5.816   9.224
   51SBC   C00N35717   3.603   5.472   9.093
   51SBC   C00M35718   3.530   5.357   9.134
   51SBC   C00J35719   3.420   5.367   9.211
   51SBC   C00I35720   3.357   5.263   9.274
   51SBC   C00H35721   3.251   5.286   9.364
   51SBC   C00G35722   3.225   5.412   9.403
   51SBC   C00F35723   3.139   5.436   9.506
   51SBC   C01X35724   3.193   5.179   9.426
   51SBC   C01W35725   3.234   5.049   9.394
   51SBC   C01V35726   3.344   5.027   9.304
   51SBC   C02035727   3.400   4.902   9.289
   51SBC   C01Z35728   3.168   4.945   9.450
   51SBC   C02Y35729   3.217   4.820   9.415
   51SBC   C03935730   3.158   4.712   9.485
   51SBC   C02W35731   3.061   4.959   9.547
   51SBC   C01Y35732   3.095   5.197   9.526
   51SBC   C00U35733   3.404   5.137   9.249
   51SBC   C00S35734   3.521   5.115   9.180
   51SBC   C00T35735   3.580   4.992   9.164
   51SBC   C00R35736   3.581   5.231   9.122
   51SBC   C00Q35737   3.701   5.211   9.051
   51SBC   C00V35738   3.765   5.089   9.045
   51SBC   C02435739   3.889   5.068   8.989
   51SBC   C00X35740   3.949   5.179   8.928
   51SBC   C00P35741   3.769   5.326   9.003
   51SBC   C00O35742   3.724   5.458   9.032
   51SBC   C00K35743   3.374   5.493   9.240
   51SBC   N00035744   3.500   5.808   9.308
   51SBC   C00L35745   3.284   5.519   9.338
   51SBC   H00435746   3.083   6.173   9.643
   51SBC   C02Q35747   3.079   5.830   9.638
   51SBC   C00E35748   3.124   5.571   9.544
   51SBC   C03035749   2.896   5.511   9.825
   51SBC   O00335750   2.826   5.405   9.889
   51SBC   C02S35751   3.076   5.326   9.568
   51SBC   C03835752   2.837   5.278   9.835
   51SBC   C03L35753   2.769   5.173   9.892
   51SBC   H00835754   2.709   5.189   9.980
   51SBC   C02V35755   3.029   5.090   9.578
   51SBC   C03K35756   2.790   5.037   9.858
   51SBC   C0BK35757   2.730   4.929   9.920
   51SBC   H00T35758   2.659   4.963   9.994
   51SBC   C03H35759   3.005   4.849   9.618
   51SBC   C0BL35760   2.764   4.793   9.915
   51SBC   C0GU35761   2.711   4.691   9.998
   51SBC   H01O35762   2.646   4.721  10.078
   51SBC   C0GT35763   2.744   4.557   9.994
   51SBC   H01P35764   2.707   4.482  10.062
   51SBC   C0GS35765   2.831   4.524   9.895
   51SBC   C0GV35766   2.884   4.392   9.876
   51SBC   C0GW35767   2.861   4.272   9.950
   51SBC   H01Q35768   2.803   4.268  10.041
   51SBC   C0GX35769   2.930   4.163   9.912
   51SBC   H01R35770   2.933   4.074   9.973
   51SBC   O00L35771   3.015   4.163   9.802
   51SBC   C0GQ35772   2.975   4.395   9.772
   51SBC   C03A35773   3.058   4.717   9.580
   51SBC   C05L35774   3.051   4.279   9.740
   51SBC   C04W35775   3.540   3.986   9.548
   51SBC   C05I35776   3.619   3.867   9.567
   51SBC   C05O35777   3.560   3.753   9.620
   51SBC   C05235778   3.752   3.856   9.530
   51SBC   C04V35779   3.609   4.090   9.487
   51SBC   C04U35780   3.736   4.079   9.434
   51SBC   N00935781   3.424   3.755   9.648
   51SBC   C0GP35782   3.628   3.633   9.636
   51SBC   C05W35783   3.765   3.628   9.604
   51SBC   C07D35784   4.034   3.386   9.621
   51SBC   C06J35785   4.173   3.616   9.520
   51SBC   C05P35786   3.827   3.741   9.558
   51SBC   C05R35787   4.156   3.834   9.423
   51SBC   C04Z35788   3.810   3.965   9.469
   51SBC   C04C35789   4.132   4.049   9.318
   51SBC   C04G35790   4.115   4.266   9.210
   51SBC   C04J35791   3.973   4.499   9.151
   51SBC   C04T35792   3.794   4.181   9.359
   51SBC   N00335793   3.532   4.205   9.458
   51SBC   C04P35794   3.333   4.346   9.500
   51SBC   C03D35795   3.222   4.591   9.474
   51SBC   C02135796   3.333   4.794   9.340
   51SBC   C03F35797   3.580   4.533   9.290
   51SBC   C02235798   3.513   4.883   9.217
   51SBC   C02A35799   3.769   4.629   9.172
   51SBC   C02335800   3.704   4.978   9.097
   51SBC   C02535801   3.954   4.949   8.993
   51SBC   C02D35802   4.087   4.942   8.949
   51SBC   C02E35803   4.152   5.053   8.900
   51SBC   C02N35804   4.290   5.055   8.872
   51SBC   C04N35805   3.898   4.614   9.129
   51SBC   C02P35806   4.156   4.823   8.969
   51SBC   C04I35807   4.102   4.489   9.107
   51SBC   C04435808   4.368   4.472   9.029
   51SBC   C04335809   4.288   4.816   8.930
   51SBC   C05N35810   4.360   4.930   8.884
   51SBC   C09U35811   4.780   4.905   8.824
   51SBC   C09V35812   4.922   4.891   8.816
   51SBC   C09X35813   5.000   4.996   8.775
   51SBC   C09Y35814   5.141   4.996   8.777
   51SBC   C0A135815   5.206   4.877   8.807
   51SBC   C0A235816   5.131   4.762   8.834
   51SBC   C0A435817   5.193   4.642   8.838
   51SBC   C07135818   5.123   4.533   8.870
   51SBC   C0A535819   5.185   4.414   8.891
   51SBC   C0A935820   5.325   4.406   8.865
   51SBC   C0A835821   5.396   4.520   8.834
   51SBC   C0AP35822   5.530   4.513   8.811
   51SBC   C0BY35823   5.594   4.625   8.778
   51SBC   C0BX35824   5.537   4.750   8.781
   51SBC   C0C235825   5.623   4.866   8.785
   51SBC   C0C335826   5.559   4.987   8.786
   51SBC   C0CT35827   5.417   4.991   8.776
   51SBC   C0C135828   5.766   4.859   8.794
   51SBC   C0C035829   5.820   4.728   8.765
   51SBC   C0A735830   5.405   4.753   8.804
   51SBC   C0BZ35831   5.731   4.622   8.760
   51SBC   C0BO35832   5.796   4.502   8.750
   51SBC   C0BN35833   5.732   4.385   8.798
   51SBC   C0BM35834   5.805   4.269   8.810
   51SBC   C0B935835   5.737   4.160   8.864
   51SBC   C0B835836   5.603   4.166   8.891
   51SBC   C0AD35837   5.533   4.284   8.868
   51SBC   C0AF35838   5.541   4.058   8.947
   51SBC   C0AG35839   5.604   3.937   8.968
   51SBC   C0B735840   5.734   3.926   8.920
   51SBC   C0AE35841   5.409   4.071   8.973
   51SBC   C0AB35842   5.328   4.181   8.944
   51SBC   C0AA35843   5.193   4.187   8.972
   51SBC   C0AJ35844   5.349   3.966   9.035
   51SBC   C0AK35845   5.215   3.978   9.071
   51SBC   C06W35846   5.189   3.867   9.135
   51SBC   C0AI35847   5.405   3.846   9.075
   51SBC   C0BP35848   5.932   4.513   8.753
   51SBC   C0BQ35849   6.011   4.393   8.764
   51SBC   C0BW35850   5.601   4.397   8.825
   51SBC   C0AC35851   5.394   4.289   8.889
   51SBC   C0A635852   5.332   4.642   8.822
   51SBC   C0A335853   5.341   4.875   8.793
   51SBC   C09Z35854   5.216   5.111   8.742
   51SBC   C09W35855   4.990   4.770   8.843
   51SBC   C07235856   4.914   4.658   8.871
   51SBC   C09H35857   4.932   5.106   8.731
   51SBC   C09G35858   5.011   5.217   8.689
   51SBC   C09P35859   4.922   5.317   8.685
   51SBC   C02O35860   4.551   5.300   8.770
   51SBC   C02M35861   4.358   5.173   8.836
   51SBC   C02F35862   4.080   5.170   8.889
   51SBC   C00W35863   3.883   5.299   8.928
   51SBC   C01R35864   3.802   5.574   9.010
   51SBC   C01N35865   4.129   5.524   8.857
   51SBC   C01L35866   4.305   5.686   8.884
   51SBC   C01H35867   4.314   6.015   9.023
   51SBC   C01K35868   3.985   5.826   9.011
   51SBC   C01E35869   3.906   6.037   9.170
   51SBC   C01G35870   4.270   6.142   9.089
   51SBC   C01D35871   3.866   6.145   9.249
   51SBC   C01A35872   3.771   6.391   9.367
   51SBC   H00135873   3.740   6.481   9.417
   51SBC   C01F35874   4.167   6.358   9.233
   51SBC   C03P35875   4.332   6.564   9.323
   51SBC   C03T35876   4.522   6.458   9.244
   51SBC   C08I35877   4.793   6.426   9.195
   51SBC   C08J35878   4.925   6.400   9.166
   51SBC   C08L35879   5.100   6.251   9.076
   51SBC   C09335880   5.276   6.100   8.972
   51SBC   C08Z35881   5.058   5.946   8.871
   51SBC   C09T35882   5.466   5.706   8.781
   51SBC   C09S35883   5.117   5.697   8.705
   51SBC   C09Q35884   4.984   5.441   8.673
   51SBC   C09F35885   5.153   5.222   8.705
   51SBC   C09E35886   5.392   5.491   8.716
   51SBC   C0A035887   5.354   5.114   8.755
   51SBC   C0CU35888   5.635   5.105   8.793
   51SBC   C0CR35889   5.775   5.092   8.824
   51SBC   C0CZ35890   5.846   5.212   8.849
   51SBC   C0DA35891   5.503   5.561   8.762
   51SBC   C0D935892   5.838   5.632   8.675
   51SBC   H00V35893   5.809   5.697   8.594
   51SBC   C0CY35894   5.779   5.338   8.833
   51SBC   C0DF35895   5.974   5.583   8.703
   51SBC   C0DE35896   6.113   5.580   8.655
   51SBC   C0GI35897   6.188   5.664   8.572
   51SBC   H01K35898   6.145   5.753   8.528
   51SBC   C0GJ35899   6.312   5.630   8.547
   51SBC   H01J35900   6.359   5.693   8.473
   51SBC   O00I35901   6.376   5.515   8.585
   51SBC   C0GH35902   6.306   5.431   8.669
   51SBC   C0GG35903   6.374   5.306   8.699
   51SBC   O00G35904   6.499   5.298   8.647
   51SBC   C0G835905   6.585   5.186   8.669
   51SBC   C0G935906   6.720   5.216   8.654
   51SBC   H01G35907   6.752   5.316   8.629
   51SBC   C0GA35908   6.808   5.111   8.669
   51SBC   H01H35909   6.915   5.115   8.661
   51SBC   C0GB35910   6.772   4.982   8.709
   51SBC   C0EP35911   6.633   4.960   8.721
   51SBC   C0E835912   6.584   4.816   8.730
   51SBC   C0CK35913   6.460   4.751   8.743
   51SBC   C0CL35914   6.359   4.811   8.820
   51SBC   C0E935915   6.343   4.952   8.836
   51SBC   C0GE35916   6.403   5.071   8.766
   51SBC   C0E735917   6.678   4.720   8.762
   51SBC   C0CJ35918   6.622   4.594   8.786
   51SBC   C0E635919   6.704   4.490   8.830
   51SBC   H00Y35920   6.667   4.392   8.855
   51SBC   C0EO35921   6.843   4.514   8.837
   51SBC   H01135922   6.914   4.444   8.879
   51SBC   C0G635923   6.898   4.640   8.809
   51SBC   C0G535924   7.042   4.677   8.815
   51SBC   H01F35925   7.112   4.600   8.847
   51SBC   C0GD35926   7.082   4.797   8.776
   51SBC   H01I35927   7.184   4.832   8.777
   51SBC   O00H35928   6.993   4.897   8.733
   51SBC   C0EQ35929   6.812   4.749   8.773
   51SBC   C0GC35930   6.861   4.872   8.734
   51SBC   C0G735931   6.538   5.066   8.719
   51SBC   C0DD35932   6.180   5.464   8.710
   51SBC   C0GF35933   6.330   5.195   8.777
   51SBC   C0CO35934   6.236   4.962   8.918
   51SBC   C0D035935   5.987   5.191   8.868
   51SBC   C0C435936   5.840   4.963   8.834
   51SBC   C0CN35937   6.182   4.839   8.955
   51SBC   C0CP35938   5.949   4.656   8.762
   51SBC   C0CM35939   6.268   4.738   8.902
   51SBC   C0CI35940   6.482   4.610   8.752
   51SBC   C0CD35941   6.410   4.133   8.694
   51SBC   C0BR35942   6.156   4.397   8.764
   51SBC   C0CS35943   5.937   4.273   8.779
   51SBC   C0B635944   5.802   4.036   8.866
   51SBC   C0CG35945   6.201   4.028   8.763
   51SBC   C0CF35946   6.336   4.019   8.728
   51SBC   C0E535947   6.615   4.003   8.667
   51SBC   C0DT35948   6.748   3.780   8.727
   51SBC   C0DL35949   6.406   3.661   8.779
   51SBC   C0DM35950   6.339   3.539   8.803
   51SBC   C0DY35951   6.544   3.426   8.839
   51SBC   C0DU35952   6.809   3.666   8.767
   51SBC   C0F035953   7.019   3.548   8.764
   51SBC   C0F435954   7.158   3.312   8.750
   51SBC   C0FG35955   6.838   3.218   8.910
   51SBC   O00B35956   7.124   3.064   8.768
   51SBC   C0FN35957   6.784   3.094   8.903
   51SBC   C0DZ35958   6.613   3.310   8.872
   51SBC   O00C35959   6.332   3.069   8.871
   51SBC   C0FR35960   6.216   3.063   8.923
   51SBC   O00D35961   6.175   2.952   8.958
   51SBC   C0E035962   6.408   3.425   8.829
   51SBC   C0E335963   6.141   3.188   8.925
   51SBC   C0AW35964   6.014   3.205   8.987
   51SBC   C0AV35965   5.953   3.111   9.071
   51SBC   H00Q35966   6.000   3.015   9.086
   51SBC   C0AU35967   5.828   3.137   9.140
   51SBC   H00R35968   5.783   3.072   9.213
   51SBC   C0AT35969   5.764   3.257   9.111
   51SBC   C0AS35970   5.641   3.323   9.144
   51SBC   C0AR35971   5.541   3.246   9.214
   51SBC   C0BE35972   5.827   3.345   9.028
   51SBC   C0DN35973   6.202   3.542   8.822
   51SBC   C0AX35974   5.950   3.327   8.966
   51SBC   C0BB35975   6.002   3.672   8.859
   51SBC   C0BD35976   5.755   3.462   9.017
   51SBC   C0B235977   5.799   3.804   8.923
   51SBC   C0AH35978   5.542   3.825   9.028
   51SBC   C0BF35979   5.633   3.457   9.091
   51SBC   C0AL35980   5.298   3.782   9.143
   51SBC   C07U35981   5.350   3.437   9.225
   51SBC   C0AQ35982   5.415   3.312   9.255
   51SBC   C0BG35983   5.540   3.108   9.268
   51SBC   C0FY35984   5.255   2.922   9.352
   51SBC   C0BJ35985   5.557   2.983   9.195
   51SBC   H00S35986   5.623   2.969   9.111
   51SBC   C0FZ35987   5.261   2.799   9.286
   51SBC   C07S35988   5.130   2.996   9.356
   51SBC   C0G135989   4.915   2.707   9.271
   51SBC   C07K35990   4.641   2.943   9.340
   51SBC   C07H35991   4.873   3.111   9.361
   51SBC   C06B35992   4.643   3.272   9.573
   51SBC   C06N35993   4.646   3.468   9.461
   51SBC   C06635994   4.992   3.340   9.351
   51SBC   C06235995   5.039   3.639   9.293
   51SBC   C05Y35996   4.648   3.693   9.354
   51SBC   C06135997   5.019   3.780   9.295
   51SBC   C05H35998   4.729   3.972   9.170
   51SBC   C06V35999   5.064   3.871   9.196
   51SBC   C06Y36000   5.133   4.088   9.040
   51SBC   C05C36001   4.782   4.211   9.047
   51SBC   C06Z36002   5.120   4.304   8.938
   51SBC   C07036003   4.984   4.540   8.892
   51SBC   C05B36004   4.711   4.330   9.013
   51SBC   C05736005   4.571   4.571   8.951
   51SBC   C05936006   4.780   4.666   8.885
   52SBC   C05836007   2.380  10.226   5.150
   52SBC   C05A36008   2.324  10.096   5.182
   52SBC   C06Q36009   2.370   9.981   5.123
   52SBC   C06R36010   2.320   9.852   5.157
   52SBC   C06S36011   2.218   9.841   5.247
   52SBC   C06T36012   2.167   9.709   5.279
   52SBC   C06U36013   2.063   9.667   5.371
   52SBC   C06X36014   1.975   9.738   5.461
   52SBC   C06036015   1.870   9.654   5.509
   52SBC   C05Z36016   1.822   9.642   5.649
   52SBC   C06836017   1.796   9.490   5.658
   52SBC   C06736018   1.695   9.421   5.742
   52SBC   C06936019   1.610   9.494   5.831
   52SBC   C06A36020   1.476   9.464   5.872
   52SBC   C07336021   1.375   9.396   5.796
   52SBC   C07P36022   1.240   9.440   5.796
   52SBC   C07O36023   1.186   9.556   5.858
   52SBC   H00D36024   1.259   9.625   5.899
   52SBC   C07N36025   1.049   9.596   5.842
   52SBC   H00E36026   1.020   9.692   5.883
   52SBC   C07M36027   0.962   9.512   5.780
   52SBC   H00F36028   0.854   9.518   5.786
   52SBC   C07L36029   1.014   9.399   5.714
   52SBC   C07Q36030   0.934   9.314   5.625
   52SBC   H00G36031   0.833   9.343   5.602
   52SBC   O00F36032   0.973   9.206   5.560
   52SBC   C07J36033   1.094   9.158   5.587
   52SBC   C07I36034   1.184   9.233   5.674
   52SBC   N00436035   1.314   9.185   5.693
   52SBC   C07R36036   1.340   9.049   5.651
   52SBC   C07T36037   1.247   8.986   5.558
   52SBC   C0FX36038   1.279   8.872   5.490
   52SBC   C0FW36039   1.216   8.810   5.383
   52SBC   C0G036040   1.115   8.891   5.334
   52SBC   C0G236041   1.062   8.870   5.202
   52SBC   H01E36042   0.973   8.927   5.178
   52SBC   C0G336043   1.107   8.759   5.132
   52SBC   H01C36044   1.067   8.733   5.035
   52SBC   C0G436045   1.210   8.682   5.185
   52SBC   H01D36046   1.250   8.600   5.129
   52SBC   O00E36047   1.056   8.987   5.418
   52SBC   C0FV36048   1.272   8.701   5.311
   52SBC   C0FU36049   1.386   8.636   5.373
   52SBC   H01B36050   1.433   8.547   5.334
   52SBC   C0FT36051   1.445   8.696   5.487
   52SBC   C0FS36052   1.564   8.675   5.559
   52SBC   C0BI36053   1.568   8.764   5.671
   52SBC   C0BH36054   1.702   8.798   5.694
   52SBC   C07F36055   1.752   8.929   5.682
   52SBC   C07E36056   1.695   9.049   5.708
   52SBC   C07G36057   1.558   9.075   5.734
   52SBC   C07436058   1.544   9.212   5.749
   52SBC   C06536059   1.757   9.170   5.687
   52SBC   C06436060   1.871   9.169   5.603
   52SBC   C06336061   1.926   9.280   5.537
   52SBC   C07536062   2.027   9.216   5.455
   52SBC   C0AM36063   2.027   9.068   5.463
   52SBC   C0AN36064   2.124   8.980   5.395
   52SBC   C0AO36065   2.234   9.000   5.289
   52SBC   C0B136066   2.316   8.891   5.239
   52SBC   C0B036067   2.296   8.761   5.282
   52SBC   C0AZ36068   2.367   8.651   5.241
   52SBC   C0AY36069   2.332   8.525   5.287
   52SBC   N00736070   2.399   8.412   5.247
   52SBC   C0E236071   2.364   8.284   5.298
   52SBC   C0E136072   2.436   8.178   5.255
   52SBC   C0E436073   2.402   8.046   5.287
   52SBC   C0FF36074   2.458   7.933   5.236
   52SBC   C0FJ36075   2.418   7.788   5.242
   52SBC   C0FK36076   2.284   7.729   5.245
   52SBC   H01636077   2.192   7.781   5.266
   52SBC   C0FL36078   2.296   7.592   5.198
   52SBC   H01736079   2.218   7.519   5.182
   52SBC   C0FM36080   2.437   7.574   5.159
   52SBC   C0FH36081   2.531   7.508   5.068
   52SBC   C0FI36082   2.641   7.596   5.064
   52SBC   C0F336083   2.717   7.618   4.948
   52SBC   C0F236084   2.774   7.743   4.933
   52SBC   C0DW36085   2.736   7.856   5.003
   52SBC   C0FE36086   2.655   7.845   5.112
   52SBC   C0DV36087   2.772   7.978   4.960
   52SBC   C0DX36088   2.701   8.091   5.013
   52SBC   C0DK36089   2.724   8.222   4.961
   52SBC   C0DJ36090   2.810   8.228   4.848
   52SBC   C0DI36091   2.833   8.350   4.796
   52SBC   C0DH36092   2.778   8.466   4.853
   52SBC   C0DG36093   2.692   8.453   4.959
   52SBC   C0BV36094   2.636   8.569   5.014
   52SBC   C0BC36095   2.532   8.557   5.104
   52SBC   C0BA36096   2.670   8.693   4.961
   52SBC   C0B436097   2.595   8.803   5.006
   52SBC   C0B336098   2.490   8.791   5.095
   52SBC   C0B536099   2.630   8.926   4.959
   52SBC   C0BU36100   2.739   8.940   4.869
   52SBC   C0BT36101   2.811   8.830   4.829
   52SBC   C0BS36102   2.923   8.838   4.745
   52SBC   C0CC36103   2.978   8.727   4.689
   52SBC   C0CB36104   3.086   8.730   4.595
   52SBC   C0CH36105   3.098   8.620   4.509
   52SBC   C0DO36106   3.033   8.493   4.529
   52SBC   C0DP36107   3.061   8.380   4.454
   52SBC   C0EA36108   3.135   8.392   4.329
   52SBC   H01236109   3.154   8.490   4.287
   52SBC   O00936110   3.169   8.284   4.251
   52SBC   C0EH36111   3.119   8.165   4.287
   52SBC   C0EG36112   3.144   8.059   4.209
   52SBC   C0EJ36113   3.215   8.037   4.089
   52SBC   H01036114   3.279   8.105   4.035
   52SBC   C0EK36115   3.199   7.901   4.037
   52SBC   H00Z36116   3.249   7.857   3.952
   52SBC   C0EL36117   3.112   7.846   4.136
   52SBC   C0EM36118   3.052   7.718   4.151
   52SBC   C0EW36119   3.077   7.603   4.068
   52SBC   H01336120   3.146   7.613   3.986
   52SBC   C0EX36121   3.026   7.471   4.104
   52SBC   H01436122   3.056   7.382   4.050
   52SBC   C0F136123   2.960   7.453   4.234
   52SBC   C0EU36124   2.924   7.565   4.303
   52SBC   C0ET36125   2.859   7.573   4.429
   52SBC   C0ES36126   2.867   7.711   4.473
   52SBC   C0EE36127   2.937   7.778   4.366
   52SBC   C0ED36128   3.009   7.906   4.354
   52SBC   C0EC36129   2.996   8.017   4.441
   52SBC   C0EB36130   2.944   8.004   4.576
   52SBC   C0EN36131   2.922   7.876   4.641
   52SBC   C0ER36132   2.883   7.880   4.773
   52SBC   C0DS36133   2.925   8.122   4.660
   52SBC   C0DR36134   2.951   8.247   4.610
   52SBC   C0EY36135   2.906   7.739   4.602
   52SBC   C0EZ36136   2.842   7.667   4.709
   52SBC   C0F536137   2.765   7.538   4.721
   52SBC   C0F636138   2.762   7.442   4.623
   52SBC   N00836139   2.691   7.324   4.653
   52SBC   C0F736140   2.610   7.304   4.777
   52SBC   C0FQ36141   2.538   7.183   4.781
   52SBC   H01836142   2.472   7.170   4.866
   52SBC   C0FP36143   2.538   7.077   4.696
   52SBC   H01936144   2.484   6.988   4.725
   52SBC   C0FO36145   2.623   7.087   4.585
   52SBC   H01A36146   2.638   7.010   4.511
   52SBC   C0F836147   2.615   7.410   4.868
   52SBC   C0F936148   2.698   7.207   4.565
   52SBC   C0FA36149   2.785   7.211   4.452
   52SBC   H01536150   2.795   7.127   4.385
   52SBC   C0FB36151   2.840   7.336   4.410
   52SBC   C0FD36152   2.824   7.448   4.493
   52SBC   C0FC36153   2.908   7.332   4.281
   52SBC   O00A36154   2.920   7.229   4.215
   52SBC   C0EV36155   2.979   7.688   4.269
   52SBC   C0EF36156   3.084   7.941   4.239
   52SBC   C0EI36157   3.043   8.144   4.409
   52SBC   C0DQ36158   3.020   8.256   4.491
   52SBC   C0CE36159   2.955   8.489   4.643
   52SBC   H00U36160   3.160   8.632   4.422
   52SBC   C0CA36161   3.168   8.848   4.590
   52SBC   C0C936162   3.108   8.971   4.645
   52SBC   C0C836163   3.187   9.091   4.637
   52SBC   C0C736164   3.153   9.235   4.636
   52SBC   C0C636165   3.265   9.318   4.620
   52SBC   C0C536166   3.290   9.452   4.578
   52SBC   C0CQ36167   3.420   9.478   4.519
   52SBC   C0D136168   3.503   9.369   4.490
   52SBC   C0D836169   3.563   9.393   4.365
   52SBC   C0D736170   3.551   9.532   4.345
   52SBC   C0D636171   3.595   9.604   4.229
   52SBC   C0D536172   3.572   9.741   4.207
   52SBC   C0D436173   3.509   9.842   4.286
   52SBC   C0D336174   3.462   9.938   4.196
   52SBC   C0CX36175   3.357  10.015   4.263
   52SBC   C0CW36176   3.299   9.929   4.365
   52SBC   C0CV36177   3.186   9.930   4.453
   52SBC   C0D236178   3.098  10.042   4.466
   52SBC   C09D36179   3.123  10.172   4.411
   52SBC   C09C36180   3.046  10.286   4.455
   52SBC   C09B36181   3.065  10.419   4.429
   52SBC   C09A36182   3.176  10.440   4.343
   52SBC   C09936183   3.243  10.339   4.281
   52SBC   C09836184   3.370  10.389   4.237
   52SBC   C08Y36185   3.394  10.521   4.293
   52SBC   C08X36186   3.504  10.608   4.308
   52SBC   C08W36187   3.633  10.554   4.268
   52SBC   C08U36188   3.670  10.414   4.232
   52SBC   C08V36189   3.597  10.290   4.227
   52SBC   C0DC36190   3.683  10.199   4.164
   52SBC   H00W36191   3.644  10.105   4.130
   52SBC   C0DB36192   3.812  10.257   4.127
   52SBC   H00X36193   3.893  10.213   4.072
   52SBC   C08T36194   3.800  10.390   4.176
   52SBC   C08S36195   3.899  10.485   4.163
   52SBC   H00N36196   3.992  10.460   4.115
   52SBC   C08R36197   3.874  10.615   4.209
   52SBC   C08Q36198   3.976  10.711   4.207
   52SBC   H00O36199   4.066  10.690   4.151
   52SBC   C08P36200   3.968  10.840   4.270
   52SBC   C08O36201   4.075  10.945   4.270
   52SBC   H00P36202   4.168  10.929   4.217
   52SBC   C08N36203   4.052  11.069   4.342
   52SBC   C08M36204   4.163  11.161   4.355
   52SBC   O00836205   4.277  11.141   4.309
   52SBC   O00736206   4.137  11.277   4.423
   52SBC   C08H36207   4.022  11.298   4.493
   52SBC   C08G36208   4.005  11.413   4.575
   52SBC   C03V36209   4.103  11.508   4.610
   52SBC   H00936210   4.201  11.497   4.568
   52SBC   C03U36211   4.082  11.603   4.713
   52SBC   C03W36212   4.173  11.696   4.754
   52SBC   H00A36213   4.271  11.698   4.710
   52SBC   C03X36214   4.148  11.786   4.852
   52SBC   H00B36215   4.221  11.858   4.886
   52SBC   O00536216   4.027  11.787   4.917
   52SBC   C03O36217   3.934  11.694   4.885
   52SBC   C03N36218   3.812  11.686   4.956
   52SBC   O00036219   3.789  11.790   5.045
   52SBC   C01936220   3.681  11.777   5.122
   52SBC   C01836221   3.577  11.683   5.101
   52SBC   C01736222   3.596  11.588   4.999
   52SBC   C01636223   3.494  11.498   4.971
   52SBC   C01536224   3.383  11.510   5.057
   52SBC   C01436225   3.275  11.421   5.033
   52SBC   C01336226   3.273  11.332   4.920
   52SBC   C01236227   3.141  11.267   4.936
   52SBC   C01136228   3.079  11.339   5.041
   52SBC   C01036229   2.950  11.319   5.068
   52SBC   C00Z36230   2.873  11.368   5.166
   52SBC   C00Y36231   2.759  11.291   5.162
   52SBC   C01O36232   2.766  11.189   5.071
   52SBC   C01P36233   2.712  11.066   5.088
   52SBC   C02L36234   2.751  10.971   5.001
   52SBC   C02K36235   2.866  10.997   4.920
   52SBC   C01M36236   2.945  11.118   4.925
   52SBC   C02J36237   2.894  10.898   4.825
   52SBC   C02I36238   2.983  10.902   4.722
   52SBC   C02H36239   3.079  10.997   4.686
   52SBC   C01Q36240   3.133  11.102   4.763
   52SBC   C02G36241   3.258  11.140   4.702
   52SBC   C08936242   3.269  11.063   4.587
   52SBC   C08836243   3.402  11.054   4.548
   52SBC   C08736244   3.467  11.151   4.636
   52SBC   C08636245   3.599  11.194   4.621
   52SBC   C03S36246   3.660  11.309   4.690
   52SBC   N00636247   3.786  11.324   4.634
   52SBC   C08F36248   3.807  11.218   4.552
   52SBC   C01J36249   3.632  11.402   4.789
   52SBC   C03R36250   3.733  11.501   4.824
   52SBC   C03Q36251   3.857  11.508   4.753
   52SBC   C08E36252   3.695  11.139   4.531
   52SBC   C08D36253   3.695  11.027   4.443
   52SBC   C08K36254   3.826  10.991   4.396
   52SBC   C08C36255   3.589  10.941   4.423
   52SBC   C09136256   3.617  10.819   4.370
   52SBC   C09236257   3.739  10.776   4.317
   52SBC   C08B36258   3.452  10.947   4.462
   52SBC   C09036259   3.395  10.826   4.413
   52SBC   C09436260   3.255  10.784   4.425
   52SBC   C09536261   3.205  10.656   4.400
   52SBC   C09R36262   3.085  10.643   4.470
   52SBC   C09736263   3.063  10.754   4.554
   52SBC   C09636264   3.166  10.839   4.521
   52SBC   C01I36265   3.375  11.213   4.729
   52SBC   C08A36266   3.171  10.968   4.584
   52SBC   C09L36267   2.967  10.780   4.652
   52SBC   C09K36268   2.864  10.704   4.709
   52SBC   C09J36269   2.830  10.575   4.672
   52SBC   C09I36270   2.750  10.489   4.756
   52SBC   C09O36271   2.683  10.491   4.884
   52SBC   C09N36272   2.661  10.609   4.959
   52SBC   C09M36273   2.727  10.737   4.935
   52SBC   C06O36274   2.566  10.597   5.063
   52SBC   C05M36275   2.503  10.472   5.090
   52SBC   C06P36276   2.535  10.357   5.020
   52SBC   C04236277   2.412  10.460   5.196
   52SBC   C04136278   2.388  10.568   5.276
   52SBC   C04036279   2.303  10.555   5.384
   52SBC   C03Z36280   2.275  10.659   5.473
   52SBC   C03Y36281   2.340  10.782   5.454
   52SBC   C02736282   2.315  10.887   5.541
   52SBC   C02636283   2.378  11.003   5.522
   52SBC   C02836284   2.369  11.109   5.614
   52SBC   C02936285   2.292  11.091   5.726
   52SBC   C02B36286   2.288  11.191   5.820
   52SBC   C02C36287   2.232  11.163   5.944
   52SBC   C02X36288   2.240  11.258   6.043
   52SBC   C03E36289   2.191  11.223   6.167
   52SBC   C03G36290   2.125  11.107   6.200
   52SBC   C04Q36291   2.108  11.015   6.095
   52SBC   C04R36292   2.051  10.888   6.120
   52SBC   C04S36293   2.045  10.795   6.020
   52SBC   C04L36294   2.097  10.826   5.894
   52SBC   C04M36295   2.165  10.947   5.864
   52SBC   C04K36296   2.104  10.725   5.798
   52SBC   C04F36297   2.051  10.600   5.826
   52SBC   C04E36298   1.988  10.574   5.946
   52SBC   C04D36299   1.926  10.452   5.964
   52SBC   C05036300   1.877  10.421   6.091
   52SBC   C05136301   1.821  10.295   6.113
   52SBC   C05Q36302   1.767  10.266   6.240
   52SBC   C05V36303   1.705  10.143   6.260
   52SBC   N00536304   1.636  10.122   6.377
   52SBC   C07V36305   1.653  10.213   6.484
   52SBC   C08236306   1.594  10.179   6.610
   52SBC   C08136307   1.511  10.070   6.630
   52SBC   C07C36308   1.492   9.984   6.523
   52SBC   C07B36309   1.404   9.874   6.537
   52SBC   C08036310   1.328   9.859   6.655
   52SBC   C07Z36311   1.249   9.746   6.657
   52SBC   H00L36312   1.200   9.731   6.752
   52SBC   C07936313   1.226   9.657   6.553
   52SBC   C07836314   1.294   9.682   6.435
   52SBC   C07736315   1.291   9.589   6.332
   52SBC   C07X36316   1.200   9.480   6.339
   52SBC   H00I36317   1.182   9.408   6.260
   52SBC   C07Y36318   1.135   9.451   6.462
   52SBC   H00H36319   1.074   9.362   6.469
   52SBC   C07636320   1.378   9.601   6.223
   52SBC   C06C36321   1.365   9.518   6.107
   52SBC   H00C36322   1.282   9.453   6.086
   52SBC   C06F36323   1.466   9.710   6.216
   52SBC   C06E36324   1.545   9.729   6.105
   52SBC   C06G36325   1.629   9.831   6.077
   52SBC   C06H36326   1.628   9.928   6.181
   52SBC   C06I36327   1.557   9.913   6.304
   52SBC   C06L36328   1.699   9.843   5.957
   52SBC   C06M36329   1.718   9.731   5.864
   52SBC   C06K36330   1.769   9.963   5.935
   52SBC   C05S36331   1.759  10.068   6.036
   52SBC   C05U36332   1.836   9.990   5.812
   52SBC   C05X36333   1.850   9.882   5.717
   52SBC   C05G36334   1.927   9.930   5.603
   52SBC   C05F36335   1.977  10.061   5.598
   52SBC   C05E36336   2.055  10.076   5.484
   52SBC   C04836337   2.110  10.201   5.457
   52SBC   C05636338   2.195  10.204   5.350
   52SBC   C04536339   2.254  10.325   5.324
   52SBC   C04736340   2.090  10.302   5.546
   52SBC   C04936341   2.011  10.282   5.660
   52SBC   C04B36342   2.003  10.381   5.751
   52SBC   C04636343   2.155  10.419   5.525
   52SBC   C04H36344   2.141  10.525   5.610
   52SBC   C05D36345   2.082   9.957   5.418
   52SBC   C04A36346   1.952  10.161   5.688
   52SBC   C05T36347   1.884  10.122   5.801
   52SBC   C05536348   1.875  10.226   5.892
   52SBC   C06D36349   1.548   9.630   6.004
   52SBC   C07W36350   1.470   9.804   6.319
   52SBC   C08536351   1.144   9.542   6.564
   52SBC   H00M36352   1.107   9.522   6.664
   52SBC   C08436353   1.336   9.951   6.764
   52SBC   H00J36354   1.279   9.940   6.855
   52SBC   C07A36355   1.390   9.785   6.430
   52SBC   C08336356   1.435  10.049   6.746
   52SBC   H00K36357   1.447  10.121   6.826
   52SBC   O00K36358   1.607  10.272   6.711
   52SBC   C0GO36359   1.675  10.384   6.690
   52SBC   C0GN36360   1.681  10.476   6.794
   52SBC   H01L36361   1.625  10.445   6.881
   52SBC   C0GM36362   1.748  10.599   6.781
   52SBC   C0GL36363   1.746  10.677   6.889
   52SBC   H01M36364   1.697  10.639   6.978
   52SBC   O00J36365   1.804  10.800   6.890
   52SBC   C0GK36366   1.853  10.838   6.761
   52SBC   H01N36367   1.888  10.940   6.754
   52SBC   C05K36368   1.857  10.753   6.647
   52SBC   C05J36369   1.908  10.796   6.514
   52SBC   C04Y36370   1.974  10.918   6.480
   52SBC   C04X36371   2.029  10.951   6.352
   52SBC   O00636372   1.989  11.008   6.582
   52SBC   C05336373   2.060  11.126   6.567
   52SBC   C04O36374   2.110  11.165   6.439
   52SBC   C03C36375   2.195  11.278   6.404
   52SBC   C03B36376   2.258  11.389   6.472
   52SBC   C05436377   2.260  11.396   6.609
   52SBC   C0GR36378   2.333  11.500   6.679
   52SBC   C03M36379   2.424  11.608   6.639
   52SBC   C03I36380   2.469  11.642   6.509
   52SBC   C03J36381   2.566  11.746   6.494
   52SBC   N00236382   2.622  11.777   6.363
   52SBC   C02U36383   2.722  11.880   6.349
   52SBC   C02T36384   2.787  11.904   6.227
   52SBC   C02Z36385   2.890  12.001   6.214
   52SBC   N00136386   2.958  12.027   6.095
   52SBC   C02R36387   3.049  12.132   6.081
   52SBC   C03236388   3.069  12.219   6.190
   52SBC   C03136389   3.014  12.180   6.315
   52SBC   H00736390   3.034  12.235   6.407
   52SBC   C03336391   3.157  12.336   6.158
   52SBC   H00336392   3.190  12.394   6.243
   52SBC   O00436393   3.219  12.358   6.036
   52SBC   C03436394   3.191  12.268   5.940
   52SBC   C03536395   3.249  12.289   5.815
   52SBC   C03636396   3.238  12.196   5.709
   52SBC   H00536397   3.282  12.208   5.611
   52SBC   C03736398   3.147  12.092   5.724
   52SBC   H00636399   3.142  12.034   5.633
   52SBC   C00D36400   3.083  12.060   5.848
   52SBC   C00C36401   2.996  11.960   5.864
   52SBC   C00B36402   2.972  11.855   5.760
   52SBC   C00A36403   3.013  11.811   5.622
   52SBC   C00936404   2.899  11.740   5.575
   52SBC   C00836405   2.901  11.651   5.467
   52SBC   C00736406   3.017  11.629   5.397
   52SBC   C00636407   3.018  11.536   5.289
   52SBC   C00536408   3.139  11.523   5.218
   52SBC   C00436409   3.248  11.602   5.247
   52SBC   C00336410   3.243  11.689   5.358
   52SBC   C00236411   3.356  11.760   5.389
   52SBC   C01C36412   3.463  11.770   5.297
   52SBC   C01B36413   3.563  11.868   5.314
   52SBC   H00036414   3.565  11.948   5.387
   52SBC   C00136415   3.373  11.818   5.516
   52SBC   C00036416   3.261  11.801   5.602
   52SBC   C01U36417   3.303  11.845   5.729
   52SBC   H00236418   3.249  11.847   5.823
   52SBC   C01T36419   3.431  11.917   5.711
   52SBC   O00236420   3.496  11.975   5.799
   52SBC   O00136421   3.474  11.892   5.581
   52SBC   C01S36422   3.130  11.696   5.433
   52SBC   C00N36423   2.789  11.565   5.464
   52SBC   C00M36424   2.691  11.556   5.562
   52SBC   C00J36425   2.697  11.641   5.669
   52SBC   C00I36426   2.625  11.632   5.784
   52SBC   C00H36427   2.660  11.702   5.896
   52SBC   C00G36428   2.767  11.792   5.893
   52SBC   C00F36429   2.818  11.856   5.999
   52SBC   C01X36430   2.593  11.682   6.013
   52SBC   C01W36431   2.496  11.584   6.020
   52SBC   C01V36432   2.469  11.503   5.907
   52SBC   C02036433   2.381  11.397   5.912
   52SBC   C01Z36434   2.440  11.554   6.139
   52SBC   C02Y36435   2.351  11.454   6.136
   52SBC   C03936436   2.298  11.418   6.261
   52SBC   C02W36437   2.477  11.616   6.260
   52SBC   C01Y36438   2.634  11.750   6.126
   52SBC   C00U36439   2.534  11.526   5.788
   52SBC   C00S36440   2.518  11.437   5.682
   52SBC   C00T36441   2.436  11.327   5.689
   52SBC   C00R36442   2.597  11.459   5.568
   52SBC   C00Q36443   2.593  11.363   5.468
   52SBC   C00V36444   2.510  11.247   5.484
   52SBC   C02436445   2.523  11.143   5.392
   52SBC   C00X36446   2.600  11.160   5.280
   52SBC   C00P36447   2.690  11.372   5.369
   52SBC   C00O36448   2.786  11.470   5.365
   52SBC   C00K36449   2.805  11.728   5.669
   52SBC   N00036450   3.137  11.769   5.559
   52SBC   C00L36451   2.853  11.788   5.786
   52SBC   H00436452   3.309  12.377   5.800
   52SBC   C02Q36453   3.106  12.152   5.954
   52SBC   C00E36454   2.921  11.949   5.984
   52SBC   C03036455   2.922  12.076   6.328
   52SBC   O00336456   2.860  12.052   6.447
   52SBC   C02S36457   2.749  11.837   6.117
   52SBC   C03836458   2.765  11.956   6.459
   52SBC   C03L36459   2.713  11.926   6.583
   52SBC   H00836460   2.751  11.982   6.667
   52SBC   C02V36461   2.577  11.711   6.247
   52SBC   C03K36462   2.625  11.816   6.602
   52SBC   C0BK36463   2.577  11.771   6.725
   52SBC   H00T36464   2.608  11.831   6.809
   52SBC   C03H36465   2.423  11.582   6.392
   52SBC   C0BL36466   2.493  11.669   6.753
   52SBC   C0GU36467   2.457  11.644   6.891
   52SBC   H01O36468   2.507  11.695   6.972
   52SBC   C0GT36469   2.357  11.549   6.915
   52SBC   H01P36470   2.318  11.535   7.015
   52SBC   C0GS36471   2.292  11.481   6.813
   52SBC   C0GV36472   2.202  11.372   6.822
   52SBC   C0GW36473   2.149  11.310   6.939
   52SBC   H01Q36474   2.165  11.339   7.042
   52SBC   C0GX36475   2.075  11.202   6.923
   52SBC   H01R36476   2.030  11.147   7.003
   52SBC   O00L36477   2.046  11.145   6.800
   52SBC   C0GQ36478   2.181  11.316   6.698
   52SBC   C03A36479   2.329  11.475   6.385
   52SBC   C05L36480   2.096  11.200   6.683
   52SBC   C04W36481   1.901  10.708   6.407
   52SBC   C05I36482   1.852  10.580   6.426
   52SBC   C05O36483   1.799  10.541   6.545
   52SBC   C05236484   1.836  10.484   6.321
   52SBC   C04V36485   1.944  10.736   6.277
   52SBC   C04U36486   1.943  10.643   6.171
   52SBC   N00936487   1.799  10.629   6.651
   52SBC   C0GP36488   1.736  10.418   6.566
   52SBC   C05W36489   1.722  10.331   6.462
   52SBC   C07D36490   1.562  10.006   6.403
   52SBC   C06J36491   1.691  10.048   6.157
   52SBC   C05P36492   1.778  10.362   6.340
   52SBC   C05R36493   1.820  10.195   6.013
   52SBC   C04Z36494   1.889  10.516   6.195
   52SBC   C04C36495   1.927  10.356   5.867
   52SBC   C04G36496   2.066  10.501   5.729
   52SBC   C04J36497   2.179  10.745   5.680
   52SBC   C04T36498   1.990  10.672   6.044
   52SBC   N00336499   2.005  10.857   6.245
   52SBC   C04P36500   2.089  11.075   6.333
   52SBC   C03D36501   2.219  11.304   6.274
   52SBC   C02136502   2.320  11.373   6.033
   52SBC   C03F36503   2.165  11.040   5.966
   52SBC   C02236504   2.362  11.309   5.806
   52SBC   C02A36505   2.230  10.969   5.745
   52SBC   C02336506   2.433  11.232   5.592
   52SBC   C02536507   2.451  11.023   5.412
   52SBC   C02D36508   2.480  10.921   5.320
   52SBC   C02E36509   2.567  10.934   5.210
   52SBC   C02N36510   2.600  10.827   5.124
   52SBC   C04N36511   2.237  10.866   5.655
   52SBC   C02P36512   2.423  10.796   5.343
   52SBC   C04I36513   2.196  10.650   5.588
   52SBC   C04436514   2.238  10.434   5.409
   52SBC   C04336515   2.447  10.690   5.253
   52SBC   C05N36516   2.540  10.700   5.145
   52SBC   C09U36517   2.626  10.362   4.918
   52SBC   C09V36518   2.663  10.243   4.854
   52SBC   C09X36519   2.743  10.241   4.750
   52SBC   C09Y36520   2.810  10.131   4.691
   52SBC   C0A136521   2.787  10.014   4.755
   52SBC   C0A236522   2.682  10.004   4.852
   52SBC   C0A436523   2.639   9.883   4.889
   52SBC   C07136524   2.536   9.874   4.982
   52SBC   C0A536525   2.487   9.752   5.014
   52SBC   C0A936526   2.547   9.635   4.960
   52SBC   C0A836527   2.654   9.645   4.881
   52SBC   C0AP36528   2.712   9.532   4.825
   52SBC   C0BY36529   2.816   9.550   4.744
   52SBC   C0BX36530   2.877   9.667   4.714
   52SBC   C0C236531   2.997   9.674   4.638
   52SBC   C0C336532   3.039   9.793   4.593
   52SBC   C0CT36533   2.964   9.910   4.623
   52SBC   C0C136534   3.066   9.553   4.609
   52SBC   C0C036535   2.995   9.422   4.624
   52SBC   C0A736536   2.813   9.779   4.756
   52SBC   C0BZ36537   2.871   9.430   4.688
   52SBC   C0BO36538   2.832   9.307   4.731
   52SBC   C0BN36539   2.717   9.294   4.808
   52SBC   C0BM36540   2.691   9.167   4.851
   52SBC   C0B936541   2.586   9.155   4.942
   52SBC   C0B836542   2.521   9.265   4.990
   52SBC   C0AD36543   2.560   9.390   4.949
   52SBC   C0AF36544   2.420   9.259   5.083
   52SBC   C0AG36545   2.376   9.137   5.136
   52SBC   C0B736546   2.448   9.026   5.093
   52SBC   C0AE36547   2.363   9.373   5.121
   52SBC   C0AB36548   2.399   9.499   5.080
   52SBC   C0AA36549   2.338   9.611   5.134
   52SBC   C0AJ36550   2.261   9.361   5.214
   52SBC   C0AK36551   2.196   9.471   5.263
   52SBC   C06W36552   2.098   9.429   5.345
   52SBC   C0AI36553   2.201   9.244   5.266
   52SBC   C0BP36554   2.917   9.202   4.686
   52SBC   C0BQ36555   2.889   9.076   4.746
   52SBC   C0BW36556   2.661   9.405   4.859
   52SBC   C0AC36557   2.502   9.509   4.991
   52SBC   C0A636558   2.701   9.772   4.840
   52SBC   C0A336559   2.856   9.902   4.714
   52SBC   C09Z36560   2.902  10.138   4.588
   52SBC   C09W36561   2.624  10.123   4.898
   52SBC   C07236562   2.528  10.117   4.993
   52SBC   C09H36563   2.768  10.364   4.688
   52SBC   C09G36564   2.857  10.367   4.584
   52SBC   C09P36565   2.898  10.501   4.571
   52SBC   C02O36566   2.817  10.772   4.823
   52SBC   C02M36567   2.696  10.844   5.022
   52SBC   C02F36568   2.619  11.058   5.192
   52SBC   C00W36569   2.678  11.274   5.275
   52SBC   C01R36570   2.895  11.468   5.271
   52SBC   C01N36571   2.887  11.210   5.012
   52SBC   C01L36572   3.080  11.151   4.879
   52SBC   C01H36573   3.388  11.316   4.834
   52SBC   C01K36574   3.156  11.435   5.102
   52SBC   C01E36575   3.363  11.597   5.166
   52SBC   C01G36576   3.507  11.400   4.866
   52SBC   C01D36577   3.469  11.684   5.188
   52SBC   C01A36578   3.667  11.871   5.226
   52SBC   H00136579   3.748  11.942   5.238
   52SBC   C01F36580   3.716  11.586   4.929
   52SBC   C03P36581   3.959  11.604   4.783
   52SBC   C03T36582   3.886  11.417   4.656
   52SBC   C08I36583   3.918  11.202   4.484
   52SBC   C08J36584   3.930  11.089   4.405
   52SBC   C08L36585   3.845  10.866   4.328
   52SBC   C09336586   3.748  10.648   4.264
   52SBC   C08Z36587   3.500  10.741   4.363
   52SBC   C09T36588   3.451  10.272   4.237
   52SBC   C09S36589   3.259  10.554   4.337
   52SBC   C09Q36590   3.009  10.530   4.490
   52SBC   C09F36591   2.936  10.261   4.538
   52SBC   C09E36592   3.235  10.215   4.335
   52SBC   C0A036593   2.988  10.030   4.556
   52SBC   C0CU36594   3.155   9.803   4.514
   52SBC   C0CR36595   3.243   9.688   4.508
   52SBC   C0CZ36596   3.361   9.696   4.435
   52SBC   C0DA36597   3.361  10.161   4.285
   52SBC   C0D936598   3.472   9.887   4.060
   52SBC   H00V36599   3.424   9.916   3.968
   52SBC   C0CY36600   3.390   9.815   4.369
   52SBC   C0DF36601   3.550   9.767   4.069
   52SBC   C0DE36602   3.597   9.647   4.001
   52SBC   C0GI36603   3.631   9.626   3.870
   52SBC   H01K36604   3.631   9.710   3.802
   52SBC   C0GJ36605   3.674   9.500   3.839
   52SBC   H01J36606   3.692   9.485   3.734
   52SBC   O00I36607   3.697   9.398   3.927
   52SBC   C0GH36608   3.659   9.410   4.061
   52SBC   C0GG36609   3.649   9.294   4.140
   52SBC   O00G36610   3.708   9.182   4.086
   52SBC   C0G836611   3.700   9.063   4.149
   52SBC   C0G936612   3.779   8.965   4.096
   52SBC   H01G36613   3.846   8.983   4.014
   52SBC   C0GA36614   3.780   8.836   4.157
   52SBC   H01H36615   3.847   8.759   4.122
   52SBC   C0GB36616   3.687   8.796   4.253
   52SBC   C0EP36617   3.604   8.902   4.306
   52SBC   C0E836618   3.493   8.857   4.393
   52SBC   C0CK36619   3.384   8.917   4.459
   52SBC   C0CL36620   3.398   9.045   4.507
   52SBC   C0E936621   3.476   9.142   4.443
   52SBC   C0GE36622   3.566   9.156   4.325
   52SBC   C0E736623   3.482   8.726   4.440
   52SBC   C0CJ36624   3.373   8.705   4.522
   52SBC   C0E636625   3.362   8.576   4.577
   52SBC   H00Y36626   3.289   8.555   4.654
   52SBC   C0EO36627   3.451   8.476   4.537
   52SBC   H01136628   3.434   8.377   4.576
   52SBC   C0G636629   3.556   8.498   4.442
   52SBC   C0G536630   3.650   8.403   4.396
   52SBC   H01F36631   3.637   8.298   4.418
   52SBC   C0GD36632   3.750   8.439   4.312
   52SBC   H01I36633   3.811   8.356   4.280
   52SBC   O00H36634   3.763   8.565   4.257
   52SBC   C0EQ36635   3.576   8.633   4.396
   52SBC   C0GC36636   3.674   8.664   4.303
   52SBC   C0G736637   3.620   9.036   4.266
   52SBC   C0DD36638   3.619   9.543   4.099
   52SBC   C0GF36639   3.602   9.286   4.274
   52SBC   C0CO36640   3.469   9.247   4.532
   52SBC   C0D036641   3.438   9.575   4.428
   52SBC   C0C436642   3.200   9.558   4.562
   52SBC   C0CN36643   3.376   9.230   4.629
   52SBC   C0CP36644   3.023   9.279   4.625
   52SBC   C0CM36645   3.330   9.096   4.624
   52SBC   C0CI36646   3.300   8.826   4.528
   52SBC   C0CD36647   2.925   8.604   4.721
   52SBC   C0BR36648   2.976   8.965   4.714
   52SBC   C0CS36649   2.768   9.061   4.818
   52SBC   C0B636650   2.555   9.033   5.003
   52SBC   C0CG36651   2.765   8.705   4.867
   52SBC   C0CF36652   2.824   8.592   4.817
   52SBC   C0E536653   2.917   8.360   4.684
   52SBC   C0DT36654   2.861   8.116   4.783
   52SBC   C0DL36655   2.660   8.329   5.009
   52SBC   C0DM36656   2.565   8.312   5.107
   52SBC   C0DY36657   2.605   8.080   5.114
   52SBC   C0DU36658   2.845   7.996   4.843
   52SBC   C0F036659   2.837   7.759   4.814
   52SBC   C0F436660   2.700   7.521   4.844
   52SBC   C0FG36661   2.614   7.711   5.143
   52SBC   O00B36662   2.529   7.401   4.976
   52SBC   C0FN36663   2.500   7.680   5.217
   52SBC   C0DZ36664   2.574   7.949   5.160
   52SBC   O00C36665   2.294   8.015   5.369
   52SBC   C0FR36666   2.229   8.119   5.430
   52SBC   O00D36667   2.143   8.083   5.511
   52SBC   C0E036668   2.536   8.188   5.160
   52SBC   C0E336669   2.263   8.263   5.385
   52SBC   C0AW36670   2.198   8.376   5.435
   52SBC   C0AV36671   2.097   8.373   5.536
   52SBC   H00Q36672   2.082   8.288   5.601
   52SBC   C0AU36673   2.023   8.495   5.569
   52SBC   H00R36674   1.939   8.487   5.636
   52SBC   C0AT36675   2.059   8.622   5.509
   52SBC   C0AS36676   2.021   8.761   5.519
   52SBC   C0AR36677   1.898   8.799   5.572
   52SBC   C0BE36678   2.166   8.616   5.426
   52SBC   C0DN36679   2.496   8.428   5.146
   52SBC   C0AX36680   2.233   8.499   5.380
   52SBC   C0BB36681   2.464   8.666   5.145
   52SBC   C0BD36682   2.193   8.742   5.377
   52SBC   C0B236683   2.416   8.901   5.136
   52SBC   C0AH36684   2.266   9.123   5.229
   52SBC   C0BF36685   2.107   8.843   5.431
   52SBC   C0AL36686   2.089   9.284   5.343
   52SBC   C07U36687   1.927   9.046   5.560
   52SBC   C0AQ36688   1.871   8.932   5.610
   52SBC   C0BG36689   1.786   8.712   5.618
   52SBC   C0FY36690   1.465   8.855   5.655
   52SBC   C0BJ36691   1.701   8.651   5.515
   52SBC   H00S36692   1.737   8.620   5.418
   52SBC   C0FZ36693   1.389   8.809   5.544
   52SBC   C07S36694   1.457   8.992   5.693
   52SBC   C0G136695   1.130   9.043   5.519
   52SBC   C07K36696   1.146   9.358   5.728
   52SBC   C07H36697   1.415   9.269   5.753
   52SBC   C06B36698   1.453   9.530   6.001
   52SBC   C06N36699   1.638   9.622   5.902
   52SBC   C06636700   1.666   9.279   5.726
   52SBC   C06236701   1.874   9.421   5.554
   52SBC   C05Y36702   1.797   9.749   5.740
   52SBC   C06136703   1.893   9.523   5.458
   52SBC   C05H36704   2.000   9.873   5.494
   52SBC   C06V36705   2.019   9.531   5.388
   52SBC   C06Y36706   2.235   9.601   5.222
   52SBC   C05C36707   2.179   9.957   5.312
   52SBC   C06Z36708   2.380   9.740   5.097
   52SBC   C07036709   2.475   9.990   5.026
   52SBC   C05B36710   2.228  10.089   5.283
   52SBC   C05736711   2.343  10.338   5.224
   52SBC   C05936712   2.477  10.234   5.054
   53SBC   C05836713   0.709  10.116  13.966
   53SBC   C05A36714   0.738   9.990  13.913
   53SBC   C06Q36715   0.784   9.890  13.990
   53SBC   C06R36716   0.805   9.760  13.934
   53SBC   C06S36717   0.791   9.735  13.794
   53SBC   C06T36718   0.826   9.606  13.746
   53SBC   C06U36719   0.801   9.545  13.611
   53SBC   C06X36720   0.754   9.588  13.486
   53SBC   C06036721   0.742   9.484  13.394
   53SBC   C05Z36722   0.763   9.487  13.252
   53SBC   C06836723   0.856   9.370  13.228
   53SBC   C06736724   0.921   9.333  13.099
   53SBC   C06936725   0.873   9.384  12.971
   53SBC   C06A36726   0.929   9.361  12.836
   53SBC   C07336727   1.063   9.329  12.793
   53SBC   C07P36728   1.118   9.383  12.668
   53SBC   C07O36729   1.047   9.481  12.587
   53SBC   H00D36730   0.952   9.524  12.614
   53SBC   C07N36731   1.091   9.511  12.456
   53SBC   H00E36732   1.022   9.568  12.396
   53SBC   C07M36733   1.214   9.465  12.413
   53SBC   H00F36734   1.236   9.499  12.313
   53SBC   C07L36735   1.299   9.397  12.505
   53SBC   C07Q36736   1.438   9.366  12.489
   53SBC   H00G36737   1.489   9.402  12.401
   53SBC   O00F36738   1.519   9.307  12.573
   53SBC   C07J36739   1.458   9.239  12.668
   53SBC   C07I36740   1.322   9.273  12.708
   53SBC   N00436741   1.270   9.199  12.817
   53SBC   C07R36742   1.337   9.086  12.861
   53SBC   C07T36743   1.469   9.061  12.821
   53SBC   C0FX36744   1.543   8.963  12.878
   53SBC   C0FW36745   1.678   8.924  12.848
   53SBC   C0G036746   1.738   9.007  12.744
   53SBC   C0G236747   1.865   8.971  12.695
   53SBC   H01E36748   1.912   9.021  12.612
   53SBC   C0G336749   1.931   8.864  12.756
   53SBC   H01C36750   2.031   8.839  12.723
   53SBC   C0G436751   1.877   8.796  12.868
   53SBC   H01D36752   1.931   8.713  12.910
   53SBC   O00E36753   1.661   9.104  12.686
   53SBC   C0FV36754   1.747   8.822  12.915
   53SBC   C0FU36755   1.681   8.757  13.025
   53SBC   H01B36756   1.735   8.687  13.087
   53SBC   C0FT36757   1.543   8.783  13.048
   53SBC   C0FS36758   1.436   8.733  13.130
   53SBC   C0BI36759   1.315   8.787  13.071
   53SBC   C0BH36760   1.210   8.778  13.162
   53SBC   C07F36761   1.163   8.899  13.208
   53SBC   C07E36762   1.130   9.018  13.148
   53SBC   C07G36763   1.166   9.059  13.024
   53SBC   C07436764   1.116   9.182  12.995
   53SBC   C06536765   1.050   9.119  13.204
   53SBC   C06436766   1.031   9.105  13.342
   53SBC   C06336767   0.970   9.199  13.422
   53SBC   C07536768   0.982   9.138  13.558
   53SBC   C0AM36769   1.054   9.006  13.561
   53SBC   C0AN36770   1.087   8.916  13.677
   53SBC   C0AO36771   1.073   8.941  13.827
   53SBC   C0B136772   1.115   8.843  13.923
   53SBC   C0B036773   1.164   8.722  13.885
   53SBC   C0AZ36774   1.204   8.620  13.970
   53SBC   C0AY36775   1.247   8.499  13.914
   53SBC   N00736776   1.278   8.392  13.996
   53SBC   C0E236777   1.312   8.264  13.940
   53SBC   C0E136778   1.353   8.166  14.029
   53SBC   C0E436779   1.385   8.044  13.974
   53SBC   C0FF36780   1.428   7.939  14.053
   53SBC   C0FJ36781   1.456   7.790  14.035
   53SBC   C0FK36782   1.395   7.701  13.938
   53SBC   H01636783   1.344   7.713  13.844
   53SBC   C0FL36784   1.400   7.568  13.998
   53SBC   H01736785   1.364   7.474  13.958
   53SBC   C0FM36786   1.456   7.578  14.131
   53SBC   C0FH36787   1.463   7.524  14.270
   53SBC   C0FI36788   1.520   7.638  14.333
   53SBC   C0F336789   1.511   7.661  14.472
   53SBC   C0F236790   1.522   7.794  14.502
   53SBC   C0DW36791   1.515   7.903  14.417
   53SBC   C0FE36792   1.514   7.886  14.282
   53SBC   C0DV36793   1.484   8.027  14.470
   53SBC   C0DX36794   1.439   8.127  14.384
   53SBC   C0DK36795   1.398   8.249  14.439
   53SBC   C0DJ36796   1.407   8.272  14.576
   53SBC   C0DI36797   1.365   8.394  14.625
   53SBC   C0DH36798   1.316   8.492  14.542
   53SBC   C0DG36799   1.296   8.464  14.410
   53SBC   C0BV36800   1.242   8.560  14.326
   53SBC   C0BC36801   1.246   8.540  14.189
   53SBC   C0BA36802   1.199   8.682  14.378
   53SBC   C0B436803   1.150   8.775  14.289
   53SBC   C0B336804   1.155   8.763  14.150
   53SBC   C0B536805   1.100   8.894  14.344
   53SBC   C0BU36806   1.095   8.915  14.482
   53SBC   C0BT36807   1.149   8.821  14.570
   53SBC   C0BS36808   1.147   8.842  14.711
   53SBC   C0CC36809   1.212   8.742  14.797
   53SBC   C0CB36810   1.221   8.764  14.934
   53SBC   C0CH36811   1.308   8.676  15.002
   53SBC   C0DO36812   1.352   8.556  14.952
   53SBC   C0DP36813   1.406   8.452  15.039
   53SBC   C0EA36814   1.421   8.475  15.186
   53SBC   H01236815   1.419   8.572  15.235
   53SBC   O00936816   1.429   8.364  15.268
   53SBC   C0EH36817   1.405   8.240  15.214
   53SBC   C0EG36818   1.382   8.133  15.304
   53SBC   C0EJ36819   1.361   8.118  15.446
   53SBC   H01036820   1.370   8.202  15.515
   53SBC   C0EK36821   1.339   7.978  15.478
   53SBC   H00Z36822   1.340   7.933  15.576
   53SBC   C0EL36823   1.330   7.919  15.349
   53SBC   C0EM36824   1.319   7.778  15.312
   53SBC   C0EW36825   1.287   7.667  15.398
   53SBC   H01336826   1.289   7.683  15.505
   53SBC   C0EX36827   1.269   7.529  15.343
   53SBC   H01436828   1.247   7.446  15.409
   53SBC   C0F136829   1.292   7.507  15.197
   53SBC   C0EU36830   1.323   7.620  15.119
   53SBC   C0ET36831   1.362   7.619  14.984
   53SBC   C0ES36832   1.395   7.756  14.959
   53SBC   C0EE36833   1.375   7.836  15.070
   53SBC   C0ED36834   1.393   7.975  15.113
   53SBC   C0EC36835   1.408   8.083  15.027
   53SBC   C0EB36836   1.435   8.069  14.889
   53SBC   C0EN36837   1.463   7.941  14.823
   53SBC   C0ER36838   1.508   7.942  14.691
   53SBC   C0DS36839   1.445   8.180  14.803
   53SBC   C0DR36840   1.410   8.305  14.848
   53SBC   C0EY36841   1.460   7.802  14.848
   53SBC   C0EZ36842   1.477   7.719  14.733
   53SBC   C0F536843   1.444   7.581  14.692
   53SBC   C0F636844   1.391   7.478  14.780
   53SBC   N00836845   1.373   7.350  14.707
   53SBC   C0F736846   1.383   7.328  14.567
   53SBC   C0FQ36847   1.362   7.195  14.518
   53SBC   H01836848   1.391   7.179  14.416
   53SBC   C0FP36849   1.317   7.088  14.600
   53SBC   H01936850   1.304   6.987  14.566
   53SBC   C0FO36851   1.300   7.118  14.727
   53SBC   H01A36852   1.269   7.040  14.794
   53SBC   C0F836853   1.422   7.439  14.485
   53SBC   C0F936854   1.323   7.241  14.786
   53SBC   C0FA36855   1.305   7.254  14.928
   53SBC   H01536856   1.275   7.167  14.985
   53SBC   C0FB36857   1.320   7.374  14.997
   53SBC   C0FD36858   1.365   7.486  14.919
   53SBC   C0FC36859   1.291   7.381  15.134
   53SBC   O00A36860   1.252   7.278  15.196
   53SBC   C0EV36861   1.328   7.749  15.173
   53SBC   C0EF36862   1.371   8.008  15.250
   53SBC   C0EI36863   1.413   8.211  15.074
   53SBC   C0DQ36864   1.411   8.323  14.989
   53SBC   C0CE36865   1.333   8.535  14.817
   53SBC   H00U36866   1.335   8.711  15.100
   53SBC   C0CA36867   1.135   8.859  14.991
   53SBC   C0C936868   1.077   8.965  14.913
   53SBC   C0C836869   0.990   9.063  14.979
   53SBC   C0C736870   0.948   9.196  14.949
   53SBC   C0C636871   0.872   9.270  15.045
   53SBC   C0C536872   0.842   9.409  15.080
   53SBC   C0CQ36873   0.823   9.434  15.217
   53SBC   C0D136874   0.851   9.331  15.311
   53SBC   C0D836875   0.910   9.380  15.425
   53SBC   C0D736876   0.882   9.519  15.424
   53SBC   C0D636877   0.923   9.616  15.517
   53SBC   C0D536878   0.899   9.759  15.502
   53SBC   C0D436879   0.823   9.832  15.411
   53SBC   C0D336880   0.857   9.969  15.423
   53SBC   C0CX36881   0.847  10.027  15.288
   53SBC   C0CW36882   0.856   9.921  15.190
   53SBC   C0CV36883   0.854   9.906  15.042
   53SBC   C0D236884   0.844  10.026  14.960
   53SBC   C09D36885   0.824  10.159  15.002
   53SBC   C09C36886   0.809  10.266  14.907
   53SBC   C09B36887   0.788  10.404  14.934
   53SBC   C09A36888   0.756  10.432  15.069
   53SBC   C09936889   0.787  10.346  15.169
   53SBC   C09836890   0.713  10.376  15.280
   53SBC   C08Y36891   0.620  10.486  15.250
   53SBC   C08X36892   0.506  10.533  15.318
   53SBC   C08W36893   0.454  10.471  15.443
   53SBC   C08U36894   0.506  10.347  15.505
   53SBC   C08V36895   0.603  10.248  15.464
   53SBC   C0DC36896   0.606  10.150  15.571
   53SBC   H00W36897   0.671  10.064  15.579
   53SBC   C0DB36898   0.507  10.175  15.669
   53SBC   H00X36899   0.482  10.113  15.754
   53SBC   C08T36900   0.445  10.298  15.624
   53SBC   C08S36901   0.345  10.375  15.692
   53SBC   H00N36902   0.314  10.324  15.782
   53SBC   C08R36903   0.293  10.489  15.633
   53SBC   C08Q36904   0.186  10.566  15.692
   53SBC   H00O36905   0.152  10.541  15.792
   53SBC   C08P36906   0.119  10.671  15.635
   53SBC   C08O36907   0.010  10.744  15.699
   53SBC   H00P36908  -0.027  10.716  15.796
   53SBC   C08N36909  -0.055  10.854  15.632
   53SBC   C08M36910  -0.169  10.916  15.693
   53SBC   O00836911  -0.221  10.873  15.795
   53SBC   O00736912  -0.217  11.018  15.627
   53SBC   C08H36913  -0.185  11.054  15.502
   53SBC   C08G36914  -0.249  11.159  15.430
   53SBC   C03V36915  -0.361  11.234  15.472
   53SBC   H00936916  -0.389  11.217  15.576
   53SBC   C03U36917  -0.416  11.340  15.400
   53SBC   C03W36918  -0.518  11.434  15.445
   53SBC   H00A36919  -0.551  11.426  15.547
   53SBC   C03X36920  -0.559  11.527  15.354
   53SBC   H00B36921  -0.632  11.596  15.393
   53SBC   O00536922  -0.508  11.547  15.225
   53SBC   C03O36923  -0.409  11.468  15.187
   53SBC   C03N36924  -0.368  11.484  15.055
   53SBC   O00036925  -0.434  11.575  14.980
   53SBC   C01936926  -0.401  11.588  14.850
   53SBC   C01836927  -0.294  11.513  14.797
   53SBC   C01736928  -0.226  11.416  14.872
   53SBC   C01636929  -0.125  11.336  14.819
   53SBC   C01536930  -0.098  11.362  14.683
   53SBC   C01436931   0.015  11.297  14.626
   53SBC   C01336932   0.089  11.202  14.694
   53SBC   C01236933   0.184  11.149  14.599
   53SBC   C01136934   0.150  11.217  14.479
   53SBC   C01036935   0.228  11.207  14.373
   53SBC   C00Z36936   0.187  11.230  14.248
   53SBC   C00Y36937   0.259  11.143  14.168
   53SBC   C01O36938   0.354  11.070  14.242
   53SBC   C01P36939   0.399  10.942  14.195
   53SBC   C02L36940   0.450  10.857  14.287
   53SBC   C02K36941   0.432  10.899  14.422
   53SBC   C01M36942   0.349  11.014  14.472
   53SBC   C02J36943   0.502  10.813  14.510
   53SBC   C02I36944   0.514  10.827  14.650
   53SBC   C02H36945   0.439  10.912  14.736
   53SBC   C01Q36946   0.334  11.004  14.718
   53SBC   C02G36947   0.286  11.040  14.847
   53SBC   C08936948   0.376  10.981  14.946
   53SBC   C08836949   0.301  10.952  15.061
   53SBC   C08736950   0.173  11.023  15.036
   53SBC   C08636951   0.070  11.037  15.131
   53SBC   C03S36952  -0.038  11.129  15.126
   53SBC   N00636953  -0.103  11.117  15.246
   53SBC   C08F36954  -0.040  11.026  15.323
   53SBC   C01J36955  -0.101  11.218  15.033
   53SBC   C03R36956  -0.205  11.301  15.086
   53SBC   C03Q36957  -0.259  11.284  15.215
   53SBC   C08E36958   0.069  10.969  15.254
   53SBC   C08D36959   0.154  10.873  15.319
   53SBC   C08K36960   0.103  10.825  15.441
   53SBC   C08C36961   0.268  10.810  15.268
   53SBC   C09136962   0.325  10.701  15.335
   53SBC   C09236963   0.280  10.644  15.454
   53SBC   C08B36964   0.338  10.839  15.154
   53SBC   C09036965   0.444  10.737  15.151
   53SBC   C09436966   0.537  10.724  15.047
   53SBC   C09536967   0.635  10.628  15.035
   53SBC   C09R36968   0.681  10.623  14.904
   53SBC   C09736969   0.612  10.712  14.832
   53SBC   C09636970   0.528  10.785  14.917
   53SBC   C01I36971   0.165  11.092  14.903
   53SBC   C08A36972   0.452  10.890  14.874
   53SBC   C09L36973   0.601  10.729  14.694
   53SBC   C09K36974   0.647  10.661  14.578
   53SBC   C09J36975   0.713  10.534  14.589
   53SBC   C09I36976   0.711  10.435  14.488
   53SBC   C09O36977   0.670  10.418  14.350
   53SBC   C09N36978   0.621  10.522  14.273
   53SBC   C09M36979   0.574  10.651  14.319
   53SBC   C06O36980   0.597  10.493  14.134
   53SBC   C05M36981   0.639  10.372  14.083
   53SBC   C06P36982   0.694  10.271  14.155
   53SBC   C04236983   0.609  10.342  13.944
   53SBC   C04136984   0.532  10.426  13.863
   53SBC   C04036985   0.505  10.394  13.731
   53SBC   C03Z36986   0.434  10.483  13.649
   53SBC   C03Y36987   0.390  10.604  13.703
   53SBC   C02736988   0.307  10.687  13.627
   53SBC   C02636989   0.258  10.799  13.683
   53SBC   C02836990   0.168  10.877  13.616
   53SBC   C02936991   0.123  10.837  13.496
   53SBC   C02B36992   0.036  10.915  13.424
   53SBC   C02C36993   0.001  10.878  13.295
   53SBC   C02X36994  -0.087  10.956  13.225
   53SBC   C03E36995  -0.113  10.925  13.096
   53SBC   C03G36996  -0.060  10.821  13.027
   53SBC   C04Q36997   0.028  10.740  13.097
   53SBC   C04R36998   0.075  10.624  13.039
   53SBC   C04S36999   0.166  10.547  13.108
   53SBC   C04L37000   0.200  10.584  13.240
   53SBC   C04M37001   0.147  10.698  13.298
   53SBC   C04K37002   0.281  10.499  13.311
   53SBC   C04F37003   0.321  10.379  13.258
   53SBC   C04E37004   0.282  10.339  13.131
   53SBC   C04D37005   0.326  10.216  13.077
   53SBC   C05037006   0.292  10.181  12.951
   53SBC   C05137007   0.342  10.062  12.893
   53SBC   C05Q37008   0.318  10.035  12.762
   53SBC   C05V37009   0.368   9.918  12.711
   53SBC   N00537010   0.345   9.888  12.577
   53SBC   C07V37011   0.277   9.981  12.496
   53SBC   C08237012   0.248   9.948  12.361
   53SBC   C08137013   0.280   9.827  12.301
   53SBC   C07C37014   0.364   9.742  12.377
   53SBC   C07B37015   0.411   9.621  12.322
   53SBC   C08037016   0.380   9.589  12.191
   53SBC   C07Z37017   0.444   9.473  12.138
   53SBC   H00L37018   0.416   9.446  12.037
   53SBC   C07937019   0.534   9.393  12.204
   53SBC   C07837020   0.557   9.430  12.336
   53SBC   C07737021   0.658   9.367  12.411
   53SBC   C07X37022   0.729   9.253  12.354
   53SBC   H00I37023   0.810   9.201  12.402
   53SBC   C07Y37024   0.695   9.211  12.227
   53SBC   H00H37025   0.735   9.119  12.187
   53SBC   C07637026   0.681   9.399  12.542
   53SBC   C06C37027   0.790   9.338  12.610
   53SBC   H00C37028   0.861   9.267  12.572
   53SBC   C06F37029   0.611   9.498  12.606
   53SBC   C06E37030   0.632   9.528  12.740
   53SBC   C06G37031   0.565   9.624  12.808
   53SBC   C06H37032   0.489   9.712  12.728
   53SBC   C06I37033   0.470   9.691  12.591
   53SBC   C06L37034   0.594   9.645  12.947
   53SBC   C06M37035   0.687   9.567  13.027
   53SBC   C06K37036   0.544   9.766  13.000
   53SBC   C05S37037   0.467   9.854  12.921
   53SBC   C05U37038   0.564   9.797  13.130
   53SBC   C05X37039   0.641   9.708  13.219
   53SBC   C05G37040   0.659   9.758  13.356
   53SBC   C05F37041   0.616   9.882  13.392
   53SBC   C05E37042   0.649   9.921  13.523
   53SBC   C04837043   0.623  10.045  13.572
   53SBC   C05637044   0.649  10.065  13.705
   53SBC   C04537045   0.618  10.191  13.758
   53SBC   C04737046   0.558  10.130  13.485
   53SBC   C04937047   0.513  10.089  13.360
   53SBC   C04B37048   0.445  10.175  13.281
   53SBC   C04637049   0.518  10.244  13.538
   53SBC   C04H37050   0.437  10.326  13.462
   53SBC   C05D37051   0.712   9.820  13.583
   53SBC   C04A37052   0.541   9.966  13.308
   53SBC   C05T37053   0.515   9.924  13.180
   53SBC   C05537054   0.446  10.010  13.102
   53SBC   C06D37055   0.731   9.458  12.810
   53SBC   C07W37056   0.521   9.573  12.531
   53SBC   C08537057   0.596   9.277  12.161
   53SBC   H00M37058   0.557   9.241  12.067
   53SBC   C08437059   0.291   9.676  12.119
   53SBC   H00J37060   0.274   9.655  12.014
   53SBC   C07A37061   0.495   9.544  12.396
   53SBC   C08337062   0.230   9.783  12.180
   53SBC   H00K37063   0.150   9.844  12.139
   53SBC   O00K37064   0.182  10.041  12.287
   53SBC   C0GO37065   0.145  10.158  12.340
   53SBC   C0GN37066   0.061  10.242  12.266
   53SBC   H01L37067   0.042  10.214  12.163
   53SBC   C0GM37068   0.008  10.361  12.315
   53SBC   C0GL37069  -0.066  10.438  12.233
   53SBC   H01M37070  -0.076  10.428  12.126
   53SBC   O00J37071  -0.123  10.553  12.276
   53SBC   C0GK37072  -0.101  10.582  12.408
   53SBC   H01N37073  -0.145  10.675  12.441
   53SBC   C05K37074  -0.035  10.500  12.499
   53SBC   C05J37075  -0.014  10.540  12.634
   53SBC   C04Y37076  -0.054  10.662  12.701
   53SBC   C04X37077  -0.042  10.685  12.839
   53SBC   O00637078  -0.106  10.767  12.628
   53SBC   C05337079  -0.156  10.887  12.682
   53SBC   C04O37080  -0.155  10.905  12.820
   53SBC   C03C37081  -0.215  11.011  12.895
   53SBC   C03B37082  -0.291  11.133  12.872
   53SBC   C05437083  -0.297  11.192  12.744
   53SBC   C0GR37084  -0.332  11.331  12.725
   53SBC   C03M37085  -0.370  11.446  12.809
   53SBC   C03I37086  -0.385  11.447  12.951
   53SBC   C03J37087  -0.420  11.570  13.018
   53SBC   N00237088  -0.428  11.581  13.160
   53SBC   C02U37089  -0.459  11.702  13.226
   53SBC   C02T37090  -0.459  11.716  13.365
   53SBC   C02Z37091  -0.482  11.840  13.425
   53SBC   N00137092  -0.465  11.857  13.568
   53SBC   C02R37093  -0.490  11.986  13.627
   53SBC   C03237094  -0.534  12.089  13.540
   53SBC   C03137095  -0.549  12.071  13.400
   53SBC   H00737096  -0.582  12.153  13.337
   53SBC   C03337097  -0.569  12.212  13.607
   53SBC   H00337098  -0.593  12.301  13.550
   53SBC   O00437099  -0.568  12.227  13.742
   53SBC   C03437100  -0.512  12.127  13.821
   53SBC   C03537101  -0.499  12.145  13.958
   53SBC   C03637102  -0.419  12.058  14.027
   53SBC   H00537103  -0.384  12.088  14.124
   53SBC   C03737104  -0.381  11.936  13.973
   53SBC   H00637105  -0.320  11.874  14.037
   53SBC   C00D37106  -0.425  11.901  13.845
   53SBC   C00C37107  -0.398  11.773  13.792
   53SBC   C00B37108  -0.350  11.653  13.881
   53SBC   C00A37109  -0.267  11.635  14.008
   53SBC   C00937110  -0.174  11.531  13.966
   53SBC   C00837111  -0.098  11.447  14.049
   53SBC   C00737112  -0.099  11.465  14.185
   53SBC   C00637113  -0.019  11.384  14.265
   53SBC   C00537114  -0.041  11.385  14.407
   53SBC   C00437115  -0.145  11.461  14.462
   53SBC   C00337116  -0.227  11.537  14.378
   53SBC   C00237117  -0.335  11.595  14.433
   53SBC   C01C37118  -0.354  11.598  14.575
   53SBC   C01B37119  -0.449  11.687  14.639
   53SBC   H00037120  -0.501  11.757  14.575
   53SBC   C00137121  -0.431  11.646  14.345
   53SBC   C00037122  -0.407  11.658  14.205
   53SBC   C01U37123  -0.520  11.717  14.149
   53SBC   H00237124  -0.549  11.743  14.048
   53SBC   C01T37125  -0.614  11.749  14.261
   53SBC   O00237126  -0.713  11.816  14.249
   53SBC   O00137127  -0.557  11.709  14.376
   53SBC   C01S37128  -0.207  11.541  14.234
   53SBC   C00N37129  -0.036  11.343  13.989
   53SBC   C00M37130  -0.063  11.311  13.854
   53SBC   C00J37131  -0.157  11.371  13.785
   53SBC   C00I37132  -0.197  11.343  13.656
   53SBC   C00H37133  -0.292  11.422  13.589
   53SBC   C00G37134  -0.355  11.525  13.655
   53SBC   C00F37135  -0.412  11.632  13.587
   53SBC   C01X37136  -0.318  11.399  13.454
   53SBC   C01W37137  -0.258  11.290  13.396
   53SBC   C01V37138  -0.169  11.212  13.468
   53SBC   C02037139  -0.112  11.096  13.410
   53SBC   C01Z37140  -0.283  11.263  13.260
   53SBC   C02Y37141  -0.228  11.147  13.216
   53SBC   C03937142  -0.258  11.120  13.088
   53SBC   C02W37143  -0.346  11.360  13.177
   53SBC   C01Y37144  -0.383  11.497  13.381
   53SBC   C00U37145  -0.135  11.244  13.595
   53SBC   C00S37146  -0.036  11.174  13.662
   53SBC   C00T37147   0.028  11.068  13.601
   53SBC   C00R37148   0.002  11.208  13.794
   53SBC   C00Q37149   0.093  11.137  13.859
   53SBC   C00V37150   0.154  11.031  13.796
   53SBC   C02437151   0.253  10.955  13.863
   53SBC   C00X37152   0.288  10.990  13.987
   53SBC   C00P37153   0.123  11.169  13.988
   53SBC   C00O37154   0.059  11.271  14.057
   53SBC   C00K37155  -0.220  11.477  13.848
   53SBC   N00037156  -0.294  11.610  14.143
   53SBC   C00L37157  -0.330  11.547  13.797
   53SBC   H00437158  -0.525  12.238  14.007
   53SBC   C02Q37159  -0.477  11.998  13.766
   53SBC   C00E37160  -0.425  11.752  13.654
   53SBC   C03037161  -0.516  11.950  13.343
   53SBC   O00337162  -0.522  11.936  13.209
   53SBC   C02S37163  -0.422  11.613  13.447
   53SBC   C03837164  -0.488  11.815  13.149
   53SBC   C03L37165  -0.484  11.804  13.015
   53SBC   H00837166  -0.494  11.892  12.953
   53SBC   C02V37167  -0.386  11.477  13.241
   53SBC   C03K37168  -0.444  11.689  12.946
   53SBC   C0BK37169  -0.440  11.674  12.807
   53SBC   H00T37170  -0.462  11.767  12.756
   53SBC   C03H37171  -0.350  11.342  13.035
   53SBC   C0BL37172  -0.407  11.564  12.734
   53SBC   C0GU37173  -0.410  11.568  12.592
   53SBC   H01O37174  -0.448  11.658  12.545
   53SBC   C0GT37175  -0.364  11.459  12.515
   53SBC   H01P37176  -0.359  11.474  12.409
   53SBC   C0GS37177  -0.321  11.345  12.582
   53SBC   C0GV37178  -0.272  11.222  12.524
   53SBC   C0GW37179  -0.240  11.192  12.391
   53SBC   H01Q37180  -0.257  11.252  12.302
   53SBC   C0GX37181  -0.196  11.067  12.365
   53SBC   H01R37182  -0.184  11.053  12.258
   53SBC   O00L37183  -0.189  10.963  12.459
   53SBC   C0GQ37184  -0.252  11.122  12.626
   53SBC   C03A37185  -0.311  11.206  12.991
   53SBC   C05L37186  -0.205  10.989  12.593
   53SBC   C04W37187   0.056  10.447  12.717
   53SBC   C05I37188   0.118  10.332  12.664
   53SBC   C05O37189   0.111  10.306  12.530
   53SBC   C05237190   0.186  10.240  12.742
   53SBC   C04V37191   0.085  10.474  12.848
   53SBC   C04U37192   0.160  10.388  12.928
   53SBC   N00937193   0.034  10.388  12.449
   53SBC   C0GP37194   0.161  10.188  12.477
   53SBC   C05W37195   0.224  10.092  12.552
   53SBC   C07D37196   0.399   9.777  12.511
   53SBC   C06J37197   0.444   9.826  12.789
   53SBC   C05P37198   0.243  10.123  12.683
   53SBC   C05R37199   0.421   9.980  12.971
   53SBC   C04Z37200   0.213  10.272  12.873
   53SBC   C04C37201   0.406  10.131  13.153
   53SBC   C04G37202   0.403  10.296  13.331
   53SBC   C04J37203   0.319  10.532  13.443
   53SBC   C04T37204   0.201  10.424  13.057
   53SBC   N00337205   0.036  10.595  12.913
   53SBC   C04P37206  -0.086  10.807  12.896
   53SBC   C03D37207  -0.200  11.007  13.029
   53SBC   C02137208  -0.149  11.064  13.288
   53SBC   C03F37209   0.059  10.772  13.228
   53SBC   C02237210  -0.014  11.029  13.478
   53SBC   C02A37211   0.181  10.728  13.432
   53SBC   C02337212   0.117  10.993  13.672
   53SBC   C02537213   0.305  10.840  13.810
   53SBC   C02D37214   0.382  10.756  13.887
   53SBC   C02E37215   0.418  10.790  14.018
   53SBC   C02N37216   0.490  10.705  14.097
   53SBC   C04N37217   0.271  10.647  13.497
   53SBC   C02P37218   0.425  10.634  13.834
   53SBC   C04I37219   0.400  10.447  13.520
   53SBC   C04437220   0.546  10.276  13.674
   53SBC   C04337221   0.496  10.547  13.917
   53SBC   C05N37222   0.526  10.578  14.050
   53SBC   C09U37223   0.703  10.293  14.294
   53SBC   C09V37224   0.753  10.183  14.369
   53SBC   C09X37225   0.770  10.189  14.505
   53SBC   C09Y37226   0.815  10.092  14.591
   53SBC   C0A137227   0.835   9.970  14.539
   53SBC   C0A237228   0.818   9.952  14.402
   53SBC   C0A437229   0.839   9.825  14.347
   53SBC   C07137230   0.840   9.809  14.210
   53SBC   C0A537231   0.866   9.686  14.155
   53SBC   C0A937232   0.903   9.583  14.236
   53SBC   C0A837233   0.904   9.600  14.380
   53SBC   C0AP37234   0.929   9.489  14.458
   53SBC   C0BY37235   0.928   9.508  14.592
   53SBC   C0BX37236   0.908   9.628  14.652
   53SBC   C0C237237   0.897   9.639  14.788
   53SBC   C0C337238   0.868   9.764  14.847
   53SBC   C0CT37239   0.848   9.877  14.765
   53SBC   C0C137240   0.916   9.524  14.873
   53SBC   C0C037241   0.960   9.399  14.809
   53SBC   C0A737242   0.880   9.739  14.570
   53SBC   C0BZ37243   0.963   9.404  14.672
   53SBC   C0BO37244   0.980   9.275  14.620
   53SBC   C0BN37245   0.972   9.257  14.483
   53SBC   C0BM37246   1.009   9.133  14.442
   53SBC   C0B937247   1.021   9.116  14.308
   53SBC   C0B837248   0.988   9.220  14.220
   53SBC   C0AD37249   0.952   9.347  14.271
   53SBC   C0AF37250   0.993   9.199  14.085
   53SBC   C0AG37251   1.022   9.078  14.026
   53SBC   C0B737252   1.062   8.977  14.119
   53SBC   C0AE37253   0.965   9.308  14.007
   53SBC   C0AB37254   0.940   9.436  14.052
   53SBC   C0AA37255   0.890   9.539  13.972
   53SBC   C0AJ37256   0.942   9.284  13.875
   53SBC   C0AK37257   0.899   9.382  13.795
   53SBC   C06W37258   0.885   9.330  13.678
   53SBC   C0AI37259   0.962   9.162  13.813
   53SBC   C0BP37260   1.017   9.188  14.716
   53SBC   C0BQ37261   1.044   9.052  14.674
   53SBC   C0BW37262   0.948   9.365  14.406
   53SBC   C0AC37263   0.936   9.458  14.187
   53SBC   C0A637264   0.870   9.721  14.431
   53SBC   C0A337265   0.852   9.864  14.625
   53SBC   C09Z37266   0.818  10.103  14.728
   53SBC   C09W37267   0.778  10.056  14.319
   53SBC   C07237268   0.770  10.039  14.183
   53SBC   C09H37269   0.759  10.316  14.547
   53SBC   C09G37270   0.787  10.340  14.685
   53SBC   C09P37271   0.761  10.472  14.712
   53SBC   C02O37272   0.577  10.695  14.460
   53SBC   C02M37273   0.506  10.739  14.233
   53SBC   C02F37274   0.376  10.911  14.065
   53SBC   C00W37275   0.227  11.103  14.038
   53SBC   C01R37276   0.074  11.303  14.192
   53SBC   C01N37277   0.317  11.097  14.370
   53SBC   C01L37278   0.289  11.050  14.596
   53SBC   C01H37279   0.062  11.172  14.835
   53SBC   C01K37280   0.043  11.302  14.494
   53SBC   C01E37281  -0.173  11.451  14.603
   53SBC   C01G37282  -0.053  11.239  14.902
   53SBC   C01D37283  -0.275  11.518  14.659
   53SBC   C01A37284  -0.472  11.684  14.772
   53SBC   H00137285  -0.537  11.760  14.813
   53SBC   C01F37286  -0.265  11.398  15.006
   53SBC   C03P37287  -0.359  11.361  15.269
   53SBC   C03T37288  -0.207  11.189  15.298
   53SBC   C08I37289  -0.077  10.989  15.443
   53SBC   C08J37290  -0.007  10.892  15.507
   53SBC   C08L37291   0.163  10.715  15.508
   53SBC   C09337292   0.347  10.537  15.510
   53SBC   C08Z37293   0.434  10.650  15.267
   53SBC   C09T37294   0.699  10.258  15.355
   53SBC   C09S37295   0.672  10.530  15.123
   53SBC   C09Q37296   0.751  10.509  14.845
   53SBC   C09F37297   0.807  10.231  14.776
   53SBC   C09E37298   0.795  10.208  15.140
   53SBC   C0A037299   0.839  10.000  14.818
   53SBC   C0CU37300   0.863   9.775  14.986
   53SBC   C0CR37301   0.856   9.660  15.071
   53SBC   C0CZ37302   0.843   9.672  15.209
   53SBC   C0DA37303   0.768  10.149  15.268
   53SBC   C0D937304   0.975   9.968  15.516
   53SBC   H00V37305   1.031  10.060  15.527
   53SBC   C0CY37306   0.841   9.803  15.269
   53SBC   C0DF37307   0.995   9.838  15.564
   53SBC   C0DE37308   1.090   9.745  15.631
   53SBC   C0GI37309   1.203   9.766  15.710
   53SBC   H01K37310   1.247   9.863  15.728
   53SBC   C0GJ37311   1.258   9.652  15.762
   53SBC   H01J37312   1.339   9.676  15.830
   53SBC   O00I37313   1.216   9.518  15.737
   53SBC   C0GH37314   1.112   9.496  15.651
   53SBC   C0GG37315   1.095   9.355  15.608
   53SBC   O00G37316   1.174   9.271  15.679
   53SBC   C0G837317   1.176   9.136  15.646
   53SBC   C0G937318   1.219   9.056  15.752
   53SBC   H01G37319   1.261   9.107  15.837
   53SBC   C0GA37320   1.208   8.916  15.733
   53SBC   H01H37321   1.251   8.853  15.810
   53SBC   C0GB37322   1.165   8.857  15.612
   53SBC   C0EP37323   1.137   8.944  15.503
   53SBC   C0E837324   1.130   8.890  15.368
   53SBC   C0CK37325   1.119   8.946  15.239
   53SBC   C0CL37326   1.012   9.040  15.227
   53SBC   C0E937327   0.985   9.138  15.327
   53SBC   C0GE37328   1.043   9.176  15.453
   53SBC   C0E737329   1.127   8.754  15.346
   53SBC   C0CJ37330   1.109   8.720  15.214
   53SBC   C0E637331   1.084   8.586  15.188
   53SBC   H00Y37332   1.062   8.547  15.090
   53SBC   C0EO37333   1.098   8.494  15.297
   53SBC   H01137334   1.094   8.388  15.278
   53SBC   C0G637335   1.120   8.539  15.434
   53SBC   C0G537336   1.128   8.447  15.551
   53SBC   H01F37337   1.111   8.340  15.550
   53SBC   C0GD37338   1.155   8.498  15.672
   53SBC   H01I37339   1.170   8.436  15.759
   53SBC   O00H37340   1.173   8.633  15.695
   53SBC   C0EQ37341   1.137   8.672  15.459
   53SBC   C0GC37342   1.165   8.718  15.588
   53SBC   C0G737343   1.125   9.081  15.523
   53SBC   C0DD37344   1.045   9.611  15.600
   53SBC   C0GF37345   1.006   9.307  15.504
   53SBC   C0CO37346   0.884   9.209  15.265
   53SBC   C0D037347   0.849   9.550  15.282
   53SBC   C0C437348   0.877   9.529  15.007
   53SBC   C0CN37349   0.850   9.166  15.139
   53SBC   C0CP37350   0.992   9.257  14.838
   53SBC   C0CM37351   0.928   9.052  15.109
   53SBC   C0CI37352   1.127   8.841  15.137
   53SBC   C0CD37353   1.273   8.629  14.736
   53SBC   C0BR37354   1.090   8.958  14.766
   53SBC   C0CS37355   1.051   9.036  14.534
   53SBC   C0B637356   1.060   8.996  14.256
   53SBC   C0CG37357   1.203   8.702  14.517
   53SBC   C0CF37358   1.264   8.604  14.599
   53SBC   C0E537359   1.374   8.414  14.763
   53SBC   C0DT37360   1.455   8.166  14.661
   53SBC   C0DL37361   1.339   8.343  14.357
   53SBC   C0DM37362   1.329   8.315  14.217
   53SBC   C0DY37363   1.423   8.100  14.250
   53SBC   C0DU37364   1.478   8.046  14.603
   53SBC   C0F037365   1.512   7.815  14.636
   53SBC   C0F437366   1.462   7.559  14.554
   53SBC   C0FG37367   1.530   7.748  14.249
   53SBC   O00B37368   1.422   7.416  14.348
   53SBC   C0FN37369   1.508   7.705  14.127
   53SBC   C0DZ37370   1.456   7.973  14.190
   53SBC   O00C37371   1.373   8.017  13.841
   53SBC   C0FR37372   1.360   8.116  13.750
   53SBC   O00D37373   1.398   8.092  13.636
   53SBC   C0E037374   1.365   8.193  14.165
   53SBC   C0E337375   1.323   8.248  13.802
   53SBC   C0AW37376   1.299   8.357  13.717
   53SBC   C0AV37377   1.321   8.359  13.575
   53SBC   H00Q37378   1.381   8.281  13.529
   53SBC   C0AU37379   1.278   8.467  13.496
   53SBC   H00R37380   1.303   8.475  13.392
   53SBC   C0AT37381   1.225   8.579  13.564
   53SBC   C0AS37382   1.183   8.716  13.530
   53SBC   C0AR37383   1.207   8.769  13.397
   53SBC   C0BE37384   1.220   8.583  13.699
   53SBC   C0DN37385   1.285   8.412  14.136
   53SBC   C0AX37386   1.256   8.474  13.782
   53SBC   C0BB37387   1.202   8.640  14.104
   53SBC   C0BD37388   1.167   8.697  13.747
   53SBC   C0B237389   1.107   8.861  14.062
   53SBC   C0AH37390   1.027   9.061  13.890
   53SBC   C0BF37391   1.142   8.788  13.648
   53SBC   C0AL37392   0.930   9.191  13.678
   53SBC   C07U37393   1.077   8.994  13.417
   53SBC   C0AQ37394   1.145   8.892  13.346
   53SBC   C0BG37395   1.256   8.709  13.273
   53SBC   C0FY37396   1.337   8.876  12.974
   53SBC   C0BJ37397   1.397   8.671  13.254
   53SBC   H00S37398   1.461   8.624  13.328
   53SBC   C0FZ37399   1.475   8.876  12.965
   53SBC   C07S37400   1.269   8.996  12.947
   53SBC   C0G137401   1.536   9.139  12.728
   53SBC   C07K37402   1.246   9.352  12.627
   53SBC   C07H37403   1.142   9.233  12.866
   53SBC   C06B37404   0.819   9.373  12.743
   53SBC   C06N37405   0.759   9.472  12.943
   53SBC   C06637406   1.018   9.221  13.098
   53SBC   C06237407   0.877   9.303  13.363
   53SBC   C05Y37408   0.695   9.587  13.169
   53SBC   C06137409   0.789   9.371  13.453
   53SBC   C05H37410   0.717   9.716  13.476
   53SBC   C06V37411   0.829   9.408  13.583
   53SBC   C06Y37412   0.872   9.517  13.840
   53SBC   C05C37413   0.737   9.837  13.725
   53SBC   C06Z37414   0.850   9.663  14.022
   53SBC   C07037415   0.804   9.915  14.129
   53SBC   C05B37416   0.708   9.964  13.783
   53SBC   C05737417   0.646  10.217  13.891
   53SBC   C05937418   0.730  10.146  14.099
   54SBC   C05837419   9.073   5.101  10.637
   54SBC   C05A37420   8.979   5.120  10.743
   54SBC   C06Q37421   8.901   5.233  10.741
   54SBC   C06R37422   8.807   5.253  10.847
   54SBC   C06S37423   8.789   5.164  10.955
   54SBC   C06T37424   8.694   5.192  11.053
   54SBC   C06U37425   8.664   5.131  11.185
   54SBC   C06X37426   8.703   5.006  11.245
   54SBC   C06037427   8.658   4.990  11.378
   54SBC   C05Z37428   8.609   4.870  11.438
   54SBC   C06837429   8.490   4.924  11.514
   54SBC   C06737430   8.415   4.867  11.624
   54SBC   C06937431   8.474   4.755  11.689
   54SBC   C06A37432   8.446   4.717  11.830
   54SBC   C07337433   8.371   4.769  11.929
   54SBC   C07P37434   8.417   4.759  12.061
   54SBC   C07O37435   8.556   4.759  12.101
   54SBC   H00D37436   8.643   4.750  12.038
   54SBC   C07N37437   8.582   4.738  12.237
   54SBC   H00E37438   8.685   4.737  12.269
   54SBC   C07M37439   8.483   4.734  12.335
   54SBC   H00F37440   8.511   4.725  12.439
   54SBC   C07L37441   8.352   4.739  12.296
   54SBC   C07Q37442   8.251   4.727  12.389
   54SBC   H00G37443   8.282   4.730  12.493
   54SBC   O00F37444   8.121   4.708  12.361
   54SBC   C07J37445   8.084   4.741  12.232
   54SBC   C07I37446   8.185   4.758  12.131
   54SBC   N00437447   8.144   4.794  12.004
   54SBC   C07R37448   8.006   4.824  11.983
   54SBC   C07T37449   7.912   4.819  12.093
   54SBC   C0FX37450   7.779   4.862  12.080
   54SBC   C0FW37451   7.685   4.867  12.182
   54SBC   C0G037452   7.730   4.813  12.307
   54SBC   C0G237453   7.634   4.808  12.415
   54SBC   H01E37454   7.667   4.774  12.512
   54SBC   C0G337455   7.507   4.868  12.397
   54SBC   H01C37456   7.433   4.857  12.475
   54SBC   C0G437457   7.487   4.949  12.280
   54SBC   H01D37458   7.394   5.003  12.266
   54SBC   O00E37459   7.861   4.773  12.329
   54SBC   C0FV37460   7.569   4.948  12.166
   54SBC   C0FU37461   7.549   5.019  12.041
   54SBC   H01B37462   7.471   5.091  12.024
   54SBC   C0FT37463   7.636   4.995  11.940
   54SBC   C0FS37464   7.662   5.051  11.804
   54SBC   C0BI37465   7.761   4.970  11.741
   54SBC   C0BH37466   7.814   5.051  11.638
   54SBC   C07F37467   7.954   5.060  11.614
   54SBC   C07E37468   8.058   4.979  11.651
   54SBC   C07G37469   8.065   4.887  11.756
   54SBC   C07437470   8.195   4.844  11.770
   54SBC   C06537471   8.189   4.997  11.606
   54SBC   C06437472   8.212   5.115  11.535
   54SBC   C06337473   8.334   5.154  11.481
   54SBC   C07537474   8.301   5.281  11.413
   54SBC   C0AM37475   8.167   5.326  11.441
   54SBC   C0AN37476   8.093   5.447  11.404
   54SBC   C0AO37477   8.122   5.553  11.299
   54SBC   C0B137478   8.042   5.669  11.276
   54SBC   C0B037479   7.941   5.703  11.367
   54SBC   C0AZ37480   7.864   5.819  11.364
   54SBC   C0AY37481   7.772   5.838  11.466
   54SBC   N00737482   7.677   5.946  11.453
   54SBC   C0E237483   7.570   5.954  11.544
   54SBC   C0E137484   7.484   6.063  11.525
   54SBC   C0E437485   7.372   6.079  11.609
   54SBC   C0FF37486   7.286   6.189  11.605
   54SBC   C0FJ37487   7.161   6.235  11.680
   54SBC   C0FK37488   7.056   6.160  11.744
   54SBC   H01637489   7.053   6.055  11.769
   54SBC   C0FL37490   6.937   6.251  11.749
   54SBC   H01737491   6.836   6.228  11.777
   54SBC   C0FM37492   6.972   6.374  11.689
   54SBC   C0FH37493   6.945   6.508  11.628
   54SBC   C0FI37494   7.065   6.538  11.559
   54SBC   C0F337495   7.070   6.617  11.443
   54SBC   C0F237496   7.180   6.598  11.374
   54SBC   C0DW37497   7.269   6.496  11.391
   54SBC   C0FE37498   7.261   6.413  11.497
   54SBC   C0DV37499   7.370   6.469  11.297
   54SBC   C0DX37500   7.444   6.350  11.305
   54SBC   C0DK37501   7.539   6.332  11.210
   54SBC   C0DJ37502   7.550   6.420  11.098
   54SBC   C0DI37503   7.646   6.399  11.002
   54SBC   C0DH37504   7.736   6.294  11.021
   54SBC   C0DG37505   7.732   6.215  11.133
   54SBC   C0BV37506   7.816   6.103  11.143
   54SBC   C0BC37507   7.803   6.018  11.250
   54SBC   C0BA37508   7.912   6.072  11.045
   54SBC   C0B437509   7.997   5.963  11.057
   54SBC   C0B337510   7.980   5.876  11.166
   54SBC   C0B537511   8.093   5.944  10.964
   54SBC   C0BU37512   8.105   6.029  10.851
   54SBC   C0BT37513   8.014   6.133  10.835
   54SBC   C0BS37514   7.997   6.201  10.712
   54SBC   C0CC37515   7.916   6.315  10.698
   54SBC   C0CB37516   7.905   6.383  10.575
   54SBC   C0CH37517   7.853   6.518  10.591
   54SBC   C0DO37518   7.771   6.559  10.697
   54SBC   C0DP37519   7.673   6.663  10.677
   54SBC   C0EA37520   7.675   6.754  10.562
   54SBC   H01237521   7.756   6.753  10.491
   54SBC   O00937522   7.577   6.838  10.534
   54SBC   C0EH37523   7.467   6.843  10.618
   54SBC   C0EG37524   7.358   6.913  10.581
   54SBC   C0EJ37525   7.334   7.001  10.470
   54SBC   H01037526   7.410   7.016  10.394
   54SBC   C0EK37527   7.206   7.071  10.494
   54SBC   H00Z37528   7.160   7.147  10.433
   54SBC   C0EL37529   7.151   7.020  10.619
   54SBC   C0EM37530   7.044   7.057  10.698
   54SBC   C0EW37531   6.947   7.158  10.681
   54SBC   H01337532   6.948   7.207  10.584
   54SBC   C0EX37533   6.842   7.191  10.779
   54SBC   H01437534   6.779   7.278  10.767
   54SBC   C0F137535   6.841   7.111  10.897
   54SBC   C0EU37536   6.938   7.011  10.918
   54SBC   C0ET37537   6.951   6.940  11.036
   54SBC   C0ES37538   7.076   6.868  11.009
   54SBC   C0EE37539   7.126   6.899  10.879
   54SBC   C0ED37540   7.241   6.874  10.794
   54SBC   C0EC37541   7.346   6.786  10.832
   54SBC   C0EB37542   7.357   6.707  10.948
   54SBC   C0EN37543   7.259   6.715  11.055
   54SBC   C0ER37544   7.288   6.648  11.171
   54SBC   C0DS37545   7.457   6.608  10.967
   54SBC   C0DR37546   7.557   6.584  10.873
   54SBC   C0EY37547   7.135   6.783  11.094
   54SBC   C0EZ37548   7.085   6.758  11.220
   54SBC   C0F537549   6.966   6.776  11.299
   54SBC   C0F637550   6.861   6.857  11.257
   54SBC   N00837551   6.754   6.863  11.351
   54SBC   C0F737552   6.747   6.775  11.462
   54SBC   C0FQ37553   6.635   6.783  11.545
   54SBC   H01837554   6.631   6.707  11.622
   54SBC   C0FP37555   6.530   6.877  11.530
   54SBC   H01937556   6.447   6.883  11.598
   54SBC   C0FO37557   6.540   6.966  11.424
   54SBC   H01A37558   6.461   7.039  11.415
   54SBC   C0F837559   6.853   6.686  11.489
   54SBC   C0F937560   6.648   6.953  11.331
   54SBC   C0FA37561   6.643   7.035  11.211
   54SBC   H01537562   6.560   7.101  11.193
   54SBC   C0FB37563   6.745   7.022  11.116
   54SBC   C0FD37564   6.854   6.941  11.141
   54SBC   C0FC37565   6.737   7.115  11.000
   54SBC   O00A37566   6.643   7.197  10.991
   54SBC   C0EV37567   7.033   6.988  10.820
   54SBC   C0EF37568   7.251   6.933  10.665
   54SBC   C0EI37569   7.454   6.767  10.742
   54SBC   C0DQ37570   7.562   6.674  10.764
   54SBC   C0CE37571   7.756   6.468  10.803
   54SBC   H00U37572   7.877   6.587  10.511
   54SBC   C0CA37573   7.936   6.311  10.452
   54SBC   C0C937574   8.030   6.202  10.468
   54SBC   C0C837575   8.066   6.131  10.344
   54SBC   C0C737576   8.180   6.051  10.317
   54SBC   C0C637577   8.184   5.997  10.188
   54SBC   C0C537578   8.282   5.964  10.082
   54SBC   C0CQ37579   8.244   5.972   9.949
   54SBC   C0D137580   8.126   6.036   9.914
   54SBC   C0D837581   8.149   6.118   9.799
   54SBC   C0D737582   8.261   6.064   9.738
   54SBC   C0D637583   8.328   6.117   9.626
   54SBC   C0D537584   8.446   6.056   9.574
   54SBC   C0D437585   8.528   5.949   9.608
   54SBC   C0D337586   8.654   5.963   9.548
   54SBC   C0CX37587   8.763   5.908   9.637
   54SBC   C0CW37588   8.695   5.892   9.768
   54SBC   C0CV37589   8.728   5.833   9.902
   54SBC   C0D237590   8.848   5.762   9.921
   54SBC   C09D37591   8.960   5.752   9.836
   54SBC   C09C37592   9.080   5.674   9.865
   54SBC   C09B37593   9.194   5.636   9.785
   54SBC   C09A37594   9.187   5.691   9.653
   54SBC   C09937595   9.089   5.776   9.615
   54SBC   C09837596   9.070   5.782   9.472
   54SBC   C08Y37597   9.156   5.670   9.425
   54SBC   C08X37598   9.157   5.605   9.297
   54SBC   C08W37599   9.062   5.650   9.193
   54SBC   C08U37600   8.940   5.723   9.202
   54SBC   C08V37601   8.871   5.770   9.317
   54SBC   C0DC37602   8.762   5.836   9.265
   54SBC   H00W37603   8.691   5.883   9.332
   54SBC   C0DB37604   8.759   5.832   9.121
   54SBC   H00X37605   8.689   5.870   9.048
   54SBC   C08T37606   8.878   5.765   9.084
   54SBC   C08S37607   8.908   5.733   8.956
   54SBC   H00N37608   8.860   5.774   8.868
   54SBC   C08R37609   9.011   5.646   8.947
   54SBC   C08Q37610   9.051   5.595   8.815
   54SBC   H00O37611   8.999   5.626   8.725
   54SBC   C08P37612   9.148   5.499   8.794
   54SBC   C08O37613   9.173   5.445   8.664
   54SBC   H00P37614   9.117   5.481   8.579
   54SBC   C08N37615   9.269   5.335   8.647
   54SBC   C08M37616   9.279   5.270   8.516
   54SBC   O00837617   9.217   5.301   8.416
   54SBC   O00737618   9.379   5.168   8.504
   54SBC   C08H37619   9.436   5.117   8.619
   54SBC   C08G37620   9.503   4.991   8.613
   54SBC   C03V37621   9.523   4.909   8.500
   54SBC   H00937622   9.482   4.942   8.405
   54SBC   C03U37623   9.584   4.785   8.505
   54SBC   C03W37624   9.606   4.697   8.389
   54SBC   H00A37625   9.567   4.725   8.293
   54SBC   C03X37626   9.662   4.579   8.405
   54SBC   H00B37627   9.670   4.513   8.321
   54SBC   O00537628   9.712   4.536   8.528
   54SBC   C03O37629   9.710   4.625   8.637
   54SBC   C03N37630   9.756   4.585   8.763
   54SBC   O00037631   9.822   4.464   8.760
   54SBC   C01937632   9.858   4.407   8.878
   54SBC   C01837633   9.837   4.475   9.004
   54SBC   C01737634   9.774   4.602   9.004
   54SBC   C01637635   9.757   4.673   9.117
   54SBC   C01537636   9.803   4.606   9.233
   54SBC   C01437637   9.783   4.671   9.357
   54SBC   C01337638   9.717   4.799   9.368
   54SBC   C01237639   9.727   4.826   9.514
   54SBC   C01137640   9.803   4.720   9.571
   54SBC   C01037641   9.824   4.714   9.702
   54SBC   C00Z37642   9.861   4.601   9.772
   54SBC   C00Y37643   9.840   4.646   9.908
   54SBC   C01O37644   9.780   4.770   9.920
   54SBC   C01P37645   9.691   4.806  10.021
   54SBC   C02L37646   9.612   4.918   9.996
   54SBC   C02K37647   9.617   4.969   9.867
   54SBC   C01M37648   9.681   4.906   9.751
   54SBC   C02J37649   9.545   5.088   9.859
   54SBC   C02I37650   9.525   5.174   9.753
   54SBC   C02H37651   9.560   5.149   9.618
   54SBC   C01Q37652   9.613   5.038   9.554
   54SBC   C02G37653   9.610   5.070   9.411
   54SBC   C08937654   9.577   5.203   9.392
   54SBC   C08837655   9.505   5.212   9.270
   54SBC   C08737656   9.548   5.095   9.196
   54SBC   C08637657   9.533   5.082   9.058
   54SBC   C03S37658   9.572   4.974   8.975
   54SBC   N00637659   9.533   5.008   8.844
   54SBC   C08F37660   9.474   5.129   8.845
   54SBC   C01J37661   9.639   4.854   8.993
   54SBC   C03R37662   9.664   4.774   8.875
   54SBC   C03Q37663   9.616   4.818   8.747
   54SBC   C08E37664   9.467   5.183   8.971
   54SBC   C08D37665   9.386   5.293   8.994
   54SBC   C08K37666   9.313   5.344   8.885
   54SBC   C08C37667   9.357   5.356   9.121
   54SBC   C09137668   9.263   5.455   9.129
   54SBC   C09237669   9.193   5.508   9.027
   54SBC   C08B37670   9.399   5.321   9.251
   54SBC   C09037671   9.352   5.426   9.340
   54SBC   C09437672   9.387   5.447   9.476
   54SBC   C09537673   9.325   5.531   9.561
   54SBC   C09R37674   9.351   5.492   9.692
   54SBC   C09737675   9.430   5.378   9.689
   54SBC   C09637676   9.455   5.352   9.556
   54SBC   C01I37677   9.617   5.001   9.285
   54SBC   C08A37678   9.528   5.241   9.520
   54SBC   C09L37679   9.469   5.292   9.790
   54SBC   C09K37680   9.429   5.275   9.927
   54SBC   C09J37681   9.337   5.357   9.993
   54SBC   C09I37682   9.279   5.333  10.118
   54SBC   C09O37683   9.280   5.230  10.219
   54SBC   C09N37684   9.371   5.118  10.212
   54SBC   C09M37685   9.461   5.077  10.106
   54SBC   C06O37686   9.360   5.025  10.319
   54SBC   C05M37687   9.268   5.052  10.428
   54SBC   C06P37688   9.175   5.164  10.425
   54SBC   C04237689   9.251   4.962  10.534
   54SBC   C04137690   9.323   4.841  10.530
   54SBC   C04037691   9.305   4.752  10.632
   54SBC   C03Z37692   9.378   4.633  10.638
   54SBC   C03Y37693   9.464   4.602  10.536
   54SBC   C02737694   9.534   4.480  10.533
   54SBC   C02637695   9.624   4.453  10.434
   54SBC   C02837696   9.689   4.332  10.424
   54SBC   C02937697   9.658   4.235  10.521
   54SBC   C02B37698   9.706   4.110  10.507
   54SBC   C02C37699   9.683   4.012  10.608
   54SBC   C02X37700   9.734   3.886  10.591
   54SBC   C03E37701   9.695   3.785  10.676
   54SBC   C03G37702   9.611   3.802  10.782
   54SBC   C04Q37703   9.553   3.932  10.799
   54SBC   C04R37704   9.460   3.958  10.897
   54SBC   C04S37705   9.412   4.082  10.918
   54SBC   C04L37706   9.450   4.189  10.827
   54SBC   C04M37707   9.541   4.165  10.727
   54SBC   C04K37708   9.389   4.316  10.831
   54SBC   C04F37709   9.293   4.337  10.930
   54SBC   C04E37710   9.261   4.241  11.027
   54SBC   C04D37711   9.168   4.268  11.124
   54SBC   C05037712   9.136   4.172  11.213
   54SBC   C05137713   9.041   4.198  11.313
   54SBC   C05Q37714   8.999   4.097  11.398
   54SBC   C05V37715   8.899   4.124  11.494
   54SBC   N00537716   8.873   4.027  11.594
   54SBC   C07V37717   8.935   3.903  11.583
   54SBC   C08237718   8.888   3.803  11.660
   54SBC   C08137719   8.805   3.820  11.766
   54SBC   C07C37720   8.749   3.946  11.781
   54SBC   C07B37721   8.659   3.968  11.888
   54SBC   C08037722   8.620   3.865  11.972
   54SBC   C07Z37723   8.524   3.891  12.074
   54SBC   H00L37724   8.504   3.812  12.145
   54SBC   C07937725   8.462   4.020  12.092
   54SBC   C07837726   8.503   4.120  12.002
   54SBC   C07737727   8.442   4.244  12.009
   54SBC   C07X37728   8.345   4.274  12.109
   54SBC   H00I37729   8.289   4.365  12.123
   54SBC   C07Y37730   8.309   4.173  12.200
   54SBC   H00H37731   8.229   4.178  12.272
   54SBC   C07637732   8.483   4.348  11.928
   54SBC   C06C37733   8.436   4.479  11.939
   54SBC   H00C37734   8.372   4.511  12.021
   54SBC   C06F37735   8.575   4.324  11.826
   54SBC   C06E37736   8.611   4.420  11.726
   54SBC   C06G37737   8.689   4.405  11.615
   54SBC   C06H37738   8.744   4.274  11.607
   54SBC   C06I37739   8.715   4.176  11.701
   54SBC   C06L37740   8.713   4.511  11.524
   54SBC   C06M37741   8.648   4.640  11.526
   54SBC   C06K37742   8.804   4.480  11.419
   54SBC   C05S37743   8.864   4.350  11.410
   54SBC   C05U37744   8.845   4.577  11.330
   54SBC   C05X37745   8.779   4.708  11.332
   54SBC   C05G37746   8.830   4.794  11.225
   54SBC   C05F37747   8.926   4.749  11.137
   54SBC   C05E37748   8.951   4.845  11.038
   54SBC   C04837749   9.044   4.824  10.934
   54SBC   C05637750   9.050   4.918  10.842
   54SBC   C04537751   9.137   4.891  10.732
   54SBC   C04737752   9.107   4.706  10.935
   54SBC   C04937753   9.086   4.611  11.036
   54SBC   C04B37754   9.144   4.486  11.036
   54SBC   C04637755   9.196   4.676  10.833
   54SBC   C04H37756   9.263   4.554  10.831
   54SBC   C05D37757   8.868   4.955  11.063
   54SBC   C04A37758   8.987   4.626  11.134
   54SBC   C05T37759   8.946   4.543  11.236
   54SBC   C05537760   9.010   4.422  11.232
   54SBC   C06D37761   8.558   4.549  11.740
   54SBC   C07W37762   8.633   4.197  11.815
   54SBC   C08537763   8.369   4.051  12.192
   54SBC   H00M37764   8.351   3.962  12.251
   54SBC   C08437765   8.689   3.743  11.963
   54SBC   H00J37766   8.667   3.666  12.035
   54SBC   C07A37767   8.604   4.095  11.907
   54SBC   C08337768   8.774   3.720  11.859
   54SBC   H00K37769   8.815   3.621  11.855
   54SBC   O00K37770   8.949   3.679  11.658
   54SBC   C0GO37771   9.040   3.648  11.561
   54SBC   C0GN37772   9.108   3.526  11.556
   54SBC   H01L37773   9.088   3.458  11.638
   54SBC   C0GM37774   9.201   3.487  11.451
   54SBC   C0GL37775   9.259   3.368  11.453
   54SBC   H01M37776   9.247   3.299  11.536
   54SBC   O00J37777   9.329   3.323  11.346
   54SBC   C0GK37778   9.347   3.414  11.244
   54SBC   H01N37779   9.415   3.373  11.171
   54SBC   C05K37780   9.312   3.548  11.252
   54SBC   C05J37781   9.354   3.646  11.159
   54SBC   C04Y37782   9.435   3.621  11.045
   54SBC   C04X37783   9.479   3.723  10.964
   54SBC   O00637784   9.485   3.497  11.024
   54SBC   C05337785   9.563   3.458  10.918
   54SBC   C04O37786   9.622   3.562  10.835
   54SBC   C03C37787   9.714   3.553  10.726
   54SBC   C03B37788   9.769   3.438  10.655
   54SBC   C05437789   9.731   3.307  10.678
   54SBC   C0GR37790   9.781   3.202  10.596
   54SBC   C03M37791   9.851   3.185  10.464
   54SBC   C03I37792   9.897   3.287  10.377
   54SBC   C03J37793   9.949   3.252  10.246
   54SBC   N00237794   9.974   3.354  10.150
   54SBC   C02U37795  10.011   3.319  10.017
   54SBC   C02T37796  10.024   3.420   9.920
   54SBC   C02Z37797  10.064   3.392   9.786
   54SBC   N00137798  10.089   3.490   9.689
   54SBC   C02R37799  10.143   3.455   9.564
   54SBC   C03237800  10.153   3.320   9.529
   54SBC   C03137801  10.124   3.222   9.623
   54SBC   H00737802  10.134   3.115   9.610
   54SBC   C03337803  10.211   3.291   9.394
   54SBC   H00337804  10.224   3.190   9.359
   54SBC   O00437805  10.236   3.390   9.301
   54SBC   C03437806  10.220   3.518   9.346
   54SBC   C03537807  10.260   3.619   9.254
   54SBC   C03637808  10.265   3.751   9.288
   54SBC   H00537809  10.288   3.826   9.214
   54SBC   C03737810  10.222   3.789   9.418
   54SBC   H00637811  10.226   3.894   9.443
   54SBC   C00D37812  10.168   3.694   9.509
   54SBC   C00C37813  10.097   3.727   9.625
   54SBC   C00B37814  10.064   3.866   9.658
   54SBC   C00A37815  10.064   4.005   9.595
   54SBC   C00937816  10.049   4.088   9.712
   54SBC   C00837817   9.998   4.225   9.723
   54SBC   C00737818   9.965   4.285   9.604
   54SBC   C00637819   9.922   4.414   9.611
   54SBC   C00537820   9.890   4.485   9.489
   54SBC   C00437821   9.893   4.420   9.366
   54SBC   C00337822   9.927   4.280   9.364
   54SBC   C00237823   9.936   4.209   9.236
   54SBC   C01C37824   9.912   4.281   9.117
   54SBC   C01B37825   9.934   4.215   8.994
   54SBC   H00037826   9.981   4.119   8.985
   54SBC   C00137827   9.959   4.070   9.240
   54SBC   C00037828   9.979   4.001   9.366
   54SBC   C01U37829   9.963   3.869   9.332
   54SBC   H00237830   9.952   3.781   9.393
   54SBC   C01T37831   9.976   3.862   9.185
   54SBC   O00237832  10.017   3.763   9.116
   54SBC   O00137833   9.958   3.982   9.134
   54SBC   C01S37834   9.965   4.215   9.484
   54SBC   C00N37835   9.961   4.266   9.850
   54SBC   C00M37836   9.957   4.181   9.962
   54SBC   C00J37837   9.997   4.051   9.954
   54SBC   C00I37838   9.965   3.956  10.048
   54SBC   C00H37839   9.985   3.820  10.023
   54SBC   C00G37840  10.023   3.782   9.896
   54SBC   C00F37841  10.040   3.651   9.857
   54SBC   C01X37842   9.967   3.726  10.116
   54SBC   C01W37843   9.922   3.762  10.237
   54SBC   C01V37844   9.894   3.899  10.262
   54SBC   C02037845   9.826   3.942  10.377
   54SBC   C01Z37846   9.898   3.667  10.333
   54SBC   C02Y37847   9.850   3.717  10.446
   54SBC   C03937848   9.822   3.621  10.544
   54SBC   C02W37849   9.917   3.525  10.312
   54SBC   C01Y37850   9.975   3.592  10.083
   54SBC   C00U37851   9.919   3.994  10.167
   54SBC   C00S37852   9.881   4.123  10.185
   54SBC   C00T37853   9.814   4.166  10.301
   54SBC   C00R37854   9.894   4.214  10.082
   54SBC   C00Q37855   9.849   4.342  10.093
   54SBC   C00V37856   9.776   4.382  10.206
   54SBC   C02437857   9.720   4.507  10.218
   54SBC   C00X37858   9.740   4.598  10.121
   54SBC   C00P37859   9.858   4.427   9.986
   54SBC   C00O37860   9.905   4.388   9.862
   54SBC   C00K37861  10.035   4.012   9.827
   54SBC   N00037862  10.006   4.071   9.482
   54SBC   C00L37863  10.040   3.881   9.793
   54SBC   H00437864  10.290   3.595   9.154
   54SBC   C02Q37865  10.182   3.559   9.479
   54SBC   C00E37866  10.074   3.626   9.722
   54SBC   C03037867  10.081   3.252   9.757
   54SBC   O00337868  10.055   3.149   9.849
   54SBC   C02S37869  10.009   3.553   9.953
   54SBC   C03837870  10.029   3.183   9.981
   54SBC   C03L37871  10.008   3.088  10.077
   54SBC   H00837872  10.019   2.984  10.049
   54SBC   C02V37873   9.955   3.491  10.181
   54SBC   C03K37874   9.959   3.121  10.202
   54SBC   C0BK37875   9.918   3.031  10.298
   54SBC   H00T37876   9.924   2.928  10.264
   54SBC   C03H37877   9.887   3.424  10.405
   54SBC   C0BL37878   9.862   3.053  10.422
   54SBC   C0GU37879   9.806   2.950  10.501
   54SBC   H01O37880   9.797   2.850  10.461
   54SBC   C0GT37881   9.758   2.952  10.631
   54SBC   H01P37882   9.727   2.861  10.680
   54SBC   C0GS37883   9.740   3.080  10.669
   54SBC   C0GV37884   9.669   3.117  10.787
   54SBC   C0GW37885   9.616   3.035  10.890
   54SBC   H01Q37886   9.637   2.929  10.892
   54SBC   C0GX37887   9.549   3.105  10.986
   54SBC   H01R37888   9.520   3.041  11.068
   54SBC   O00L37889   9.519   3.238  10.983
   54SBC   C0GQ37890   9.660   3.260  10.791
   54SBC   C03A37891   9.839   3.484  10.535
   54SBC   C05L37892   9.584   3.320  10.896
   54SBC   C04W37893   9.308   3.779  11.179
   54SBC   C05I37894   9.215   3.810  11.277
   54SBC   C05O37895   9.171   3.715  11.365
   54SBC   C05237896   9.162   3.943  11.287
   54SBC   C04V37897   9.340   3.885  11.091
   54SBC   C04U37898   9.284   4.013  11.103
   54SBC   N00937899   9.227   3.588  11.356
   54SBC   C0GP37900   9.075   3.743  11.463
   54SBC   C05W37901   9.025   3.872  11.477
   54SBC   C07D37902   8.774   4.050  11.693
   54SBC   C06J37903   8.833   4.248  11.502
   54SBC   C05P37904   9.065   3.971  11.387
   54SBC   C05R37905   8.969   4.322  11.317
   54SBC   C04Z37906   9.197   4.045  11.202
   54SBC   C04C37907   9.113   4.397  11.135
   54SBC   C04G37908   9.233   4.459  10.933
   54SBC   C04J37909   9.416   4.412  10.730
   54SBC   C04T37910   9.320   4.113  11.018
   54SBC   N00337911   9.428   3.855  10.985
   54SBC   C04P37912   9.570   3.695  10.859
   54SBC   C03D37913   9.758   3.661  10.663
   54SBC   C02137914   9.800   3.847  10.472
   54SBC   C03F37915   9.596   4.040  10.714
   54SBC   C02237916   9.785   4.073  10.394
   54SBC   C02A37917   9.568   4.263  10.629
   54SBC   C02337918   9.761   4.295  10.314
   54SBC   C02537919   9.638   4.542  10.328
   54SBC   C02D37920   9.574   4.661  10.326
   54SBC   C02E37921   9.595   4.754  10.226
   54SBC   C02N37922   9.528   4.874  10.220
   54SBC   C04N37923   9.505   4.385  10.632
   54SBC   C02P37924   9.491   4.695  10.435
   54SBC   C04I37925   9.348   4.534  10.730
   54SBC   C04437926   9.212   4.771  10.728
   54SBC   C04337927   9.418   4.813  10.429
   54SBC   C05N37928   9.437   4.901  10.322
   54SBC   C09U37929   9.186   5.253  10.321
   54SBC   C09V37930   9.087   5.358  10.322
   54SBC   C09X37931   9.079   5.444  10.215
   54SBC   C09Y37932   8.984   5.541  10.196
   54SBC   C0A137933   8.886   5.554  10.288
   54SBC   C0A237934   8.896   5.476  10.405
   54SBC   C0A437935   8.807   5.498  10.505
   54SBC   C07137936   8.822   5.427  10.619
   54SBC   C0A537937   8.730   5.448  10.723
   54SBC   C0A937938   8.636   5.549  10.710
   54SBC   C0A837939   8.637   5.631  10.598
   54SBC   C0AP37940   8.545   5.732  10.582
   54SBC   C0BY37941   8.552   5.809  10.472
   54SBC   C0BX37942   8.610   5.767  10.361
   54SBC   C0C237943   8.585   5.830  10.244
   54SBC   C0C337944   8.664   5.803  10.133
   54SBC   C0CT37945   8.770   5.716  10.151
   54SBC   C0C137946   8.472   5.910  10.225
   54SBC   C0C037947   8.413   5.972  10.348
   54SBC   C0A737948   8.705   5.670  10.371
   54SBC   C0BZ37949   8.466   5.921  10.463
   54SBC   C0BO37950   8.385   5.952  10.573
   54SBC   C0BN37951   8.376   5.866  10.680
   54SBC   C0BM37952   8.285   5.901  10.774
   54SBC   C0B937953   8.276   5.814  10.884
   54SBC   C0B837954   8.358   5.702  10.895
   54SBC   C0AD37955   8.455   5.679  10.800
   54SBC   C0AF37956   8.340   5.613  10.997
   54SBC   C0AG37957   8.241   5.631  11.091
   54SBC   C0B737958   8.163   5.745  11.079
   54SBC   C0AE37959   8.430   5.517  11.005
   54SBC   C0AB37960   8.537   5.494  10.918
   54SBC   C0AA37961   8.622   5.386  10.927
   54SBC   C0AJ37962   8.418   5.429  11.110
   54SBC   C0AK37963   8.506   5.325  11.120
   54SBC   C06W37964   8.483   5.272  11.241
   54SBC   C0AI37965   8.332   5.447  11.222
   54SBC   C0BP37966   8.277   6.036  10.535
   54SBC   C0BQ37967   8.172   6.063  10.627
   54SBC   C0BW37968   8.460   5.762  10.687
   54SBC   C0AC37969   8.541   5.572  10.806
   54SBC   C0A637970   8.718   5.602  10.489
   54SBC   C0A337971   8.789   5.645  10.270
   54SBC   C09Z37972   8.978   5.620  10.078
   54SBC   C09W37973   8.998   5.374  10.419
   54SBC   C07237974   9.003   5.295  10.532
   54SBC   C09H37975   9.185   5.437  10.127
   54SBC   C09G37976   9.183   5.525  10.025
   54SBC   C09P37977   9.281   5.478   9.942
   54SBC   C02O37978   9.482   5.149   9.975
   54SBC   C02M37979   9.533   4.958  10.104
   54SBC   C02F37980   9.674   4.722  10.127
   54SBC   C00W37981   9.819   4.558  10.014
   54SBC   C01R37982   9.899   4.464   9.742
   54SBC   C01N37983   9.766   4.805   9.790
   54SBC   C01L37984   9.666   4.927   9.610
   54SBC   C01H37985   9.670   4.872   9.248
   54SBC   C01K37986   9.835   4.622   9.478
   54SBC   C01E37987   9.858   4.478   9.240
   54SBC   C01G37988   9.693   4.803   9.119
   54SBC   C01D37989   9.874   4.413   9.122
   54SBC   C01A37990   9.909   4.280   8.876
   54SBC   H00137991   9.945   4.233   8.785
   54SBC   C01F37992   9.732   4.654   8.885
   54SBC   C03P37993   9.635   4.745   8.630
   54SBC   C03T37994   9.545   4.934   8.738
   54SBC   C08I37995   9.422   5.185   8.735
   54SBC   C08J37996   9.342   5.295   8.754
   54SBC   C08L37997   9.219   5.452   8.900
   54SBC   C09337998   9.093   5.604   9.057
   54SBC   C08Z37999   9.251   5.503   9.265
   54SBC   C09T38000   8.931   5.799   9.450
   54SBC   C09S38001   9.230   5.628   9.540
   54SBC   C09Q38002   9.283   5.534   9.809
   54SBC   C09F38003   9.077   5.609   9.988
   54SBC   C09E38004   8.971   5.787   9.696
   54SBC   C0A038005   8.863   5.699  10.049
   54SBC   C0CU38006   8.633   5.852  10.008
   54SBC   C0CR38007   8.505   5.911   9.985
   54SBC   C0CZ38008   8.466   5.949   9.854
   54SBC   C0DA38009   8.880   5.834   9.592
   54SBC   C0D938010   8.651   6.099   9.491
   54SBC   H00V38011   8.731   6.155   9.446
   54SBC   C0CY38012   8.557   5.932   9.745
   54SBC   C0DF38013   8.517   6.147   9.493
   54SBC   C0DE38014   8.430   6.263   9.484
   54SBC   C0GI38015   8.435   6.377   9.398
   54SBC   H01K38016   8.509   6.412   9.328
   54SBC   C0GJ38017   8.327   6.458   9.404
   54SBC   H01J38018   8.330   6.536   9.329
   54SBC   O00I38019   8.214   6.446   9.478
   54SBC   C0GH38020   8.211   6.334   9.570
   54SBC   C0GG38021   8.102   6.327   9.658
   54SBC   O00G38022   8.004   6.421   9.639
   54SBC   C0G838023   7.904   6.450   9.729
   54SBC   C0G938024   7.805   6.530   9.681
   54SBC   H01G38025   7.801   6.557   9.577
   54SBC   C0GA38026   7.715   6.580   9.772
   54SBC   H01H38027   7.630   6.638   9.740
   54SBC   C0GB38028   7.724   6.555   9.914
   54SBC   C0EP38029   7.818   6.460   9.958
   54SBC   C0E838030   7.836   6.436  10.103
   54SBC   C0CK38031   7.918   6.356  10.192
   54SBC   C0CL38032   7.963   6.232  10.148
   54SBC   C0E938033   7.994   6.208  10.008
   54SBC   C0GE38034   7.994   6.286   9.879
   54SBC   C0E738035   7.745   6.487  10.190
   54SBC   C0CJ38036   7.757   6.452  10.324
   54SBC   C0E638037   7.643   6.476  10.408
   54SBC   H00Y38038   7.640   6.434  10.508
   54SBC   C0EO38039   7.547   6.569  10.365
   54SBC   H01138040   7.466   6.589  10.433
   54SBC   C0G638041   7.554   6.627  10.235
   54SBC   C0G538042   7.467   6.737  10.188
   54SBC   H01F38043   7.396   6.793  10.248
   54SBC   C0GD38044   7.460   6.771  10.059
   54SBC   H01I38045   7.396   6.851  10.026
   54SBC   O00H38046   7.532   6.706   9.962
   54SBC   C0EQ38047   7.647   6.577  10.140
   54SBC   C0GC38048   7.627   6.613  10.001
   54SBC   C0G738049   7.905   6.394   9.864
   54SBC   C0DD38050   8.313   6.242   9.564
   54SBC   C0GF38051   8.084   6.244   9.772
   54SBC   C0CO38052   8.053   6.083  10.016
   54SBC   C0D038053   8.331   5.994   9.844
   54SBC   C0C438054   8.417   5.932  10.098
   54SBC   C0CN38055   8.050   6.022  10.143
   54SBC   C0CP38056   8.293   6.047  10.393
   54SBC   C0CM38057   7.988   6.118  10.231
   54SBC   C0CI38058   7.883   6.375  10.332
   54SBC   C0CD38059   7.841   6.354  10.809
   54SBC   C0BR38060   8.070   6.155  10.599
   54SBC   C0CS38061   8.194   6.000  10.751
   54SBC   C0B638062   8.177   5.836  10.976
   54SBC   C0CG38063   7.927   6.165  10.942
   54SBC   C0CF38064   7.839   6.272  10.929
   54SBC   C0E538065   7.656   6.490  10.895
   54SBC   C0DT38066   7.456   6.521  11.075
   54SBC   C0DL38067   7.635   6.233  11.231
   54SBC   C0DM38068   7.617   6.144  11.338
   54SBC   C0DY38069   7.426   6.265  11.419
   54SBC   C0DU38070   7.378   6.544  11.180
   54SBC   C0F038071   7.187   6.669  11.260
   54SBC   C0F438072   6.967   6.703  11.414
   54SBC   C0FG38073   7.153   6.438  11.579
   54SBC   O00B38074   6.837   6.579  11.582
   54SBC   C0FN38075   7.110   6.357  11.671
   54SBC   C0DZ38076   7.326   6.292  11.513
   54SBC   O00C38077   7.350   5.985  11.710
   54SBC   C0FR38078   7.423   5.869  11.727
   54SBC   O00D38079   7.381   5.792  11.814
   54SBC   C0E038080   7.507   6.151  11.428
   54SBC   C0E338081   7.543   5.856  11.644
   54SBC   C0AW38082   7.637   5.747  11.654
   54SBC   C0AV38083   7.622   5.638  11.743
   54SBC   H00Q38084   7.547   5.630  11.820
   54SBC   C0AU38085   7.703   5.516  11.730
   54SBC   H00R38086   7.699   5.438  11.805
   54SBC   C0AT38087   7.803   5.512  11.633
   54SBC   C0AS38088   7.886   5.413  11.580
   54SBC   C0AR38089   7.872   5.273  11.593
   54SBC   C0BE38090   7.816   5.627  11.552
   54SBC   C0DN38091   7.703   6.037  11.346
   54SBC   C0AX38092   7.743   5.747  11.565
   54SBC   C0BB38093   7.880   5.905  11.257
   54SBC   C0BD38094   7.918   5.607  11.468
   54SBC   C0B238095   8.065   5.765  11.176
   54SBC   C0AH38096   8.229   5.549  11.204
   54SBC   C0BF38097   7.975   5.483  11.480
   54SBC   C0AL38098   8.374   5.343  11.307
   54SBC   C07U38099   8.109   5.214  11.513
   54SBC   C0AQ38100   7.983   5.188  11.563
   54SBC   C0BG38101   7.754   5.182  11.630
   54SBC   C0FY38102   7.833   4.910  11.848
   54SBC   C0BJ38103   7.660   5.183  11.738
   54SBC   H00S38104   7.612   5.273  11.773
   54SBC   C0FZ38105   7.750   4.917  11.961
   54SBC   C07S38106   7.970   4.876  11.858
   54SBC   C0G138107   7.949   4.773  12.223
   54SBC   C07K38108   8.320   4.747  12.160
   54SBC   C07H38109   8.237   4.797  11.897
   54SBC   C06B38110   8.469   4.574  11.840
   54SBC   C06N38111   8.561   4.647  11.641
   54SBC   C06638112   8.279   4.899  11.665
   54SBC   C06238113   8.459   5.064  11.466
   54SBC   C05Y38114   8.679   4.740  11.432
   54SBC   C06138115   8.583   5.106  11.399
   54SBC   C05H38116   8.792   4.924  11.177
   54SBC   C06V38117   8.578   5.179  11.282
   54SBC   C06Y38118   8.613   5.301  11.030
   54SBC   C05C38119   8.885   5.060  10.966
   54SBC   C06Z38120   8.722   5.365  10.832
   54SBC   C07038121   8.911   5.322  10.638
   54SBC   C05B38122   8.972   5.036  10.856
   54SBC   C05738123   9.154   4.985  10.632
   54SBC   C05938124   9.089   5.190  10.534
   55SBC   C05838125   0.449   3.262   5.731
   55SBC   C05A38126   0.406   3.293   5.861
   55SBC   C06Q38127   0.375   3.189   5.953
   55SBC   C06R38128   0.340   3.218   6.081
   55SBC   C06S38129   0.323   3.352   6.128
   55SBC   C06T38130   0.260   3.376   6.258
   55SBC   C06U38131   0.225   3.506   6.330
   55SBC   C06X38132   0.246   3.644   6.302
   55SBC   C06038133   0.178   3.733   6.398
   55SBC   C05Z38134   0.233   3.853   6.458
   55SBC   C06838135   0.206   3.833   6.607
   55SBC   C06738136   0.219   3.934   6.717
   55SBC   C06938137   0.252   4.071   6.682
   55SBC   C06A38138   0.231   4.186   6.770
   55SBC   C07338139   0.151   4.205   6.882
   55SBC   C07P38140   0.069   4.318   6.887
   55SBC   C07O38141   0.013   4.392   6.779
   55SBC   H00D38142   0.030   4.344   6.684
   55SBC   C07N38143  -0.060   4.512   6.791
   55SBC   H00E38144  -0.100   4.562   6.704
   55SBC   C07M38145  -0.059   4.568   6.914
   55SBC   H00F38146  -0.101   4.668   6.914
   55SBC   C07L38147  -0.022   4.499   7.029
   55SBC   C07Q38148  -0.042   4.551   7.160
   55SBC   H00G38149  -0.102   4.640   7.163
   55SBC   O00F38150  -0.006   4.481   7.274
   55SBC   C07J38151   0.050   4.357   7.257
   55SBC   C07I38152   0.085   4.307   7.129
   55SBC   N00438153   0.143   4.172   7.116
   55SBC   C07R38154   0.168   4.096   7.238
   55SBC   C07T38155   0.111   4.149   7.361
   55SBC   C0FX38156   0.097   4.074   7.477
   55SBC   C0FW38157   0.031   4.099   7.599
   55SBC   C0G038158  -0.023   4.228   7.603
   55SBC   C0G238159  -0.091   4.266   7.721
   55SBC   H01E38160  -0.125   4.368   7.717
   55SBC   C0G338161  -0.120   4.177   7.823
   55SBC   H01C38162  -0.167   4.208   7.915
   55SBC   C0G438163  -0.066   4.047   7.814
   55SBC   H01D38164  -0.072   3.984   7.902
   55SBC   O00E38165   0.003   4.321   7.501
   55SBC   C0FV38166   0.005   4.005   7.701
   55SBC   C0FU38167   0.041   3.871   7.676
   55SBC   H01B38168   0.018   3.792   7.746
   55SBC   C0FT38169   0.117   3.844   7.559
   55SBC   C0FS38170   0.171   3.723   7.493
   55SBC   C0BI38171   0.255   3.767   7.385
   55SBC   C0BH38172   0.269   3.661   7.294
   55SBC   C07F38173   0.245   3.675   7.154
   55SBC   C07E38174   0.245   3.779   7.062
   55SBC   C07G38175   0.241   3.914   7.101
   55SBC   C07438176   0.220   3.987   6.979
   55SBC   C06538177   0.224   3.770   6.925
   55SBC   C06438178   0.191   3.640   6.878
   55SBC   C06338179   0.159   3.598   6.745
   55SBC   C07538180   0.126   3.455   6.763
   55SBC   C0AM38181   0.129   3.412   6.906
   55SBC   C0AN38182   0.109   3.279   6.970
   55SBC   C0AO38183   0.112   3.141   6.905
   55SBC   C0B138184   0.077   3.025   6.981
   55SBC   C0B038185   0.015   3.031   7.103
   55SBC   C0AZ38186  -0.022   2.923   7.187
   55SBC   C0AY38187  -0.082   2.948   7.311
   55SBC   N00738188  -0.125   2.842   7.387
   55SBC   C0E238189  -0.200   2.866   7.505
   55SBC   C0E138190  -0.238   2.755   7.571
   55SBC   C0E438191  -0.331   2.772   7.680
   55SBC   C0FF38192  -0.392   2.663   7.752
   55SBC   C0FJ38193  -0.496   2.657   7.855
   55SBC   C0FK38194  -0.623   2.735   7.840
   55SBC   H01638195  -0.630   2.834   7.797
   55SBC   C0FL38196  -0.731   2.660   7.900
   55SBC   H01738197  -0.838   2.676   7.896
   55SBC   C0FM38198  -0.671   2.529   7.938
   55SBC   C0FH38199  -0.699   2.384   7.945
   55SBC   C0FI38200  -0.571   2.323   7.919
   55SBC   C0F338201  -0.574   2.201   7.842
   55SBC   C0F238202  -0.459   2.185   7.769
   55SBC   C0DW38203  -0.375   2.290   7.721
   55SBC   C0FE38204  -0.392   2.417   7.772
   55SBC   C0DV38205  -0.300   2.274   7.607
   55SBC   C0DX38206  -0.246   2.386   7.546
   55SBC   C0DK38207  -0.177   2.361   7.428
   55SBC   C0DJ38208  -0.167   2.232   7.370
   55SBC   C0DI38209  -0.096   2.216   7.249
   55SBC   C0DH38210  -0.038   2.324   7.188
   55SBC   C0DG38211  -0.053   2.450   7.245
   55SBC   C0BV38212  -0.010   2.558   7.170
   55SBC   C0BC38213  -0.038   2.688   7.215
   55SBC   C0BA38214   0.064   2.540   7.054
   55SBC   C0B438215   0.103   2.649   6.978
   55SBC   C0B338216   0.065   2.779   7.019
   55SBC   C0B538217   0.168   2.623   6.867
   55SBC   C0BU38218   0.219   2.499   6.828
   55SBC   C0BT38219   0.177   2.389   6.899
   55SBC   C0BS38220   0.218   2.254   6.858
   55SBC   C0CC38221   0.159   2.143   6.925
   55SBC   C0CB38222   0.190   2.012   6.882
   55SBC   C0CH38223   0.093   1.917   6.927
   55SBC   C0DO38224   0.009   1.937   7.040
   55SBC   C0DP38225  -0.077   1.835   7.088
   55SBC   C0EA38226  -0.080   1.708   7.015
   55SBC   H01238227  -0.029   1.688   6.922
   55SBC   O00938228  -0.164   1.605   7.050
   55SBC   C0EH38229  -0.245   1.631   7.155
   55SBC   C0EG38230  -0.337   1.528   7.187
   55SBC   C0EJ38231  -0.371   1.398   7.129
   55SBC   H01038232  -0.326   1.355   7.041
   55SBC   C0EK38233  -0.478   1.340   7.202
   55SBC   H00Z38234  -0.513   1.240   7.186
   55SBC   C0EL38235  -0.512   1.443   7.301
   55SBC   C0EM38236  -0.632   1.459   7.384
   55SBC   C0EW38237  -0.745   1.381   7.385
   55SBC   H01338238  -0.742   1.290   7.328
   55SBC   C0EX38239  -0.863   1.407   7.468
   55SBC   H01438240  -0.950   1.344   7.478
   55SBC   C0F138241  -0.866   1.538   7.542
   55SBC   C0EU38242  -0.751   1.613   7.535
   55SBC   C0ET38243  -0.736   1.742   7.593
   55SBC   C0ES38244  -0.614   1.782   7.539
   55SBC   C0EE38245  -0.548   1.686   7.461
   55SBC   C0ED38246  -0.440   1.673   7.362
   55SBC   C0EC38247  -0.348   1.774   7.335
   55SBC   C0EB38248  -0.340   1.900   7.404
   55SBC   C0EN38249  -0.419   1.937   7.517
   55SBC   C0ER38250  -0.379   2.049   7.588
   55SBC   C0DS38251  -0.249   2.002   7.359
   55SBC   C0DR38252  -0.170   1.984   7.247
   55SBC   C0EY38253  -0.539   1.891   7.579
   55SBC   C0EZ38254  -0.578   1.976   7.683
   55SBC   C0F538255  -0.693   1.998   7.764
   55SBC   C0F638256  -0.812   1.922   7.755
   55SBC   N00838257  -0.930   1.973   7.829
   55SBC   C0F738258  -0.931   2.101   7.888
   55SBC   C0FQ38259  -1.041   2.145   7.956
   55SBC   H01838260  -1.046   2.239   8.008
   55SBC   C0FP38261  -1.159   2.066   7.963
   55SBC   H01938262  -1.241   2.113   8.015
   55SBC   C0FO38263  -1.158   1.944   7.905
   55SBC   H01A38264  -1.244   1.878   7.902
   55SBC   C0F838265  -0.807   2.170   7.881
   55SBC   C0F938266  -1.050   1.895   7.836
   55SBC   C0FA38267  -1.057   1.771   7.773
   55SBC   H01538268  -1.141   1.705   7.787
   55SBC   C0FB38269  -0.948   1.719   7.695
   55SBC   C0FD38270  -0.832   1.795   7.688
   55SBC   C0FC38271  -0.973   1.589   7.623
   55SBC   O00A38272  -1.077   1.530   7.632
   55SBC   C0EV38273  -0.641   1.579   7.463
   55SBC   C0EF38274  -0.429   1.550   7.286
   55SBC   C0EI38275  -0.253   1.752   7.230
   55SBC   C0DQ38276  -0.172   1.857   7.188
   55SBC   C0CE38277  -0.005   2.068   7.087
   55SBC   H00U38278   0.099   1.819   6.882
   55SBC   C0CA38279   0.308   1.994   6.800
   55SBC   C0C938280   0.362   2.103   6.721
   55SBC   C0C838281   0.476   2.085   6.635
   55SBC   C0C738282   0.515   2.150   6.514
   55SBC   C0C638283   0.624   2.098   6.439
   55SBC   C0C538284   0.671   2.082   6.300
   55SBC   C0CQ38285   0.764   1.978   6.269
   55SBC   C0D138286   0.773   1.869   6.360
   55SBC   C0D838287   0.767   1.756   6.287
   55SBC   C0D738288   0.802   1.790   6.152
   55SBC   C0D638289   0.806   1.705   6.043
   55SBC   C0D538290   0.848   1.746   5.911
   55SBC   C0D438291   0.866   1.876   5.849
   55SBC   C0D338292   0.847   1.866   5.716
   55SBC   C0CX38293   0.806   1.993   5.662
   55SBC   C0CW38294   0.755   2.069   5.778
   55SBC   C0CV38295   0.677   2.195   5.807
   55SBC   C0D238296   0.626   2.276   5.702
   55SBC   C09D38297   0.631   2.246   5.562
   55SBC   C09C38298   0.592   2.342   5.466
   55SBC   C09B38299   0.603   2.341   5.327
   55SBC   C09A38300   0.662   2.226   5.271
   55SBC   C09938301   0.690   2.116   5.353
   55SBC   C09838302   0.793   2.041   5.294
   55SBC   C08Y38303   0.827   2.106   5.163
   55SBC   C08X38304   0.932   2.081   5.072
   55SBC   C08W38305   1.026   1.977   5.107
   55SBC   C08U38306   1.048   1.917   5.238
   55SBC   C08V38307   0.998   1.933   5.371
   55SBC   C0DC38308   1.045   1.824   5.440
   55SBC   H00W38309   1.003   1.803   5.537
   55SBC   C0DB38310   1.138   1.743   5.365
   55SBC   H00X38311   1.187   1.653   5.401
   55SBC   C08T38312   1.137   1.809   5.241
   55SBC   C08S38313   1.208   1.759   5.131
   55SBC   H00N38314   1.263   1.668   5.147
   55SBC   C08R38315   1.201   1.824   5.010
   55SBC   C08Q38316   1.282   1.790   4.898
   55SBC   H00O38317   1.351   1.707   4.908
   55SBC   C08P38318   1.289   1.858   4.777
   55SBC   C08O38319   1.381   1.831   4.673
   55SBC   H00P38320   1.451   1.748   4.676
   55SBC   C08N38321   1.383   1.920   4.556
   55SBC   C08M38322   1.468   1.896   4.444
   55SBC   O00838323   1.535   1.795   4.441
   55SBC   O00738324   1.481   1.992   4.345
   55SBC   C08H38325   1.435   2.117   4.358
   55SBC   C08G38326   1.459   2.219   4.268
   55SBC   C03V38327   1.537   2.216   4.150
   55SBC   H00938328   1.597   2.127   4.134
   55SBC   C03U38329   1.549   2.318   4.058
   55SBC   C03W38330   1.627   2.314   3.937
   55SBC   H00A38331   1.678   2.221   3.917
   55SBC   C03X38332   1.638   2.422   3.861
   55SBC   H00B38333   1.693   2.417   3.768
   55SBC   O00538334   1.575   2.543   3.885
   55SBC   C03O38335   1.491   2.544   3.993
   55SBC   C03N38336   1.423   2.661   4.021
   55SBC   O00038337   1.451   2.767   3.942
   55SBC   C01938338   1.410   2.890   3.979
   55SBC   C01838339   1.303   2.901   4.069
   55SBC   C01738340   1.270   2.790   4.152
   55SBC   C01638341   1.177   2.802   4.251
   55SBC   C01538342   1.122   2.926   4.265
   55SBC   C01438343   1.027   2.942   4.365
   55SBC   C01338344   0.980   2.837   4.455
   55SBC   C01238345   0.891   2.905   4.547
   55SBC   C01138346   0.885   3.039   4.495
   55SBC   C01038347   0.786   3.125   4.538
   55SBC   C00Z38348   0.777   3.263   4.517
   55SBC   C00Y38349   0.687   3.299   4.616
   55SBC   C01O38350   0.638   3.193   4.695
   55SBC   C01P38351   0.618   3.214   4.835
   55SBC   C02L38352   0.627   3.104   4.918
   55SBC   C02K38353   0.670   2.985   4.859
   55SBC   C01M38354   0.729   2.970   4.724
   55SBC   C02J38355   0.649   2.873   4.943
   55SBC   C02I38356   0.669   2.740   4.909
   55SBC   C02H38357   0.735   2.679   4.800
   55SBC   C01Q38358   0.806   2.732   4.695
   55SBC   C02G38359   0.868   2.625   4.619
   55SBC   C08938360   0.822   2.504   4.679
   55SBC   C08838361   0.928   2.407   4.668
   55SBC   C08738362   1.016   2.475   4.570
   55SBC   C08638363   1.120   2.406   4.509
   55SBC   C03S38364   1.210   2.459   4.409
   55SBC   N00638365   1.295   2.354   4.377
   55SBC   C08F38366   1.280   2.258   4.468
   55SBC   C01J38367   1.216   2.572   4.318
   55SBC   C03R38368   1.304   2.560   4.209
   55SBC   C03Q38369   1.387   2.447   4.190
   55SBC   C08E38370   1.174   2.280   4.552
   55SBC   C08D38371   1.132   2.178   4.647
   55SBC   C08K38372   1.212   2.063   4.656
   55SBC   C08C38373   1.031   2.193   4.744
   55SBC   C09138374   1.030   2.109   4.856
   55SBC   C09238375   1.118   1.999   4.873
   55SBC   C08B38376   0.936   2.296   4.760
   55SBC   C09038377   0.878   2.277   4.890
   55SBC   C09438378   0.754   2.326   4.932
   55SBC   C09538379   0.715   2.314   5.062
   55SBC   C09R38380   0.646   2.428   5.108
   55SBC   C09738381   0.657   2.527   5.013
   55SBC   C09638382   0.721   2.458   4.908
   55SBC   C01I38383   0.974   2.607   4.526
   55SBC   C08A38384   0.758   2.540   4.801
   55SBC   C09L38385   0.626   2.663   5.017
   55SBC   C09K38386   0.586   2.747   5.120
   55SBC   C09J38387   0.552   2.706   5.246
   55SBC   C09I38388   0.529   2.794   5.352
   55SBC   C09O38389   0.525   2.937   5.377
   55SBC   C09N38390   0.555   3.032   5.282
   55SBC   C09M38391   0.579   3.013   5.137
   55SBC   C06O38392   0.550   3.168   5.328
   55SBC   C05M38393   0.525   3.195   5.465
   55SBC   C06P38394   0.493   3.097   5.556
   55SBC   C04238395   0.519   3.327   5.512
   55SBC   C04138396   0.542   3.432   5.424
   55SBC   C04038397   0.545   3.563   5.470
   55SBC   C03Z38398   0.567   3.668   5.384
   55SBC   C03Y38399   0.580   3.641   5.245
   55SBC   C02738400   0.594   3.749   5.160
   55SBC   C02638401   0.618   3.727   5.022
   55SBC   C02838402   0.648   3.835   4.940
   55SBC   C02938403   0.654   3.962   4.991
   55SBC   C02B38404   0.701   4.064   4.909
   55SBC   C02C38405   0.724   4.185   4.968
   55SBC   C02X38406   0.791   4.280   4.893
   55SBC   C03E38407   0.797   4.407   4.944
   55SBC   C03G38408   0.755   4.449   5.067
   55SBC   C04Q38409   0.696   4.351   5.146
   55SBC   C04R38410   0.662   4.379   5.274
   55SBC   C04S38411   0.625   4.277   5.359
   55SBC   C04L38412   0.616   4.147   5.305
   55SBC   C04M38413   0.636   4.117   5.173
   55SBC   C04K38414   0.598   4.038   5.392
   55SBC   C04F38415   0.574   4.066   5.530
   55SBC   C04E38416   0.564   4.196   5.568
   55SBC   C04D38417   0.536   4.220   5.702
   55SBC   C05038418   0.532   4.350   5.752
   55SBC   C05138419   0.484   4.370   5.887
   55SBC   C05Q38420   0.464   4.501   5.928
   55SBC   C05V38421   0.415   4.524   6.058
   55SBC   N00538422   0.400   4.658   6.102
   55SBC   C07V38423   0.419   4.762   6.008
   55SBC   C08238424   0.389   4.893   6.041
   55SBC   C08138425   0.333   4.928   6.169
   55SBC   C07C38426   0.330   4.826   6.260
   55SBC   C07B38427   0.306   4.854   6.393
   55SBC   C08038428   0.290   4.981   6.441
   55SBC   C07Z38429   0.291   5.006   6.579
   55SBC   H00L38430   0.270   5.105   6.617
   55SBC   C07938431   0.298   4.907   6.674
   55SBC   C07838432   0.311   4.774   6.630
   55SBC   C07738433   0.314   4.675   6.723
   55SBC   C07X38434   0.295   4.704   6.865
   55SBC   H00I38435   0.288   4.634   6.947
   55SBC   C07Y38436   0.291   4.837   6.904
   55SBC   H00H38437   0.287   4.856   7.011
   55SBC   C07638438   0.319   4.545   6.678
   55SBC   C06C38439   0.299   4.436   6.768
   55SBC   H00C38440   0.298   4.450   6.876
   55SBC   C06F38441   0.317   4.510   6.545
   55SBC   C06E38442   0.308   4.379   6.493
   55SBC   C06G38443   0.329   4.343   6.361
   55SBC   C06H38444   0.345   4.451   6.276
   55SBC   C06I38445   0.344   4.584   6.320
   55SBC   C06L38446   0.333   4.206   6.325
   55SBC   C06M38447   0.306   4.097   6.423
   55SBC   C06K38448   0.367   4.183   6.192
   55SBC   C05S38449   0.398   4.287   6.104
   55SBC   C05U38450   0.377   4.048   6.146
   55SBC   C05X38451   0.339   3.943   6.234
   55SBC   C05G38452   0.346   3.816   6.162
   55SBC   C05F38453   0.406   3.806   6.037
   55SBC   C05E38454   0.402   3.679   5.984
   55SBC   C04838455   0.453   3.647   5.860
   55SBC   C05638456   0.445   3.519   5.817
   55SBC   C04538457   0.489   3.490   5.690
   55SBC   C04738458   0.490   3.749   5.780
   55SBC   C04938459   0.486   3.881   5.828
   55SBC   C04B38460   0.521   3.983   5.746
   55SBC   C04638461   0.521   3.722   5.649
   55SBC   C04H38462   0.549   3.825   5.566
   55SBC   C05D38463   0.351   3.590   6.078
   55SBC   C04A38464   0.444   3.912   5.958
   55SBC   C05T38465   0.435   4.035   6.014
   55SBC   C05538466   0.463   4.135   5.927
   55SBC   C06D38467   0.307   4.276   6.584
   55SBC   C07W38468   0.326   4.616   6.454
   55SBC   C08538469   0.287   4.941   6.812
   55SBC   H00M38470   0.265   5.044   6.838
   55SBC   C08438471   0.274   5.078   6.348
   55SBC   H00J38472   0.254   5.182   6.371
   55SBC   C07A38473   0.315   4.746   6.490
   55SBC   C08338474   0.291   5.054   6.214
   55SBC   H00K38475   0.287   5.138   6.147
   55SBC   O00K38476   0.424   4.992   5.952
   55SBC   C0GO38477   0.497   4.970   5.840
   55SBC   C0GN38478   0.550   5.076   5.776
   55SBC   H01L38479   0.526   5.167   5.829
   55SBC   C0GM38480   0.620   5.055   5.652
   55SBC   C0GL38481   0.662   5.157   5.587
   55SBC   H01M38482   0.644   5.259   5.620
   55SBC   O00J38483   0.718   5.144   5.462
   55SBC   C0GK38484   0.728   5.017   5.416
   55SBC   H01N38485   0.785   5.015   5.324
   55SBC   C05K38486   0.681   4.908   5.480
   55SBC   C05J38487   0.685   4.779   5.417
   55SBC   C04Y38488   0.734   4.745   5.288
   55SBC   C04X38489   0.726   4.614   5.242
   55SBC   O00638490   0.789   4.838   5.200
   55SBC   C05338491   0.851   4.809   5.083
   55SBC   C04O38492   0.837   4.679   5.030
   55SBC   C03C38493   0.888   4.636   4.903
   55SBC   C03B38494   0.972   4.680   4.790
   55SBC   C05438495   1.029   4.808   4.791
   55SBC   C0GR38496   1.108   4.846   4.685
   55SBC   C03M38497   1.163   4.786   4.558
   55SBC   C03I38498   1.153   4.648   4.511
   55SBC   C03J38499   1.225   4.615   4.394
   55SBC   N00238500   1.212   4.479   4.346
   55SBC   C02U38501   1.295   4.434   4.236
   55SBC   C02T38502   1.290   4.301   4.193
   55SBC   C02Z38503   1.367   4.262   4.085
   55SBC   N00138504   1.369   4.121   4.042
   55SBC   C02R38505   1.455   4.079   3.942
   55SBC   C03238506   1.528   4.173   3.870
   55SBC   C03138507   1.517   4.312   3.905
   55SBC   H00738508   1.567   4.385   3.843
   55SBC   C03338509   1.604   4.119   3.760
   55SBC   H00338510   1.669   4.190   3.711
   55SBC   O00438511   1.623   3.989   3.733
   55SBC   C03438512   1.549   3.904   3.809
   55SBC   C03538513   1.568   3.761   3.785
   55SBC   C03638514   1.514   3.674   3.880
   55SBC   H00538515   1.542   3.571   3.867
   55SBC   C03738516   1.421   3.714   3.972
   55SBC   H00638517   1.382   3.646   4.046
   55SBC   C00D38518   1.384   3.849   3.983
   55SBC   C00C38519   1.284   3.893   4.069
   55SBC   C00B38520   1.181   3.800   4.125
   55SBC   C00A38521   1.127   3.656   4.138
   55SBC   C00938522   1.014   3.660   4.225
   55SBC   C00838523   0.952   3.553   4.295
   55SBC   C00738524   1.004   3.425   4.272
   55SBC   C00638525   0.949   3.319   4.341
   55SBC   C00538526   1.001   3.191   4.314
   55SBC   C00438527   1.098   3.168   4.217
   55SBC   C00338528   1.143   3.279   4.141
   55SBC   C00238529   1.229   3.256   4.032
   55SBC   C01C38530   1.288   3.136   4.013
   55SBC   C01B38531   1.399   3.127   3.927
   55SBC   H00038532   1.440   3.211   3.872
   55SBC   C00138533   1.232   3.357   3.938
   55SBC   C00038534   1.220   3.491   3.983
   55SBC   C01U38535   1.198   3.550   3.858
   55SBC   H00238536   1.159   3.648   3.835
   55SBC   C01T38537   1.218   3.453   3.750
   55SBC   O00238538   1.230   3.482   3.634
   55SBC   O00138539   1.235   3.330   3.802
   55SBC   C01S38540   1.102   3.406   4.173
   55SBC   C00N38541   0.860   3.588   4.396
   55SBC   C00M38542   0.848   3.721   4.436
   55SBC   C00J38543   0.915   3.823   4.376
   55SBC   C00I38544   0.932   3.950   4.426
   55SBC   C00H38545   1.017   4.040   4.369
   55SBC   C00G38546   1.102   4.002   4.262
   55SBC   C00F38547   1.192   4.084   4.203
   55SBC   C01X38548   1.037   4.164   4.421
   55SBC   C01W38549   0.969   4.200   4.531
   55SBC   C01V38550   0.891   4.102   4.593
   55SBC   C02038551   0.830   4.127   4.716
   55SBC   C01Z38552   0.979   4.322   4.582
   55SBC   C02Y38553   0.913   4.341   4.695
   55SBC   C03938554   0.921   4.468   4.745
   55SBC   C02W38555   1.058   4.423   4.519
   55SBC   C01Y38556   1.122   4.255   4.357
   55SBC   C00U38557   0.863   3.978   4.541
   55SBC   C00S38558   0.795   3.880   4.608
   55SBC   C00T38559   0.743   3.906   4.733
   55SBC   C00R38560   0.791   3.750   4.557
   55SBC   C00Q38561   0.729   3.652   4.630
   55SBC   C00V38562   0.676   3.680   4.757
   55SBC   C02438563   0.639   3.578   4.842
   55SBC   C00X38564   0.633   3.449   4.794
   55SBC   C00P38565   0.728   3.525   4.582
   55SBC   C00O38566   0.809   3.489   4.469
   55SBC   C00K38567   0.996   3.788   4.265
   55SBC   N00038568   1.153   3.520   4.099
   55SBC   C00L38569   1.090   3.870   4.211
   55SBC   H00438570   1.626   3.730   3.699
   55SBC   C02Q38571   1.460   3.944   3.913
   55SBC   C00E38572   1.280   4.029   4.105
   55SBC   C03038573   1.440   4.356   4.016
   55SBC   O00338574   1.439   4.491   4.051
   55SBC   C02S38575   1.202   4.214   4.248
   55SBC   C03838576   1.370   4.528   4.163
   55SBC   C03L38577   1.369   4.657   4.200
   55SBC   H00838578   1.416   4.735   4.143
   55SBC   C02V38579   1.129   4.384   4.404
   55SBC   C03K38580   1.296   4.709   4.314
   55SBC   C0BK38581   1.298   4.838   4.364
   55SBC   H00T38582   1.351   4.910   4.302
   55SBC   C03H38583   1.073   4.552   4.572
   55SBC   C0BL38584   1.241   4.883   4.480
   55SBC   C0GU38585   1.260   5.016   4.521
   55SBC   H01O38586   1.317   5.081   4.456
   55SBC   C0GT38587   1.214   5.068   4.641
   55SBC   H01P38588   1.235   5.166   4.681
   55SBC   C0GS38589   1.137   4.982   4.717
   55SBC   C0GV38590   1.059   5.022   4.833
   55SBC   C0GW38591   1.054   5.144   4.913
   55SBC   H01Q38592   1.110   5.232   4.885
   55SBC   C0GX38593   0.982   5.143   5.028
   55SBC   H01R38594   0.973   5.233   5.087
   55SBC   O00L38595   0.912   5.037   5.074
   55SBC   C0GQ38596   1.002   4.908   4.888
   55SBC   C03A38597   0.996   4.574   4.695
   55SBC   C05L38598   0.924   4.911   5.011
   55SBC   C04W38599   0.645   4.672   5.503
   55SBC   C05I38600   0.598   4.690   5.632
   55SBC   C05O38601   0.584   4.817   5.683
   55SBC   C05238602   0.555   4.581   5.714
   55SBC   C04V38603   0.642   4.541   5.459
   55SBC   C04U38604   0.600   4.431   5.539
   55SBC   N00938605   0.626   4.925   5.611
   55SBC   C0GP38606   0.518   4.840   5.803
   55SBC   C05W38607   0.481   4.737   5.885
   55SBC   C07D38608   0.352   4.693   6.232
   55SBC   C06J38609   0.385   4.421   6.148
   55SBC   C05P38610   0.508   4.610   5.846
   55SBC   C05R38611   0.449   4.265   5.969
   55SBC   C04Z38612   0.558   4.451   5.668
   55SBC   C04C38613   0.505   4.114   5.791
   55SBC   C04G38614   0.551   3.958   5.612
   55SBC   C04J38615   0.591   3.904   5.343
   55SBC   C04T38616   0.599   4.302   5.487
   55SBC   N00338617   0.679   4.510   5.324
   55SBC   C04P38618   0.772   4.581   5.112
   55SBC   C03D38619   0.854   4.505   4.862
   55SBC   C02138620   0.843   4.249   4.769
   55SBC   C03F38621   0.678   4.223   5.091
   55SBC   C02238622   0.754   4.030   4.785
   55SBC   C02A38623   0.628   3.987   5.126
   55SBC   C02338624   0.688   3.806   4.808
   55SBC   C02538625   0.614   3.601   4.977
   55SBC   C02D38626   0.595   3.488   5.066
   55SBC   C02E38627   0.596   3.358   5.018
   55SBC   C02N38628   0.586   3.253   5.104
   55SBC   C04N38629   0.605   3.880   5.207
   55SBC   C02P38630   0.581   3.510   5.200
   55SBC   C04I38631   0.577   3.799   5.431
   55SBC   C04438632   0.521   3.594   5.606
   55SBC   C04338633   0.569   3.405   5.291
   55SBC   C05N38634   0.569   3.272   5.245
   55SBC   C09U38635   0.497   2.966   5.517
   55SBC   C09V38636   0.486   2.866   5.618
   55SBC   C09X38637   0.501   2.732   5.591
   55SBC   C09Y38638   0.508   2.626   5.679
   55SBC   C0A138639   0.488   2.662   5.806
   55SBC   C0A238640   0.456   2.798   5.840
   55SBC   C0A438641   0.425   2.828   5.969
   55SBC   C07138642   0.390   2.959   6.003
   55SBC   C0A538643   0.358   2.987   6.132
   55SBC   C0A938644   0.356   2.886   6.227
   55SBC   C0A838645   0.387   2.757   6.186
   55SBC   C0AP38646   0.395   2.657   6.283
   55SBC   C0BY38647   0.434   2.531   6.246
   55SBC   C0BX38648   0.481   2.495   6.123
   55SBC   C0C238649   0.537   2.369   6.103
   55SBC   C0C338650   0.576   2.337   5.976
   55SBC   C0CT38651   0.552   2.431   5.872
   55SBC   C0C138652   0.552   2.276   6.205
   55SBC   C0C038653   0.473   2.300   6.323
   55SBC   C0A738654   0.470   2.595   6.027
   55SBC   C0BZ38655   0.429   2.428   6.340
   55SBC   C0BO38656   0.371   2.449   6.460
   55SBC   C0BN38657   0.341   2.578   6.499
   55SBC   C0BM38658   0.294   2.589   6.626
   55SBC   C0B938659   0.242   2.713   6.663
   55SBC   C0B838660   0.247   2.819   6.567
   55SBC   C0AD38661   0.300   2.798   6.442
   55SBC   C0AF38662   0.206   2.947   6.602
   55SBC   C0AG38663   0.158   2.975   6.731
   55SBC   C0B738664   0.154   2.867   6.819
   55SBC   C0AE38665   0.214   3.045   6.507
   55SBC   C0AB38666   0.262   3.029   6.384
   55SBC   C0AA38667   0.270   3.133   6.296
   55SBC   C0AJ38668   0.159   3.170   6.544
   55SBC   C0AK38669   0.173   3.278   6.459
   55SBC   C06W38670   0.136   3.395   6.527
   55SBC   C0AI38671   0.122   3.212   6.669
   55SBC   C0BP38672   0.374   2.341   6.538
   55SBC   C0BQ38673   0.332   2.351   6.677
   55SBC   C0BW38674   0.346   2.679   6.408
   55SBC   C0AC38675   0.311   2.907   6.353
   55SBC   C0A638676   0.430   2.730   6.058
   55SBC   C0A338677   0.506   2.563   5.898
   55SBC   C09Z38678   0.540   2.497   5.644
   55SBC   C09W38679   0.464   2.895   5.747
   55SBC   C07238680   0.437   3.029   5.779
   55SBC   C09H38681   0.516   2.701   5.456
   55SBC   C09G38682   0.525   2.570   5.426
   55SBC   C09P38683   0.555   2.569   5.295
   55SBC   C02O38684   0.597   2.881   5.074
   55SBC   C02M38685   0.598   3.124   5.052
   55SBC   C02F38686   0.608   3.341   4.880
   55SBC   C00W38687   0.669   3.431   4.660
   55SBC   C01R38688   0.849   3.355   4.439
   55SBC   C01N38689   0.714   3.091   4.652
   55SBC   C01L38690   0.810   2.868   4.656
   55SBC   C01H38691   1.037   2.707   4.441
   55SBC   C01K38692   0.966   3.073   4.389
   55SBC   C01E38693   1.152   3.040   4.191
   55SBC   C01G38694   1.145   2.691   4.337
   55SBC   C01D38695   1.244   3.029   4.089
   55SBC   C01A38696   1.459   3.000   3.909
   55SBC   H00138697   1.539   2.997   3.836
   55SBC   C01F38698   1.324   2.667   4.127
   55SBC   C03P38699   1.474   2.436   4.081
   55SBC   C03T38700   1.383   2.339   4.275
   55SBC   C08I38701   1.340   2.138   4.459
   55SBC   C08J38702   1.311   2.041   4.557
   55SBC   C08L38703   1.203   1.972   4.769
   55SBC   C09338704   1.113   1.935   4.998
   55SBC   C08Z38705   0.938   2.153   4.947
   55SBC   C09T38706   0.867   1.988   5.395
   55SBC   C09S38707   0.731   2.214   5.153
   55SBC   C09Q38708   0.598   2.452   5.238
   55SBC   C09F38709   0.551   2.464   5.514
   55SBC   C09E38710   0.698   2.129   5.493
   55SBC   C0A038711   0.568   2.396   5.739
   55SBC   C0CU38712   0.645   2.219   5.947
   55SBC   C0CR38713   0.683   2.138   6.055
   55SBC   C0CZ38714   0.753   2.019   6.026
   55SBC   C0DA38715   0.795   2.030   5.523
   55SBC   C0D938716   0.784   1.732   5.692
   55SBC   H00V38717   0.724   1.700   5.608
   55SBC   C0CY38718   0.793   1.991   5.889
   55SBC   C0DF38719   0.792   1.659   5.815
   55SBC   C0DE38720   0.729   1.552   5.892
   55SBC   C0GI38721   0.668   1.431   5.849
   55SBC   H01K38722   0.664   1.413   5.743
   55SBC   C0GJ38723   0.638   1.346   5.949
   55SBC   H01J38724   0.607   1.247   5.920
   55SBC   O00I38725   0.656   1.363   6.085
   55SBC   C0GH38726   0.696   1.490   6.124
   55SBC   C0GG38727   0.675   1.508   6.264
   55SBC   O00G38728   0.623   1.398   6.327
   55SBC   C0G838729   0.591   1.410   6.460
   55SBC   C0G938730   0.585   1.292   6.522
   55SBC   H01G38731   0.604   1.202   6.467
   55SBC   C0GA38732   0.542   1.282   6.658
   55SBC   H01H38733   0.510   1.192   6.709
   55SBC   C0GB38734   0.501   1.398   6.725
   55SBC   C0EP38735   0.513   1.523   6.660
   55SBC   C0E838736   0.456   1.645   6.726
   55SBC   C0CK38737   0.446   1.785   6.694
   55SBC   C0CL38738   0.554   1.840   6.635
   55SBC   C0E938739   0.626   1.775   6.523
   55SBC   C0GE38740   0.627   1.642   6.461
   55SBC   C0E738741   0.401   1.643   6.854
   55SBC   C0CJ38742   0.350   1.762   6.905
   55SBC   C0E638743   0.326   1.768   7.041
   55SBC   H00Y38744   0.316   1.861   7.095
   55SBC   C0EO38745   0.315   1.647   7.109
   55SBC   H01138746   0.286   1.654   7.213
   55SBC   C0G638747   0.359   1.525   7.052
   55SBC   C0G538748   0.372   1.403   7.126
   55SBC   H01F38749   0.342   1.412   7.230
   55SBC   C0GD38750   0.408   1.295   7.067
   55SBC   H01I38751   0.408   1.211   7.135
   55SBC   O00H38752   0.446   1.284   6.934
   55SBC   C0EQ38753   0.403   1.518   6.915
   55SBC   C0GC38754   0.450   1.400   6.857
   55SBC   C0G738755   0.570   1.530   6.531
   55SBC   C0DD38756   0.743   1.581   6.029
   55SBC   C0GF38757   0.695   1.633   6.332
   55SBC   C0CO38758   0.696   1.882   6.471
   55SBC   C0D038759   0.775   1.932   6.141
   55SBC   C0C438760   0.634   2.162   6.185
   55SBC   C0CN38761   0.678   2.011   6.533
   55SBC   C0CP38762   0.439   2.245   6.456
   55SBC   C0CM38763   0.582   1.986   6.637
   55SBC   C0CI38764   0.361   1.857   6.795
   55SBC   C0CD38765   0.069   2.173   7.031
   55SBC   C0BR38766   0.301   2.234   6.748
   55SBC   C0CS38767   0.283   2.475   6.706
   55SBC   C0B638768   0.190   2.736   6.783
   55SBC   C0CG38769   0.096   2.411   7.010
   55SBC   C0CF38770   0.040   2.302   7.075
   55SBC   C0E538771  -0.091   2.087   7.194
   55SBC   C0DT38772  -0.237   2.126   7.418
   55SBC   C0DL38773  -0.124   2.472   7.363
   55SBC   C0DM38774  -0.144   2.601   7.414
   55SBC   C0DY38775  -0.269   2.515   7.597
   55SBC   C0DU38776  -0.302   2.155   7.540
   55SBC   C0F038777  -0.467   2.069   7.693
   55SBC   C0F438778  -0.686   2.117   7.832
   55SBC   C0FG38779  -0.476   2.426   7.890
   55SBC   O00B38780  -0.810   2.302   7.935
   55SBC   C0FN38781  -0.531   2.546   7.930
   55SBC   C0DZ38782  -0.351   2.532   7.711
   55SBC   O00C38783  -0.372   2.899   7.718
   55SBC   C0FR38784  -0.321   3.014   7.660
   55SBC   O00D38785  -0.364   3.126   7.703
   55SBC   C0E038786  -0.218   2.624   7.526
   55SBC   C0E338787  -0.225   3.000   7.548
   55SBC   C0AW38788  -0.166   3.106   7.477
   55SBC   C0AV38789  -0.162   3.244   7.516
   55SBC   H00Q38790  -0.210   3.274   7.608
   55SBC   C0AU38791  -0.098   3.350   7.438
   55SBC   H00R38792  -0.112   3.452   7.468
   55SBC   C0AT38793  -0.036   3.317   7.315
   55SBC   C0AS38794   0.043   3.379   7.209
   55SBC   C0AR38795   0.130   3.490   7.223
   55SBC   C0BE38796  -0.039   3.180   7.286
   55SBC   C0DN38797  -0.102   2.707   7.336
   55SBC   C0AX38798  -0.101   3.073   7.358
   55SBC   C0BB38799   0.000   2.795   7.140
   55SBC   C0BD38800   0.007   3.159   7.161
   55SBC   C0B238801   0.100   2.892   6.941
   55SBC   C0AH38802   0.136   3.109   6.773
   55SBC   C0BF38803   0.062   3.277   7.105
   55SBC   C0AL38804   0.100   3.357   6.662
   55SBC   C07U38805   0.164   3.532   6.973
   55SBC   C0AQ38806   0.183   3.560   7.110
   55SBC   C0BG38807   0.198   3.546   7.343
   55SBC   C0FY38808   0.228   3.903   7.356
   55SBC   C0BJ38809   0.137   3.585   7.470
   55SBC   H00S38810   0.067   3.526   7.528
   55SBC   C0FZ38811   0.152   3.944   7.465
   55SBC   C07S38812   0.222   3.968   7.228
   55SBC   C0G138813   0.054   4.276   7.373
   55SBC   C07K38814   0.043   4.372   7.011
   55SBC   C07H38815   0.178   4.123   6.990
   55SBC   C06B38816   0.283   4.307   6.715
   55SBC   C06N38817   0.287   4.136   6.557
   55SBC   C06638818   0.218   3.902   6.863
   55SBC   C06238819   0.162   3.693   6.627
   55SBC   C05Y38820   0.292   3.960   6.372
   55SBC   C06138821   0.138   3.644   6.496
   55SBC   C05H38822   0.311   3.681   6.191
   55SBC   C06V38823   0.160   3.509   6.454
   55SBC   C06Y38824   0.234   3.264   6.332
   55SBC   C05C38825   0.358   3.453   6.036
   55SBC   C06Z38826   0.325   3.111   6.173
   55SBC   C07038827   0.398   3.060   5.912
   55SBC   C05B38828   0.399   3.426   5.905
   55SBC   C05738829   0.484   3.358   5.645
   55SBC   C05938830   0.460   3.130   5.687
   56SBC   C05838831  10.626   1.403  14.549
   56SBC   C05A38832  10.623   1.462  14.674
   56SBC   C06Q38833  10.738   1.512  14.732
   56SBC   C06R38834  10.736   1.584  14.857
   56SBC   C06S38835  10.613   1.603  14.926
   56SBC   C06T38836  10.614   1.673  15.050
   56SBC   C06U38837  10.506   1.696  15.149
   56SBC   C06X38838  10.364   1.671  15.150
   56SBC   C06038839  10.307   1.718  15.270
   56SBC   C05Z38840  10.179   1.786  15.299
   56SBC   C06838841  10.208   1.865  15.417
   56SBC   C06738842  10.122   1.893  15.531
   56SBC   C06938843   9.980   1.848  15.528
   56SBC   C06A38844   9.889   1.819  15.638
   56SBC   C07338845   9.907   1.799  15.775
   56SBC   C07P38846   9.842   1.691  15.836
   56SBC   C07O38847   9.768   1.595  15.771
   56SBC   H00D38848   9.765   1.595  15.663
   56SBC   C07N38849   9.686   1.499  15.835
   56SBC   H00E38850   9.628   1.435  15.770
   56SBC   C07M38851   9.693   1.491  15.977
   56SBC   H00F38852   9.642   1.415  16.034
   56SBC   C07L38853   9.781   1.577  16.047
   56SBC   C07Q38854   9.800   1.582  16.188
   56SBC   H00G38855   9.745   1.510  16.246
   56SBC   O00F38856   9.887   1.659  16.256
   56SBC   C07J38857   9.948   1.757  16.183
   56SBC   C07I38858   9.930   1.771  16.043
   56SBC   N00438859  10.000   1.875  15.973
   56SBC   C07R38860  10.077   1.971  16.052
   56SBC   C07T38861  10.089   1.949  16.189
   56SBC   C0FX38862  10.173   2.023  16.263
   56SBC   C0FW38863  10.213   1.995  16.392
   56SBC   C0G038864  10.140   1.895  16.457
   56SBC   C0G238865  10.159   1.870  16.594
   56SBC   H01E38866  10.104   1.784  16.629
   56SBC   C0G338867  10.262   1.935  16.658
   56SBC   H01C38868  10.272   1.916  16.764
   56SBC   C0G438869  10.333   2.036  16.597
   56SBC   H01D38870  10.403   2.092  16.657
   56SBC   O00E38871  10.037   1.826  16.394
   56SBC   C0FV38872  10.312   2.066  16.462
   56SBC   C0FU38873  10.387   2.169  16.391
   56SBC   H01B38874  10.472   2.221  16.432
   56SBC   C0FT38875  10.342   2.200  16.263
   56SBC   C0FS38876  10.391   2.273  16.151
   56SBC   C0BI38877  10.292   2.278  16.048
   56SBC   C0BH38878  10.347   2.312  15.925
   56SBC   C07F38879  10.344   2.219  15.815
   56SBC   C07E38880  10.247   2.131  15.773
   56SBC   C07G38881  10.150   2.076  15.852
   56SBC   C07438882  10.097   1.969  15.781
   56SBC   C06538883  10.265   2.051  15.657
   56SBC   C06438884  10.387   2.065  15.591
   56SBC   C06338885  10.432   1.989  15.485
   56SBC   C07538886  10.574   2.026  15.463
   56SBC   C0AM38887  10.618   2.124  15.555
   56SBC   C0AN38888  10.751   2.195  15.563
   56SBC   C0AO38889  10.878   2.180  15.484
   56SBC   C0B138890  10.994   2.269  15.500
   56SBC   C0B038891  10.999   2.362  15.598
   56SBC   C0AZ38892  11.102   2.450  15.626
   56SBC   C0AY38893  11.085   2.549  15.719
   56SBC   N00738894  11.190   2.633  15.753
   56SBC   C0E238895  11.174   2.730  15.855
   56SBC   C0E138896  11.285   2.808  15.883
   56SBC   C0E438897  11.269   2.914  15.978
   56SBC   C0FF38898  11.377   3.002  16.012
   56SBC   C0FJ38899  11.383   3.129  16.091
   56SBC   C0FK38900  11.286   3.231  16.070
   56SBC   H01638901  11.186   3.221  16.031
   56SBC   C0FL38902  11.353   3.352  16.095
   56SBC   H01738903  11.322   3.454  16.077
   56SBC   C0FM38904  11.491   3.327  16.142
   56SBC   C0FH38905  11.628   3.372  16.109
   56SBC   C0FI38906  11.700   3.247  16.083
   56SBC   C0F338907  11.797   3.258  15.978
   56SBC   C0F238908  11.815   3.144  15.910
   56SBC   C0DW38909  11.734   3.034  15.909
   56SBC   C0FE38910  11.625   3.033  15.991
   56SBC   C0DV38911  11.738   2.940  15.810
   56SBC   C0DX38912  11.635   2.855  15.779
   56SBC   C0DK38913  11.641   2.776  15.667
   56SBC   C0DJ38914  11.760   2.773  15.590
   56SBC   C0DI38915  11.770   2.692  15.477
   56SBC   C0DH38916  11.659   2.610  15.446
   56SBC   C0DG38917  11.542   2.614  15.523
   56SBC   C0BV38918  11.433   2.533  15.489
   56SBC   C0BC38919  11.318   2.531  15.571
   56SBC   C0BA38920  11.436   2.448  15.383
   56SBC   C0B438921  11.328   2.364  15.360
   56SBC   C0B338922  11.218   2.358  15.441
   56SBC   C0B538923  11.338   2.276  15.251
   56SBC   C0BU38924  11.445   2.292  15.159
   56SBC   C0BT38925  11.548   2.383  15.180
   56SBC   C0BS38926  11.650   2.401  15.083
   56SBC   C0CC38927  11.748   2.500  15.108
   56SBC   C0CB38928  11.844   2.532  15.014
   56SBC   C0CH38929  11.954   2.612  15.056
   56SBC   C0DO38930  11.974   2.653  15.184
   56SBC   C0DP38931  12.090   2.727  15.214
   56SBC   C0EA38932  12.215   2.723  15.136
   56SBC   H01238933  12.235   2.648  15.061
   56SBC   O00938934  12.319   2.797  15.185
   56SBC   C0EH38935  12.289   2.911  15.254
   56SBC   C0EG38936  12.356   3.027  15.224
   56SBC   C0EJ38937  12.447   3.065  15.114
   56SBC   H01038938  12.498   3.003  15.043
   56SBC   C0EK38939  12.454   3.210  15.117
   56SBC   H00Z38940  12.513   3.268  15.048
   56SBC   C0EL38941  12.384   3.251  15.236
   56SBC   C0EM38942  12.349   3.378  15.289
   56SBC   C0EW38943  12.374   3.511  15.240
   56SBC   H01338944  12.437   3.526  15.153
   56SBC   C0EX38945  12.336   3.629  15.323
   56SBC   H01438946  12.368   3.730  15.302
   56SBC   C0F138947  12.262   3.612  15.442
   56SBC   C0EU38948  12.226   3.485  15.487
   56SBC   C0ET38949  12.141   3.449  15.593
   56SBC   C0ES38950  12.125   3.313  15.577
   56SBC   C0EE38951  12.198   3.264  15.466
   56SBC   C0ED38952  12.225   3.145  15.397
   56SBC   C0EC38953  12.148   3.026  15.421
   56SBC   C0EB38954  12.054   3.000  15.527
   56SBC   C0EN38955  12.025   3.094  15.636
   56SBC   C0ER38956  11.935   3.048  15.734
   56SBC   C0DS38957  11.962   2.889  15.523
   56SBC   C0DR38958  11.973   2.803  15.413
   56SBC   C0EY38959  12.058   3.228  15.667
   56SBC   C0EZ38960  11.990   3.266  15.779
   56SBC   C0F538961  11.950   3.395  15.838
   56SBC   C0F638962  11.998   3.524  15.790
   56SBC   N00838963  11.947   3.635  15.868
   56SBC   C0F738964  11.847   3.622  15.966
   56SBC   C0FQ38965  11.802   3.741  16.031
   56SBC   H01838966  11.714   3.732  16.094
   56SBC   C0FP38967  11.860   3.865  16.008
   56SBC   H01938968  11.832   3.953  16.063
   56SBC   C0FO38969  11.964   3.878  15.919
   56SBC   H01A38970  12.017   3.972  15.910
   56SBC   C0F838971  11.792   3.492  15.990
   56SBC   C0F938972  11.999   3.764  15.837
   56SBC   C0FA38973  12.084   3.784  15.725
   56SBC   H01538974  12.112   3.886  15.704
   56SBC   C0FB38975  12.134   3.681  15.645
   56SBC   C0FD38976  12.082   3.554  15.679
   56SBC   C0FC38977  12.214   3.719  15.525
   56SBC   O00A38978  12.240   3.839  15.503
   56SBC   C0EV38979  12.267   3.376  15.410
   56SBC   C0EF38980  12.318   3.141  15.287
   56SBC   C0EI38981  12.176   2.914  15.342
   56SBC   C0DQ38982  12.085   2.812  15.328
   56SBC   C0CE38983  11.870   2.637  15.273
   56SBC   H00U38984  12.035   2.635  14.988
   56SBC   C0CA38985  11.826   2.476  14.886
   56SBC   C0C938986  11.741   2.360  14.864
   56SBC   C0C838987  11.745   2.298  14.733
   56SBC   C0C738988  11.712   2.162  14.687
   56SBC   C0C638989  11.734   2.135  14.554
   56SBC   C0C538990  11.792   2.009  14.507
   56SBC   C0CQ38991  11.919   2.011  14.459
   56SBC   C0D138992  11.982   2.129  14.450
   56SBC   C0D838993  12.085   2.133  14.359
   56SBC   C0D738994  12.079   2.005  14.295
   56SBC   C0D638995  12.125   1.984  14.160
   56SBC   C0D538996  12.082   1.876  14.075
   56SBC   C0D438997  11.985   1.772  14.088
   56SBC   C0D338998  11.931   1.744  13.962
   56SBC   C0CX38999  11.798   1.691  13.975
   56SBC   C0CW39000  11.765   1.698  14.119
   56SBC   C0CV39001  11.655   1.665  14.207
   56SBC   C0D239002  11.549   1.576  14.175
   56SBC   C09D39003  11.546   1.509  14.044
   56SBC   C09C39004  11.438   1.416  14.021
   56SBC   C09B39005  11.413   1.338  13.907
   56SBC   C09A39006  11.517   1.352  13.813
   56SBC   C09939007  11.635   1.413  13.833
   56SBC   C09839008  11.692   1.441  13.708
   56SBC   C08Y39009  11.597   1.400  13.604
   56SBC   C08X39010  11.593   1.424  13.461
   56SBC   C08W39011  11.703   1.497  13.401
   56SBC   C08U39012  11.800   1.582  13.470
   56SBC   C08V39013  11.823   1.622  13.609
   56SBC   C0DC39014  11.949   1.677  13.604
   56SBC   H00W39015  12.004   1.700  13.695
   56SBC   C0DB39016  12.002   1.703  13.475
   56SBC   H00X39017  12.093   1.754  13.448
   56SBC   C08T39018  11.911   1.634  13.394
   56SBC   C08S39019  11.931   1.614  13.257
   56SBC   H00N39020  12.020   1.634  13.199
   56SBC   C08R39021  11.834   1.536  13.190
   56SBC   C08Q39022  11.838   1.517  13.049
   56SBC   H00O39023  11.929   1.547  13.000
   56SBC   C08P39024  11.741   1.471  12.966
   56SBC   C08O39025  11.752   1.454  12.822
   56SBC   H00P39026  11.842   1.479  12.768
   56SBC   C08N39027  11.634   1.414  12.747
   56SBC   C08M39028  11.633   1.412  12.600
   56SBC   O00839029  11.732   1.431  12.534
   56SBC   O00739030  11.520   1.377  12.534
   56SBC   C08H39031  11.408   1.332  12.600
   56SBC   C08G39032  11.286   1.294  12.534
   56SBC   C03V39033  11.253   1.295  12.397
   56SBC   H00939034  11.323   1.322  12.320
   56SBC   C03U39035  11.125   1.260  12.346
   56SBC   C03W39036  11.090   1.247  12.200
   56SBC   H00A39037  11.160   1.280  12.124
   56SBC   C03X39038  10.974   1.196  12.163
   56SBC   H00B39039  10.947   1.193  12.059
   56SBC   O00539040  10.879   1.161  12.254
   56SBC   C03O39041  10.905   1.174  12.389
   56SBC   C03N39042  10.803   1.147  12.477
   56SBC   O00039043  10.690   1.108  12.421
   56SBC   C01939044  10.581   1.101  12.506
   56SBC   C01839045  10.580   1.101  12.646
   56SBC   C01739046  10.711   1.114  12.703
   56SBC   C01639047  10.723   1.117  12.841
   56SBC   C01539048  10.604   1.089  12.911
   56SBC   C01439049  10.613   1.078  13.052
   56SBC   C01339050  10.738   1.103  13.118
   56SBC   C01239051  10.704   1.075  13.260
   56SBC   C01139052  10.573   1.021  13.255
   56SBC   C01039053  10.505   0.980  13.369
   56SBC   C00Z39054  10.369   0.970  13.382
   56SBC   C00Y39055  10.356   0.968  13.521
   56SBC   C01O39056  10.475   0.979  13.589
   56SBC   C01P39057  10.485   1.034  13.719
   56SBC   C02L39058  10.611   1.087  13.758
   56SBC   C02K39059  10.709   1.086  13.653
   56SBC   C01M39060  10.689   1.062  13.511
   56SBC   C02J39061  10.832   1.130  13.710
   56SBC   C02I39062  10.952   1.148  13.637
   56SBC   C02H39063  10.982   1.138  13.504
   56SBC   C01Q39064  10.903   1.125  13.390
   56SBC   C02G39065  10.981   1.144  13.273
   56SBC   C08939066  11.113   1.143  13.319
   56SBC   C08839067  11.192   1.204  13.225
   56SBC   C08739068  11.113   1.193  13.103
   56SBC   C08639069  11.167   1.223  12.971
   56SBC   C03S39070  11.097   1.211  12.850
   56SBC   N00639071  11.188   1.248  12.749
   56SBC   C08F39072  11.307   1.288  12.807
   56SBC   C01J39073  10.962   1.186  12.808
   56SBC   C03R39074  10.941   1.180  12.669
   56SBC   C03Q39075  11.047   1.216  12.575
   56SBC   C08E39076  11.296   1.278  12.941
   56SBC   C08D39077  11.402   1.321  13.020
   56SBC   C08K39078  11.521   1.369  12.957
   56SBC   C08C39079  11.405   1.320  13.161
   56SBC   C09139080  11.513   1.373  13.233
   56SBC   C09239081  11.623   1.429  13.172
   56SBC   C08B39082  11.316   1.268  13.257
   56SBC   C09039083  11.365   1.305  13.389
   56SBC   C09439084  11.331   1.240  13.509
   56SBC   C09539085  11.379   1.281  13.634
   56SBC   C09R39086  11.288   1.251  13.737
   56SBC   C09739087  11.175   1.208  13.676
   56SBC   C09639088  11.204   1.201  13.538
   56SBC   C01I39089  10.971   1.163  13.130
   56SBC   C08A39090  11.102   1.169  13.455
   56SBC   C09L39091  11.047   1.184  13.726
   56SBC   C09K39092  10.989   1.196  13.857
   56SBC   C09J39093  11.058   1.230  13.972
   56SBC   C09I39094  11.007   1.277  14.095
   56SBC   C09O39095  10.872   1.280  14.149
   56SBC   C09N39096  10.758   1.233  14.080
   56SBC   C09M39097  10.739   1.178  13.947
   56SBC   C06O39098  10.635   1.247  14.153
   56SBC   C05M39099  10.631   1.299  14.280
   56SBC   C06P39100  10.747   1.341  14.344
   56SBC   C04239101  10.512   1.316  14.349
   56SBC   C04139102  10.391   1.279  14.287
   56SBC   C04039103  10.271   1.309  14.349
   56SBC   C03Z39104  10.151   1.296  14.284
   56SBC   C03Y39105  10.142   1.231  14.162
   56SBC   C02739106  10.020   1.225  14.092
   56SBC   C02639107  10.018   1.178  13.962
   56SBC   C02839108   9.897   1.165  13.893
   56SBC   C02939109   9.786   1.228  13.942
   56SBC   C02B39110   9.672   1.245  13.864
   56SBC   C02C39111   9.562   1.321  13.910
   56SBC   C02X39112   9.452   1.330  13.829
   56SBC   C03E39113   9.353   1.412  13.876
   56SBC   C03G39114   9.355   1.486  13.990
   56SBC   C04Q39115   9.465   1.472  14.068
   56SBC   C04R39116   9.472   1.540  14.183
   56SBC   C04S39117   9.582   1.533  14.263
   56SBC   C04L39118   9.687   1.446  14.227
   56SBC   C04M39119   9.680   1.372  14.109
   56SBC   C04K39120   9.803   1.436  14.301
   56SBC   C04F39121   9.813   1.509  14.420
   56SBC   C04E39122   9.707   1.591  14.462
   56SBC   C04D39123   9.712   1.660  14.580
   56SBC   C05039124   9.602   1.732  14.629
   56SBC   C05139125   9.600   1.768  14.760
   56SBC   C05Q39126   9.487   1.834  14.805
   56SBC   C05V39127   9.476   1.860  14.935
   56SBC   N00539128   9.358   1.914  14.991
   56SBC   C07V39129   9.259   1.956  14.903
   56SBC   C08239130   9.150   2.027  14.954
   56SBC   C08139131   9.130   2.053  15.088
   56SBC   C07C39132   9.228   2.008  15.174
   56SBC   C07B39133   9.210   2.034  15.312
   56SBC   C08039134   9.101   2.102  15.365
   56SBC   C07Z39135   9.094   2.113  15.504
   56SBC   H00L39136   9.005   2.170  15.529
   56SBC   C07939137   9.182   2.055  15.595
   56SBC   C07839138   9.294   1.991  15.538
   56SBC   C07739139   9.394   1.932  15.624
   56SBC   C07X39140   9.374   1.917  15.762
   56SBC   H00I39141   9.445   1.885  15.837
   56SBC   C07Y39142   9.259   1.970  15.819
   56SBC   H00H39143   9.244   1.967  15.926
   56SBC   C07639144   9.518   1.894  15.573
   56SBC   C06C39145   9.625   1.860  15.659
   56SBC   H00C39146   9.623   1.835  15.764
   56SBC   C06F39147   9.531   1.892  15.434
   56SBC   C06E39148   9.655   1.864  15.376
   56SBC   C06G39149   9.680   1.852  15.245
   56SBC   C06H39150   9.570   1.867  15.158
   56SBC   C06I39151   9.446   1.909  15.213
   56SBC   C06L39152   9.809   1.819  15.193
   56SBC   C06M39153   9.925   1.814  15.280
   56SBC   C06K39154   9.814   1.767  15.060
   56SBC   C05S39155   9.702   1.791  14.978
   56SBC   C05U39156   9.927   1.710  15.010
   56SBC   C05X39157  10.043   1.707  15.094
   56SBC   C05G39158  10.156   1.654  15.018
   56SBC   C05F39159  10.139   1.591  14.898
   56SBC   C05E39160  10.259   1.544  14.843
   56SBC   C04839161  10.263   1.482  14.719
   56SBC   C05639162  10.384   1.452  14.670
   56SBC   C04539163  10.387   1.391  14.541
   56SBC   C04739164  10.149   1.477  14.651
   56SBC   C04939165  10.033   1.543  14.698
   56SBC   C04B39166   9.924   1.564  14.617
   56SBC   C04639167  10.146   1.415  14.526
   56SBC   C04H39168  10.031   1.420  14.457
   56SBC   C05D39169  10.367   1.571  14.925
   56SBC   C04A39170  10.025   1.597  14.823
   56SBC   C05T39171   9.923   1.663  14.880
   56SBC   C05539172   9.818   1.684  14.795
   56SBC   C06D39173   9.763   1.845  15.460
   56SBC   C07W39174   9.428   1.928  15.349
   56SBC   C08539175   9.169   2.038  15.737
   56SBC   H00M39176   9.084   2.087  15.783
   56SBC   C08439177   8.999   2.139  15.276
   56SBC   H00J39178   8.911   2.186  15.316
   56SBC   C07A39179   9.310   1.986  15.399
   56SBC   C08339180   9.014   2.111  15.144
   56SBC   H00K39181   8.937   2.153  15.080
   56SBC   O00K39182   9.049   2.073  14.864
   56SBC   C0GO39183   9.070   2.045  14.729
   56SBC   C0GN39184   8.978   2.088  14.633
   56SBC   H01L39185   8.909   2.166  14.661
   56SBC   C0GM39186   8.981   2.059  14.498
   56SBC   C0GL39187   8.897   2.113  14.410
   56SBC   H01M39188   8.825   2.185  14.446
   56SBC   O00J39189   8.896   2.086  14.276
   56SBC   C0GK39190   8.986   1.980  14.243
   56SBC   H01N39191   8.996   1.961  14.137
   56SBC   C05K39192   9.076   1.927  14.327
   56SBC   C05J39193   9.177   1.828  14.286
   56SBC   C04Y39194   9.163   1.752  14.171
   56SBC   C04X39195   9.259   1.654  14.135
   56SBC   O00639196   9.059   1.761  14.084
   56SBC   C05339197   9.054   1.705  13.959
   56SBC   C04O39198   9.149   1.599  13.926
   56SBC   C03C39199   9.146   1.516  13.812
   56SBC   C03B39200   9.069   1.509  13.687
   56SBC   C05439201   8.982   1.610  13.648
   56SBC   C0GR39202   8.925   1.616  13.517
   56SBC   C03M39203   8.937   1.543  13.390
   56SBC   C03I39204   9.034   1.436  13.363
   56SBC   C03J39205   9.045   1.391  13.229
   56SBC   N00239206   9.153   1.299  13.190
   56SBC   C02U39207   9.167   1.255  13.053
   56SBC   C02T39208   9.273   1.181  13.009
   56SBC   C02Z39209   9.280   1.143  12.872
   56SBC   N00139210   9.383   1.073  12.826
   56SBC   C02R39211   9.382   1.020  12.695
   56SBC   C03239212   9.266   1.039  12.616
   56SBC   C03139213   9.184   1.144  12.654
   56SBC   H00739214   9.106   1.176  12.586
   56SBC   C03339215   9.263   0.959  12.497
   56SBC   H00339216   9.184   0.975  12.425
   56SBC   O00439217   9.360   0.870  12.466
   56SBC   C03439218   9.477   0.862  12.536
   56SBC   C03539219   9.578   0.775  12.492
   56SBC   C03639220   9.698   0.763  12.563
   56SBC   H00539221   9.781   0.703  12.528
   56SBC   C03739222   9.707   0.839  12.682
   56SBC   H00639223   9.800   0.830  12.736
   56SBC   C00D39224   9.606   0.929  12.722
   56SBC   C00C39225   9.607   0.986  12.853
   56SBC   C00B39226   9.726   0.979  12.945
   56SBC   C00A39227   9.873   0.945  12.951
   56SBC   C00939228   9.900   0.936  13.094
   56SBC   C00839229  10.023   0.958  13.160
   56SBC   C00739230  10.134   0.975  13.083
   56SBC   C00639231  10.261   0.977  13.154
   56SBC   C00539232  10.372   1.010  13.072
   56SBC   C00439233  10.362   1.041  12.934
   56SBC   C00339234  10.239   1.036  12.873
   56SBC   C00239235  10.231   1.062  12.735
   56SBC   C01C39236  10.348   1.071  12.661
   56SBC   C01B39237  10.338   1.070  12.521
   56SBC   H00039238  10.250   1.050  12.462
   56SBC   C00139239  10.104   1.088  12.686
   56SBC   C00039240   9.990   1.056  12.762
   56SBC   C01U39241   9.879   1.097  12.678
   56SBC   H00239242   9.772   1.106  12.695
   56SBC   C01T39243   9.938   1.149  12.554
   56SBC   O00239244   9.882   1.186  12.451
   56SBC   O00139245  10.073   1.138  12.562
   56SBC   C01S39246  10.122   1.001  12.947
   56SBC   C00N39247  10.017   0.959  13.301
   56SBC   C00M39248   9.897   0.974  13.370
   56SBC   C00J39249   9.783   0.984  13.301
   56SBC   C00I39250   9.664   1.036  13.349
   56SBC   C00H39251   9.558   1.065  13.266
   56SBC   C00G39252   9.567   1.040  13.130
   56SBC   C00F39253   9.475   1.073  13.040
   56SBC   C01X39254   9.451   1.137  13.317
   56SBC   C01W39255   9.448   1.177  13.451
   56SBC   C01V39256   9.556   1.150  13.537
   56SBC   C02039257   9.554   1.193  13.666
   56SBC   C01Z39258   9.339   1.250  13.496
   56SBC   C02Y39259   9.339   1.285  13.628
   56SBC   C03939260   9.232   1.357  13.673
   56SBC   C02W39261   9.237   1.295  13.412
   56SBC   C01Y39262   9.352   1.170  13.234
   56SBC   C00U39263   9.665   1.081  13.484
   56SBC   C00S39264   9.782   1.062  13.564
   56SBC   C00T39265   9.784   1.112  13.691
   56SBC   C00R39266   9.895   1.011  13.507
   56SBC   C00Q39267  10.006   1.017  13.579
   56SBC   C00V39268  10.011   1.057  13.710
   56SBC   C02439269  10.126   1.076  13.781
   56SBC   C00X39270  10.246   1.036  13.720
   56SBC   C00P39271  10.127   0.995  13.510
   56SBC   C00O39272  10.134   0.971  13.370
   56SBC   C00K39273   9.785   0.945  13.166
   56SBC   N00039274   9.993   1.002  12.889
   56SBC   C00L39275   9.689   0.986  13.080
   56SBC   H00439276   9.556   0.718  12.403
   56SBC   C02Q39277   9.490   0.937  12.653
   56SBC   C00E39278   9.493   1.043  12.910
   56SBC   C03039279   9.184   1.187  12.784
   56SBC   O00339280   9.082   1.268  12.829
   56SBC   C02S39281   9.367   1.138  13.093
   56SBC   C03839282   9.069   1.296  12.961
   56SBC   C03L39283   8.967   1.379  13.001
   56SBC   H00839284   8.901   1.424  12.929
   56SBC   C02V39285   9.246   1.249  13.282
   56SBC   C03K39286   8.958   1.428  13.129
   56SBC   C0BK39287   8.859   1.519  13.169
   56SBC   H00T39288   8.796   1.557  13.090
   56SBC   C03H39289   9.135   1.383  13.453
   56SBC   C0BL39290   8.842   1.580  13.290
   56SBC   C0GU39291   8.751   1.679  13.312
   56SBC   H01O39292   8.690   1.705  13.228
   56SBC   C0GT39293   8.743   1.755  13.426
   56SBC   H01P39294   8.680   1.841  13.443
   56SBC   C0GS39295   8.824   1.718  13.532
   56SBC   C0GV39296   8.834   1.783  13.659
   56SBC   C0GW39297   8.759   1.896  13.704
   56SBC   H01Q39298   8.685   1.956  13.653
   56SBC   C0GX39299   8.787   1.928  13.832
   56SBC   H01R39300   8.731   2.013  13.868
   56SBC   O00L39301   8.875   1.854  13.924
   56SBC   C0GQ39302   8.930   1.713  13.739
   56SBC   C03A39303   9.134   1.416  13.597
   56SBC   C05L39304   8.952   1.751  13.870
   56SBC   C04W39305   9.279   1.797  14.374
   56SBC   C05I39306   9.281   1.848  14.501
   56SBC   C05O39307   9.177   1.919  14.553
   56SBC   C05239308   9.385   1.816  14.591
   56SBC   C04V39309   9.381   1.711  14.336
   56SBC   C04U39310   9.489   1.686  14.419
   56SBC   N00939311   9.078   1.968  14.460
   56SBC   C0GP39312   9.177   1.968  14.683
   56SBC   C05W39313   9.274   1.931  14.769
   56SBC   C07D39314   9.344   1.942  15.130
   56SBC   C06J39315   9.583   1.843  15.023
   56SBC   C05P39316   9.381   1.859  14.723
   56SBC   C05R39317   9.705   1.750  14.844
   56SBC   C04Z39318   9.496   1.746  14.550
   56SBC   C04C39319   9.822   1.636  14.664
   56SBC   C04G39320   9.926   1.497  14.496
   56SBC   C04J39321   9.914   1.356  14.257
   56SBC   C04T39322   9.596   1.606  14.380
   56SBC   N00339323   9.370   1.635  14.220
   56SBC   C04P39324   9.250   1.573  14.020
   56SBC   C03D39325   9.239   1.416  13.799
   56SBC   C02139326   9.447   1.268  13.711
   56SBC   C03F39327   9.570   1.388  14.028
   56SBC   C02239328   9.672   1.180  13.741
   56SBC   C02A39329   9.791   1.296  14.063
   56SBC   C02339330   9.897   1.110  13.765
   56SBC   C02539331  10.131   1.127  13.908
   56SBC   C02D39332  10.255   1.148  13.968
   56SBC   C02E39333  10.377   1.114  13.907
   56SBC   C02N39334  10.501   1.145  13.966
   56SBC   C04N39335   9.904   1.286  14.141
   56SBC   C02P39336  10.260   1.202  14.095
   56SBC   C04I39337  10.035   1.356  14.334
   56SBC   C04439338  10.267   1.363  14.478
   56SBC   C04339339  10.387   1.233  14.156
   56SBC   C05N39340  10.509   1.205  14.093
   56SBC   C09U39341  10.867   1.344  14.272
   56SBC   C09V39342  10.981   1.399  14.336
   56SBC   C09X39343  11.106   1.403  14.274
   56SBC   C09Y39344  11.219   1.471  14.313
   56SBC   C0A139345  11.211   1.532  14.432
   56SBC   C0A239346  11.094   1.521  14.508
   56SBC   C0A439347  11.091   1.572  14.633
   56SBC   C07139348  10.975   1.569  14.707
   56SBC   C0A539349  10.972   1.641  14.824
   56SBC   C0A939350  11.088   1.708  14.874
   56SBC   C0A839351  11.203   1.711  14.797
   56SBC   C0AP39352  11.303   1.800  14.830
   56SBC   C0BY39353  11.415   1.811  14.751
   56SBC   C0BX39354  11.420   1.749  14.627
   56SBC   C0C239355  11.529   1.767  14.544
   56SBC   C0C339356  11.540   1.702  14.418
   56SBC   C0CT39357  11.437   1.615  14.386
   56SBC   C0C139358  11.626   1.863  14.582
   56SBC   C0C039359  11.622   1.934  14.712
   56SBC   C0A739360  11.318   1.663  14.592
   56SBC   C0BZ39361  11.515   1.903  14.788
   56SBC   C0BO39362  11.506   1.977  14.905
   56SBC   C0BN39363  11.383   1.988  14.972
   56SBC   C0BM39364  11.368   2.093  15.054
   56SBC   C0B939365  11.259   2.086  15.140
   56SBC   C0B839366  11.167   1.985  15.118
   56SBC   C0AD39367  11.180   1.889  15.015
   56SBC   C0AF39368  11.046   1.994  15.191
   56SBC   C0AG39369  11.027   2.085  15.296
   56SBC   C0B739370  11.126   2.177  15.324
   56SBC   C0AE39371  10.954   1.904  15.152
   56SBC   C0AB39372  10.959   1.808  15.051
   56SBC   C0AA39373  10.851   1.727  15.016
   56SBC   C0AJ39374  10.832   1.915  15.222
   56SBC   C0AK39375  10.734   1.817  15.200
   56SBC   C06W39376  10.632   1.848  15.292
   56SBC   C0AI39377  10.804   1.994  15.337
   56SBC   C0BP39378  11.602   2.086  14.890
   56SBC   C0BQ39379  11.572   2.200  14.972
   56SBC   C0BW39380  11.293   1.888  14.943
   56SBC   C0AC39381  11.076   1.796  14.982
   56SBC   C0A639382  11.205   1.644  14.677
   56SBC   C0A339383  11.324   1.600  14.468
   56SBC   C09Z39384  11.332   1.484  14.227
   56SBC   C09W39385  10.979   1.453  14.461
   56SBC   C07239386  10.862   1.449  14.529
   56SBC   C09H39387  11.116   1.330  14.163
   56SBC   C09G39388  11.230   1.323  14.088
   56SBC   C09P39389  11.198   1.263  13.974
   56SBC   C02O39390  10.849   1.172  13.851
   56SBC   C02M39391  10.620   1.135  13.891
   56SBC   C02F39392  10.367   1.050  13.787
   56SBC   C00W39393  10.240   0.993  13.587
   56SBC   C01R39394  10.254   0.974  13.294
   56SBC   C01N39395  10.568   0.991  13.492
   56SBC   C01L39396  10.768   1.094  13.393
   56SBC   C01H39397  10.855   1.139  13.044
   56SBC   C01K39398  10.508   1.034  13.130
   56SBC   C01E39399  10.476   1.075  12.857
   56SBC   C01G39400  10.854   1.141  12.898
   56SBC   C01D39401  10.469   1.082  12.719
   56SBC   C01A39402  10.456   1.089  12.445
   56SBC   H00139403  10.459   1.094  12.337
   56SBC   C01F39404  10.820   1.148  12.619
   56SBC   C03P39405  11.027   1.219  12.437
   56SBC   C03T39406  11.179   1.255  12.612
   56SBC   C08I39407  11.414   1.332  12.742
   56SBC   C08J39408  11.525   1.373  12.819
   56SBC   C08L39409  11.625   1.423  13.028
   56SBC   C09339410  11.717   1.490  13.258
   56SBC   C08Z39411  11.494   1.370  13.373
   56SBC   C09T39412  11.763   1.559  13.730
   56SBC   C09S39413  11.497   1.340  13.675
   56SBC   C09Q39414  11.294   1.280  13.871
   56SBC   C09F39415  11.342   1.407  14.118
   56SBC   C09E39416  11.643   1.511  13.934
   56SBC   C0A039417  11.441   1.559  14.262
   56SBC   C0CU39418  11.648   1.726  14.331
   56SBC   C0CR39419  11.745   1.817  14.374
   56SBC   C0CZ39420  11.865   1.842  14.296
   56SBC   C0DA39421  11.740   1.596  13.879
   56SBC   C0D939422  11.976   1.851  13.873
   56SBC   H00V39423  11.924   1.887  13.785
   56SBC   C0CY39424  11.874   1.773  14.177
   56SBC   C0DF39425  12.080   1.922  13.945
   56SBC   C0DE39426  12.160   2.037  13.944
   56SBC   C0GI39427  12.223   2.106  13.833
   56SBC   H01K39428  12.199   2.073  13.733
   56SBC   C0GJ39429  12.310   2.204  13.866
   56SBC   H01J39430  12.363   2.249  13.784
   56SBC   O00I39431  12.319   2.261  13.995
   56SBC   C0GH39432  12.239   2.214  14.098
   56SBC   C0GG39433  12.224   2.296  14.214
   56SBC   O00G39434  12.286   2.418  14.211
   56SBC   C0G839435  12.256   2.521  14.308
   56SBC   C0G939436  12.324   2.641  14.286
   56SBC   H01G39437  12.402   2.654  14.212
   56SBC   C0GA39438  12.274   2.747  14.356
   56SBC   H01H39439  12.308   2.847  14.332
   56SBC   C0GB39440  12.176   2.745  14.456
   56SBC   C0EP39441  12.132   2.619  14.491
   56SBC   C0E839442  12.048   2.612  14.614
   56SBC   C0CK39443  11.972   2.511  14.675
   56SBC   C0CL39444  11.919   2.409  14.597
   56SBC   C0E939445  11.992   2.352  14.485
   56SBC   C0GE39446  12.114   2.372  14.415
   56SBC   C0E739447  12.010   2.726  14.680
   56SBC   C0CJ39448  11.908   2.699  14.780
   56SBC   C0E639449  11.836   2.816  14.835
   56SBC   H00Y39450  11.764   2.808  14.915
   56SBC   C0EO39451  11.873   2.937  14.785
   56SBC   H01139452  11.829   3.030  14.815
   56SBC   C0G639453  11.958   2.957  14.676
   56SBC   C0G539454  11.982   3.084  14.608
   56SBC   H01F39455  11.951   3.181  14.644
   56SBC   C0GD39456  12.060   3.087  14.500
   56SBC   H01I39457  12.084   3.186  14.462
   56SBC   O00H39458  12.133   2.983  14.440
   56SBC   C0EQ39459  12.035   2.849  14.620
   56SBC   C0GC39460  12.118   2.864  14.508
   56SBC   C0G739461  12.162   2.503  14.412
   56SBC   C0DD39462  12.181   2.085  14.077
   56SBC   C0GF39463  12.147   2.265  14.325
   56SBC   C0CO39464  11.915   2.245  14.466
   56SBC   C0D039465  11.955   1.935  14.351
   56SBC   C0C439466  11.725   1.894  14.490
   56SBC   C0CN39467  11.782   2.261  14.510
   56SBC   C0CP39468  11.685   2.055  14.774
   56SBC   C0CM39469  11.787   2.358  14.613
   56SBC   C0CI39470  11.900   2.554  14.788
   56SBC   C0CD39471  11.759   2.560  15.234
   56SBC   C0BR39472  11.654   2.314  14.970
   56SBC   C0CS39473  11.462   2.194  15.060
   56SBC   C0B639474  11.236   2.182  15.239
   56SBC   C0CG39475  11.544   2.460  15.296
   56SBC   C0CF39476  11.654   2.541  15.323
   56SBC   C0E539477  11.872   2.710  15.390
   56SBC   C0DT39478  11.857   2.869  15.612
   56SBC   C0DL39479  11.537   2.694  15.638
   56SBC   C0DM39480  11.419   2.695  15.722
   56SBC   C0DY39481  11.519   2.865  15.857
   56SBC   C0DU39482  11.846   2.941  15.723
   56SBC   C0F039483  11.917   3.152  15.817
   56SBC   C0F439484  11.847   3.380  15.936
   56SBC   C0FG39485  11.614   3.139  16.084
   56SBC   O00B39486  11.675   3.494  16.066
   56SBC   C0FN39487  11.496   3.182  16.144
   56SBC   C0DZ39488  11.506   2.965  15.960
   56SBC   O00C39489  11.145   2.943  16.017
   56SBC   C0FR39490  11.037   2.863  16.004
   56SBC   O00D39491  10.934   2.899  16.061
   56SBC   C0E039492  11.406   2.791  15.818
   56SBC   C0E339493  11.056   2.747  15.923
   56SBC   C0AW39494  10.952   2.659  15.892
   56SBC   C0AV39495  10.826   2.647  15.967
   56SBC   H00Q39496  10.790   2.721  16.036
   56SBC   C0AU39497  10.736   2.547  15.947
   56SBC   H00R39498  10.644   2.539  16.003
   56SBC   C0AT39499  10.760   2.450  15.855
   56SBC   C0AS39500  10.689   2.342  15.792
   56SBC   C0AR39501  10.562   2.298  15.839
   56SBC   C0BE39502  10.877   2.460  15.784
   56SBC   C0DN39503  11.313   2.617  15.681
   56SBC   C0AX39504  10.974   2.562  15.799
   56SBC   C0BB39505  11.212   2.451  15.544
   56SBC   C0BD39506  10.886   2.369  15.683
   56SBC   C0B239507  11.112   2.268  15.423
   56SBC   C0AH39508  10.906   2.091  15.378
   56SBC   C0BF39509  10.766   2.293  15.672
   56SBC   C0AL39510  10.670   1.954  15.378
   56SBC   C07U39511  10.495   2.147  15.635
   56SBC   C0AQ39512  10.470   2.222  15.754
   56SBC   C0BG39513  10.484   2.352  15.950
   56SBC   C0FY39514  10.199   2.173  16.079
   56SBC   C0BJ39515  10.511   2.326  16.093
   56SBC   H00S39516  10.605   2.321  16.145
   56SBC   C0FZ39517  10.236   2.129  16.203
   56SBC   C07S39518  10.132   2.085  15.995
   56SBC   C0G139519  10.021   1.847  16.255
   56SBC   C07K39520   9.849   1.679  15.974
   56SBC   C07H39521  10.002   1.879  15.839
   56SBC   C06B39522   9.753   1.847  15.598
   56SBC   C06N39523   9.889   1.835  15.416
   56SBC   C06639524  10.157   1.961  15.646
   56SBC   C06239525  10.352   1.879  15.429
   56SBC   C05Y39526  10.048   1.771  15.224
   56SBC   C06139527  10.407   1.769  15.357
   56SBC   C05H39528  10.300   1.634  15.035
   56SBC   C06V39529  10.522   1.774  15.267
   56SBC   C06Y39530  10.733   1.727  15.089
   56SBC   C05C39531  10.497   1.542  14.870
   56SBC   C06Z39532  10.853   1.647  14.899
   56SBC   C07039533  10.860   1.504  14.659
   56SBC   C05B39534  10.501   1.483  14.741
   56SBC   C05739535  10.506   1.367  14.478
   56SBC   C05939536  10.744   1.395  14.471
   57SBC   C05839537   0.530   8.495   6.508
   57SBC   C05A39538   0.504   8.634   6.500
   57SBC   C06Q39539   0.539   8.698   6.379
   57SBC   C06R39540   0.506   8.832   6.368
   57SBC   C06S39541   0.439   8.908   6.472
   57SBC   C06T39542   0.416   9.046   6.450
   57SBC   C06U39543   0.342   9.141   6.530
   57SBC   C06X39544   0.274   9.134   6.657
   57SBC   C06039545   0.196   9.254   6.680
   57SBC   C05Z39546   0.178   9.329   6.806
   57SBC   C06839547   0.199   9.473   6.761
   57SBC   C06739548   0.209   9.593   6.850
   57SBC   C06939549   0.155   9.584   6.987
   57SBC   C06A39550   0.169   9.681   7.098
   57SBC   C07339551   0.268   9.784   7.127
   57SBC   C07P39552   0.318   9.797   7.257
   57SBC   C07O39553   0.297   9.707   7.371
   57SBC   H00D39554   0.229   9.623   7.362
   57SBC   C07N39555   0.354   9.725   7.494
   57SBC   H00E39556   0.330   9.662   7.578
   57SBC   C07M39557   0.430   9.839   7.508
   57SBC   H00F39558   0.478   9.847   7.605
   57SBC   C07L39559   0.459   9.931   7.402
   57SBC   C07Q39560   0.539  10.049   7.421
   57SBC   H00G39561   0.568  10.075   7.522
   57SBC   O00F39562   0.581  10.125   7.321
   57SBC   C07J39563   0.520  10.103   7.199
   57SBC   C07I39564   0.433   9.997   7.176
   57SBC   N00439565   0.377   9.982   7.049
   57SBC   C07R39566   0.391  10.088   6.952
   57SBC   C07T39567   0.481  10.193   6.988
   57SBC   C0FX39568   0.516  10.287   6.893
   57SBC   C0FW39569   0.601  10.391   6.909
   57SBC   C0G039570   0.671  10.393   7.031
   57SBC   C0G239571   0.770  10.484   7.056
   57SBC   H01E39572   0.817  10.480   7.152
   57SBC   C0G339573   0.801  10.578   6.956
   57SBC   H01C39574   0.883  10.646   6.977
   57SBC   C0G439575   0.732  10.575   6.837
   57SBC   H01D39576   0.775  10.642   6.764
   57SBC   O00E39577   0.636  10.297   7.125
   57SBC   C0FV39578   0.631  10.482   6.806
   57SBC   C0FU39579   0.567  10.462   6.677
   57SBC   H01B39580   0.591  10.526   6.593
   57SBC   C0FT39581   0.469  10.368   6.662
   57SBC   C0FS39582   0.393  10.302   6.552
   57SBC   C0BI39583   0.298  10.225   6.619
   57SBC   C0BH39584   0.238  10.129   6.527
   57SBC   C07F39585   0.245   9.989   6.544
   57SBC   C07E39586   0.239   9.920   6.660
   57SBC   C07G39587   0.271   9.962   6.789
   57SBC   C07439588   0.280   9.848   6.873
   57SBC   C06539589   0.235   9.779   6.663
   57SBC   C06439590   0.260   9.717   6.533
   57SBC   C06339591   0.272   9.580   6.518
   57SBC   C07539592   0.308   9.571   6.375
   57SBC   C0AM39593   0.311   9.701   6.304
   57SBC   C0AN39594   0.349   9.729   6.164
   57SBC   C0AO39595   0.396   9.640   6.049
   57SBC   C0B139596   0.418   9.688   5.911
   57SBC   C0B039597   0.392   9.822   5.877
   57SBC   C0AZ39598   0.407   9.883   5.753
   57SBC   C0AY39599   0.395  10.021   5.742
   57SBC   N00739600   0.423  10.079   5.618
   57SBC   C0E239601   0.410  10.221   5.604
   57SBC   C0E139602   0.436  10.274   5.477
   57SBC   C0E439603   0.429  10.413   5.463
   57SBC   C0FF39604   0.449  10.480   5.339
   57SBC   C0FJ39605   0.471  10.616   5.297
   57SBC   C0FK39606   0.533  10.720   5.368
   57SBC   H01639607   0.550  10.728   5.475
   57SBC   C0FL39608   0.584  10.811   5.267
   57SBC   H01739609   0.649  10.895   5.283
   57SBC   C0FM39610   0.547  10.765   5.139
   57SBC   C0FH39611   0.583  10.757   4.996
   57SBC   C0FI39612   0.524  10.638   4.949
   57SBC   C0F339613   0.592  10.556   4.858
   57SBC   C0F239614   0.574  10.421   4.879
   57SBC   C0DW39615   0.528  10.361   4.993
   57SBC   C0FE39616   0.481  10.439   5.093
   57SBC   C0DV39617   0.549  10.227   5.015
   57SBC   C0DX39618   0.528  10.171   5.137
   57SBC   C0DK39619   0.557  10.036   5.162
   57SBC   C0DJ39620   0.618   9.962   5.061
   57SBC   C0DI39621   0.645   9.827   5.077
   57SBC   C0DH39622   0.596   9.768   5.193
   57SBC   C0DG39623   0.543   9.839   5.299
   57SBC   C0BV39624   0.517   9.778   5.418
   57SBC   C0BC39625   0.478   9.857   5.527
   57SBC   C0BA39626   0.545   9.645   5.437
   57SBC   C0B439627   0.524   9.587   5.562
   57SBC   C0B339628   0.479   9.666   5.675
   57SBC   C0B539629   0.543   9.453   5.576
   57SBC   C0BU39630   0.590   9.380   5.468
   57SBC   C0BT39631   0.619   9.434   5.345
   57SBC   C0BS39632   0.665   9.355   5.239
   57SBC   C0CC39633   0.709   9.417   5.125
   57SBC   C0CB39634   0.774   9.345   5.028
   57SBC   C0CH39635   0.867   9.425   4.957
   57SBC   C0DO39636   0.847   9.561   4.935
   57SBC   C0DP39637   0.902   9.632   4.829
   57SBC   C0EA39638   0.995   9.562   4.744
   57SBC   H01239639   1.046   9.469   4.767
   57SBC   O00939640   1.042   9.614   4.632
   57SBC   C0EH39641   1.003   9.740   4.603
   57SBC   C0EG39642   1.045   9.795   4.486
   57SBC   C0EJ39643   1.137   9.744   4.382
   57SBC   H01039644   1.183   9.648   4.366
   57SBC   C0EK39645   1.171   9.851   4.296
   57SBC   H00Z39646   1.239   9.842   4.212
   57SBC   C0EL39647   1.099   9.968   4.350
   57SBC   C0EM39648   1.118  10.111   4.329
   57SBC   C0EW39649   1.195  10.172   4.228
   57SBC   H01339650   1.230  10.113   4.144
   57SBC   C0EX39651   1.208  10.316   4.218
   57SBC   H01439652   1.251  10.357   4.128
   57SBC   C0F139653   1.128  10.399   4.302
   57SBC   C0EU39654   1.058  10.333   4.403
   57SBC   C0ET39655   0.965  10.388   4.493
   57SBC   C0ES39656   0.916  10.278   4.572
   57SBC   C0EE39657   0.972  10.161   4.523
   57SBC   C0ED39658   0.960  10.022   4.546
   57SBC   C0EC39659   0.894   9.960   4.655
   57SBC   C0EB39660   0.800  10.024   4.741
   57SBC   C0EN39661   0.758  10.160   4.714
   57SBC   C0ER39662   0.659  10.207   4.806
   57SBC   C0DS39663   0.745   9.956   4.859
   57SBC   C0DR39664   0.788   9.831   4.890
   57SBC   C0EY39665   0.795  10.277   4.635
   57SBC   C0EZ39666   0.738  10.392   4.692
   57SBC   C0F539667   0.758  10.537   4.685
   57SBC   C0F639668   0.856  10.596   4.595
   57SBC   N00839669   0.868  10.739   4.601
   57SBC   C0F739670   0.808  10.816   4.710
   57SBC   C0FQ39671   0.844  10.952   4.716
   57SBC   H01839672   0.811  11.006   4.804
   57SBC   C0FP39673   0.902  11.024   4.613
   57SBC   H01939674   0.926  11.130   4.617
   57SBC   C0FO39675   0.946  10.949   4.505
   57SBC   H01A39676   0.995  11.007   4.429
   57SBC   C0F839677   0.726  10.747   4.803
   57SBC   C0F939678   0.939  10.812   4.501
   57SBC   C0FA39679   1.019  10.744   4.405
   57SBC   H01539680   1.082  10.795   4.333
   57SBC   C0FB39681   1.022  10.603   4.403
   57SBC   C0FD39682   0.938  10.533   4.493
   57SBC   C0FC39683   1.107  10.542   4.303
   57SBC   O00A39684   1.174  10.610   4.221
   57SBC   C0EV39685   1.058  10.197   4.420
   57SBC   C0EF39686   1.025   9.930   4.463
   57SBC   C0EI39687   0.924   9.826   4.688
   57SBC   C0DQ39688   0.869   9.766   4.799
   57SBC   C0CE39689   0.751   9.627   5.010
   57SBC   H00U39690   0.939   9.368   4.900
   57SBC   C0CA39691   0.758   9.203   5.015
   57SBC   C0C939692   0.712   9.131   5.132
   57SBC   C0C839693   0.698   8.986   5.113
   57SBC   C0C739694   0.701   8.880   5.214
   57SBC   C0C639695   0.718   8.744   5.166
   57SBC   C0C539696   0.770   8.617   5.201
   57SBC   C0CQ39697   0.805   8.526   5.099
   57SBC   C0D139698   0.816   8.572   4.971
   57SBC   C0D839699   0.932   8.534   4.913
   57SBC   C0D739700   0.996   8.443   4.999
   57SBC   C0D639701   1.105   8.361   4.979
   57SBC   C0D539702   1.130   8.246   5.063
   57SBC   C0D439703   1.110   8.220   5.201
   57SBC   C0D339704   1.105   8.076   5.222
   57SBC   C0CX39705   1.006   8.054   5.332
   57SBC   C0CW39706   0.963   8.186   5.382
   57SBC   C0CV39707   0.911   8.253   5.498
   57SBC   C0D239708   0.919   8.193   5.626
   57SBC   C09D39709   0.960   8.059   5.654
   57SBC   C09C39710   0.949   8.006   5.784
   57SBC   C09B39711   0.962   7.876   5.821
   57SBC   C09A39712   0.988   7.784   5.714
   57SBC   C09939713   1.026   7.825   5.593
   57SBC   C09839714   0.982   7.728   5.501
   57SBC   C08Y39715   0.925   7.613   5.567
   57SBC   C08X39716   0.841   7.500   5.525
   57SBC   C08W39717   0.813   7.481   5.384
   57SBC   C08U39718   0.838   7.580   5.272
   57SBC   C08V39719   0.882   7.719   5.270
   57SBC   C0DC39720   0.885   7.753   5.129
   57SBC   H00W39721   0.916   7.855   5.109
   57SBC   C0DB39722   0.852   7.641   5.048
   57SBC   H00X39723   0.844   7.633   4.941
   57SBC   C08T39724   0.812   7.542   5.138
   57SBC   C08S39725   0.763   7.415   5.112
   57SBC   H00N39726   0.757   7.393   5.006
   57SBC   C08R39727   0.717   7.329   5.205
   57SBC   C08Q39728   0.658   7.208   5.180
   57SBC   H00O39729   0.650   7.170   5.079
   57SBC   C08P39730   0.602   7.112   5.270
   57SBC   C08O39731   0.542   6.979   5.239
   57SBC   H00P39732   0.527   6.943   5.138
   57SBC   C08N39733   0.487   6.906   5.347
   57SBC   C08M39734   0.422   6.785   5.314
   57SBC   O00839735   0.420   6.735   5.200
   57SBC   O00739736   0.357   6.723   5.414
   57SBC   C08H39737   0.360   6.764   5.539
   57SBC   C08G39738   0.298   6.689   5.645
   57SBC   C03V39739   0.229   6.569   5.627
   57SBC   H00939740   0.217   6.528   5.528
   57SBC   C03U39741   0.187   6.500   5.744
   57SBC   C03W39742   0.130   6.368   5.741
   57SBC   H00A39743   0.131   6.311   5.649
   57SBC   C03X39744   0.078   6.311   5.854
   57SBC   H00B39745   0.043   6.209   5.858
   57SBC   O00539746   0.075   6.376   5.978
   57SBC   C03O39747   0.144   6.496   5.982
   57SBC   C03N39748   0.154   6.559   6.107
   57SBC   O00039749   0.083   6.501   6.206
   57SBC   C01939750   0.079   6.567   6.330
   57SBC   C01839751   0.147   6.686   6.357
   57SBC   C01739752   0.224   6.738   6.251
   57SBC   C01639753   0.291   6.860   6.268
   57SBC   C01539754   0.289   6.908   6.404
   57SBC   C01439755   0.359   7.024   6.430
   57SBC   C01339756   0.429   7.100   6.331
   57SBC   C01239757   0.483   7.209   6.402
   57SBC   C01139758   0.449   7.183   6.536
   57SBC   C01039759   0.498   7.259   6.637
   57SBC   C00Z39760   0.453   7.265   6.770
   57SBC   C00Y39761   0.483   7.397   6.807
   57SBC   C01O39762   0.552   7.466   6.712
   57SBC   C01P39763   0.558   7.603   6.698
   57SBC   C02L39764   0.597   7.653   6.575
   57SBC   C02K39765   0.617   7.560   6.473
   57SBC   C01M39766   0.581   7.420   6.475
   57SBC   C02J39767   0.675   7.615   6.358
   57SBC   C02I39768   0.720   7.555   6.241
   57SBC   C02H39769   0.709   7.422   6.192
   57SBC   C01Q39770   0.623   7.325   6.248
   57SBC   C02G39771   0.621   7.214   6.150
   57SBC   C08939772   0.710   7.251   6.044
   57SBC   C08839773   0.658   7.210   5.923
   57SBC   C08739774   0.550   7.120   5.967
   57SBC   C08639775   0.471   7.039   5.877
   57SBC   C03S39776   0.390   6.927   5.916
   57SBC   N00639777   0.368   6.859   5.798
   57SBC   C08F39778   0.425   6.927   5.693
   57SBC   C01J39779   0.343   6.870   6.028
   57SBC   C03R39780   0.274   6.746   6.017
   57SBC   C03Q39781   0.262   6.684   5.889
   57SBC   C08E39782   0.498   7.032   5.735
   57SBC   C08D39783   0.572   7.115   5.647
   57SBC   C08K39784   0.560   7.071   5.508
   57SBC   C08C39785   0.652   7.225   5.672
   57SBC   C09139786   0.712   7.297   5.566
   57SBC   C09239787   0.686   7.270   5.431
   57SBC   C08B39788   0.694   7.278   5.794
   57SBC   C09039789   0.794   7.384   5.759
   57SBC   C09439790   0.861   7.466   5.853
   57SBC   C09539791   0.908   7.594   5.823
   57SBC   C09R39792   0.902   7.672   5.939
   57SBC   C09739793   0.838   7.601   6.040
   57SBC   C09639794   0.824   7.471   5.991
   57SBC   C01I39795   0.528   7.119   6.113
   57SBC   C08A39796   0.761   7.382   6.071
   57SBC   C09L39797   0.783   7.648   6.165
   57SBC   C09K39798   0.773   7.773   6.225
   57SBC   C09J39799   0.826   7.889   6.176
   57SBC   C09I39800   0.786   8.021   6.219
   57SBC   C09O39801   0.711   8.080   6.329
   57SBC   C09N39802   0.657   8.001   6.440
   57SBC   C09M39803   0.659   7.859   6.456
   57SBC   C06O39804   0.599   8.074   6.547
   57SBC   C05M39805   0.580   8.215   6.536
   57SBC   C06P39806   0.623   8.288   6.427
   57SBC   C04239807   0.509   8.286   6.629
   57SBC   C04139808   0.457   8.219   6.744
   57SBC   C04039809   0.382   8.290   6.841
   57SBC   C03Z39810   0.337   8.221   6.956
   57SBC   C03Y39811   0.350   8.085   6.968
   57SBC   C02739812   0.289   8.022   7.079
   57SBC   C02639813   0.302   7.882   7.093
   57SBC   C02839814   0.232   7.815   7.189
   57SBC   C02939815   0.149   7.884   7.277
   57SBC   C02B39816   0.080   7.819   7.374
   57SBC   C02C39817   0.005   7.889   7.466
   57SBC   C02X39818  -0.075   7.819   7.558
   57SBC   C03E39819  -0.154   7.890   7.643
   57SBC   C03G39820  -0.164   8.026   7.645
   57SBC   C04Q39821  -0.084   8.096   7.551
   57SBC   C04R39822  -0.107   8.231   7.532
   57SBC   C04S39823  -0.038   8.298   7.435
   57SBC   C04L39824   0.047   8.230   7.348
   57SBC   C04M39825   0.062   8.092   7.358
   57SBC   C04K39826   0.113   8.295   7.247
   57SBC   C04F39827   0.090   8.432   7.234
   57SBC   C04E39828   0.015   8.505   7.326
   57SBC   C04D39829  -0.001   8.647   7.313
   57SBC   C05039830  -0.076   8.713   7.403
   57SBC   C05139831  -0.092   8.855   7.388
   57SBC   C05Q39832  -0.175   8.925   7.479
   57SBC   C05V39833  -0.182   9.065   7.463
   57SBC   N00539834  -0.256   9.141   7.553
   57SBC   C07V39835  -0.315   9.067   7.658
   57SBC   C08239836  -0.395   9.137   7.741
   57SBC   C08139837  -0.403   9.276   7.748
   57SBC   C07C39838  -0.334   9.347   7.646
   57SBC   C07B39839  -0.345   9.486   7.639
   57SBC   C08039840  -0.422   9.551   7.728
   57SBC   C07Z39841  -0.417   9.691   7.719
   57SBC   H00L39842  -0.474   9.739   7.797
   57SBC   C07939843  -0.343   9.770   7.623
   57SBC   C07839844  -0.266   9.696   7.537
   57SBC   C07739845  -0.187   9.758   7.444
   57SBC   C07X39846  -0.179   9.900   7.439
   57SBC   H00I39847  -0.125   9.949   7.359
   57SBC   C07Y39848  -0.252   9.973   7.531
   57SBC   H00H39849  -0.249  10.081   7.520
   57SBC   C07639850  -0.111   9.687   7.354
   57SBC   C06C39851  -0.004   9.743   7.281
   57SBC   H00C39852   0.031   9.843   7.301
   57SBC   C06F39853  -0.117   9.549   7.355
   57SBC   C06E39854  -0.061   9.472   7.251
   57SBC   C06G39855  -0.064   9.334   7.244
   57SBC   C06H39856  -0.126   9.272   7.353
   57SBC   C06I39857  -0.199   9.344   7.445
   57SBC   C06L39858  -0.001   9.266   7.136
   57SBC   C06M39859   0.069   9.334   7.026
   57SBC   C06K39860   0.010   9.129   7.142
   57SBC   C05S39861  -0.055   9.065   7.254
   57SBC   C05U39862   0.090   9.056   7.055
   57SBC   C05X39863   0.155   9.118   6.946
   57SBC   C05G39864   0.230   9.029   6.865
   57SBC   C05F39865   0.245   8.897   6.904
   57SBC   C05E39866   0.316   8.821   6.805
   57SBC   C04839867   0.334   8.689   6.816
   57SBC   C05639868   0.399   8.630   6.708
   57SBC   C04539869   0.408   8.488   6.713
   57SBC   C04739870   0.264   8.627   6.918
   57SBC   C04939871   0.195   8.701   7.016
   57SBC   C04B39872   0.135   8.642   7.117
   57SBC   C04639873   0.277   8.487   6.921
   57SBC   C04H39874   0.229   8.427   7.034
   57SBC   C05D39875   0.351   8.902   6.703
   57SBC   C04A39876   0.185   8.839   7.010
   57SBC   C05T39877   0.102   8.916   7.083
   57SBC   C05539878   0.039   8.854   7.188
   57SBC   C06D39879   0.015   9.536   7.158
   57SBC   C07W39880  -0.196   9.482   7.452
   57SBC   C08539881  -0.341   9.907   7.613
   57SBC   H00M39882  -0.410   9.963   7.674
   57SBC   C08439883  -0.488   9.482   7.830
   57SBC   H00J39884  -0.530   9.551   7.902
   57SBC   C07A39885  -0.273   9.555   7.544
   57SBC   C08339886  -0.472   9.348   7.841
   57SBC   H00K39887  -0.507   9.293   7.927
   57SBC   O00K39888  -0.469   9.070   7.830
   57SBC   C0GO39889  -0.471   8.933   7.839
   57SBC   C0GN39890  -0.547   8.866   7.934
   57SBC   H01L39891  -0.589   8.939   8.002
   57SBC   C0GM39892  -0.550   8.725   7.953
   57SBC   C0GL39893  -0.630   8.668   8.040
   57SBC   H01M39894  -0.685   8.718   8.120
   57SBC   O00J39895  -0.634   8.533   8.052
   57SBC   C0GK39896  -0.560   8.466   7.959
   57SBC   H01N39897  -0.569   8.359   7.964
   57SBC   C05K39898  -0.467   8.518   7.870
   57SBC   C05J39899  -0.374   8.439   7.792
   57SBC   C04Y39900  -0.357   8.295   7.799
   57SBC   C04X39901  -0.273   8.225   7.714
   57SBC   O00639902  -0.429   8.222   7.890
   57SBC   C05339903  -0.450   8.086   7.880
   57SBC   C04O39904  -0.355   8.011   7.801
   57SBC   C03C39905  -0.350   7.868   7.781
   57SBC   C03B39906  -0.434   7.753   7.815
   57SBC   C05439907  -0.546   7.760   7.892
   57SBC   C0GR39908  -0.610   7.643   7.942
   57SBC   C03M39909  -0.601   7.494   7.915
   57SBC   C03I39910  -0.507   7.430   7.824
   57SBC   C03J39911  -0.517   7.288   7.810
   57SBC   N00239912  -0.428   7.214   7.725
   57SBC   C02U39913  -0.438   7.070   7.705
   57SBC   C02T39914  -0.355   7.006   7.620
   57SBC   C02Z39915  -0.367   6.871   7.599
   57SBC   N00139916  -0.282   6.800   7.511
   57SBC   C02R39917  -0.293   6.658   7.487
   57SBC   C03239918  -0.396   6.591   7.563
   57SBC   C03139919  -0.477   6.663   7.648
   57SBC   H00739920  -0.558   6.618   7.702
   57SBC   C03339921  -0.397   6.450   7.542
   57SBC   H00339922  -0.465   6.393   7.604
   57SBC   O00439923  -0.312   6.384   7.459
   57SBC   C03439924  -0.217   6.459   7.393
   57SBC   C03539925  -0.127   6.385   7.310
   57SBC   C03639926  -0.027   6.455   7.239
   57SBC   H00539927   0.048   6.399   7.185
   57SBC   C03739928  -0.011   6.595   7.252
   57SBC   H00639929   0.078   6.642   7.212
   57SBC   C00D39930  -0.106   6.666   7.330
   57SBC   C00C39931  -0.102   6.801   7.334
   57SBC   C00B39932  -0.033   6.883   7.232
   57SBC   C00A39933   0.076   6.871   7.126
   57SBC   C00939934   0.138   6.999   7.129
   57SBC   C00839935   0.208   7.070   7.026
   57SBC   C00739936   0.223   7.007   6.906
   57SBC   C00639937   0.302   7.069   6.807
   57SBC   C00539938   0.306   7.011   6.677
   57SBC   C00439939   0.227   6.903   6.642
   57SBC   C00339940   0.150   6.844   6.747
   57SBC   C00239941   0.067   6.744   6.718
   57SBC   C01C39942   0.074   6.677   6.592
   57SBC   C01B39943   0.007   6.555   6.567
   57SBC   H00039944  -0.036   6.493   6.644
   57SBC   C00139945  -0.035   6.703   6.809
   57SBC   C00039946  -0.031   6.749   6.941
   57SBC   C01U39947  -0.161   6.711   6.987
   57SBC   H00239948  -0.210   6.750   7.074
   57SBC   C01T39949  -0.229   6.626   6.883
   57SBC   O00239950  -0.341   6.571   6.881
   57SBC   O00139951  -0.143   6.623   6.784
   57SBC   C01S39952   0.154   6.890   6.880
   57SBC   C00N39953   0.241   7.200   7.051
   57SBC   C00M39954   0.194   7.268   7.164
   57SBC   C00J39955   0.109   7.212   7.255
   57SBC   C00I39956   0.033   7.274   7.348
   57SBC   C00H39957  -0.064   7.206   7.416
   57SBC   C00G39958  -0.089   7.076   7.388
   57SBC   C00F39959  -0.178   7.003   7.458
   57SBC   C01X39960  -0.142   7.274   7.506
   57SBC   C01W39961  -0.121   7.412   7.518
   57SBC   C01V39962  -0.018   7.478   7.450
   57SBC   C02039963  -0.004   7.615   7.453
   57SBC   C01Z39964  -0.206   7.478   7.606
   57SBC   C02Y39965  -0.180   7.614   7.612
   57SBC   C03939966  -0.262   7.685   7.695
   57SBC   C02W39967  -0.312   7.417   7.673
   57SBC   C01Y39968  -0.242   7.207   7.572
   57SBC   C00U39969   0.059   7.407   7.359
   57SBC   C00S39970   0.153   7.473   7.281
   57SBC   C00T39971   0.157   7.612   7.278
   57SBC   C00R39972   0.220   7.402   7.181
   57SBC   C00Q39973   0.288   7.470   7.084
   57SBC   C00V39974   0.302   7.605   7.095
   57SBC   C02439975   0.374   7.679   6.997
   57SBC   C00X39976   0.438   7.605   6.905
   57SBC   C00P39977   0.351   7.393   6.992
   57SBC   C00O39978   0.323   7.259   6.967
   57SBC   C00K39979   0.090   7.073   7.232
   57SBC   N00039980   0.066   6.837   6.988
   57SBC   C00L39981  -0.021   7.009   7.284
   57SBC   H00439982  -0.155   6.281   7.315
   57SBC   C02Q39983  -0.208   6.597   7.403
   57SBC   C00E39984  -0.186   6.867   7.432
   57SBC   C03039985  -0.466   6.801   7.661
   57SBC   O00339986  -0.559   6.873   7.742
   57SBC   C02S39987  -0.261   7.073   7.546
   57SBC   C03839988  -0.539   7.003   7.770
   57SBC   C03L39989  -0.619   7.072   7.860
   57SBC   H00839990  -0.699   7.014   7.904
   57SBC   C02V39991  -0.321   7.278   7.659
   57SBC   C03K39992  -0.612   7.209   7.882
   57SBC   C0BK39993  -0.690   7.277   7.965
   57SBC   H00T39994  -0.763   7.221   8.021
   57SBC   C03H39995  -0.399   7.492   7.757
   57SBC   C0BL39996  -0.694   7.415   7.988
   57SBC   C0GU39997  -0.790   7.468   8.079
   57SBC   H01O39998  -0.868   7.405   8.119
   57SBC   C0GT39999  -0.801   7.604   8.094
   57SBC   H01P40000  -0.892   7.636   8.141
   57SBC   C0GS40001  -0.711   7.692   8.030
   57SBC   C0GV40002  -0.696   7.833   8.037
   57SBC   C0GW40003  -0.777   7.929   8.110
   57SBC   H01Q40004  -0.861   7.889   8.164
   57SBC   C0GX40005  -0.745   8.059   8.092
   57SBC   H01R40006  -0.809   8.127   8.146
   57SBC   O00L40007  -0.639   8.107   8.021
   57SBC   C0GQ40008  -0.596   7.882   7.952
   57SBC   C03A40009  -0.373   7.635   7.760
   57SBC   C05L40010  -0.562   8.019   7.945
   57SBC   C04W40011  -0.294   8.509   7.701
   57SBC   C05I40012  -0.300   8.647   7.685
   57SBC   C05O40013  -0.386   8.719   7.765
   57SBC   C05240014  -0.223   8.715   7.593
   57SBC   C04V40015  -0.204   8.443   7.613
   57SBC   C04U40016  -0.128   8.509   7.513
   57SBC   N00940017  -0.461   8.659   7.864
   57SBC   C0GP40018  -0.386   8.860   7.757
   57SBC   C05W40019  -0.311   8.927   7.664
   57SBC   C07D40020  -0.263   9.280   7.546
   57SBC   C06J40021  -0.124   9.134   7.355
   57SBC   C05P40022  -0.233   8.852   7.582
   57SBC   C05R40023  -0.039   8.924   7.277
   57SBC   C04Z40024  -0.140   8.647   7.504
   57SBC   C04C40025   0.058   8.714   7.208
   57SBC   C04G40026   0.151   8.497   7.127
   57SBC   C04J40027   0.199   8.227   7.159
   57SBC   C04T40028  -0.046   8.438   7.428
   57SBC   N00340029  -0.191   8.301   7.620
   57SBC   C04P40030  -0.266   8.087   7.714
   57SBC   C03D40031  -0.251   7.820   7.703
   57SBC   C02140032  -0.089   7.681   7.541
   57SBC   C03F40033  -0.003   8.031   7.464
   57SBC   C02240034   0.077   7.682   7.368
   57SBC   C02A40035   0.144   8.022   7.268
   57SBC   C02340036   0.229   7.682   7.187
   57SBC   C02540037   0.375   7.817   6.991
   57SBC   C02D40038   0.437   7.882   6.887
   57SBC   C02E40039   0.497   7.810   6.786
   57SBC   C02N40040   0.561   7.871   6.674
   57SBC   C04N40041   0.214   8.090   7.173
   57SBC   C02P40042   0.429   8.019   6.871
   57SBC   C04I40043   0.257   8.292   7.051
   57SBC   C04440044   0.354   8.420   6.825
   57SBC   C04340045   0.484   8.082   6.762
   57SBC   C05N40046   0.553   8.011   6.666
   57SBC   C09U40047   0.688   8.219   6.322
   57SBC   C09V40048   0.728   8.293   6.207
   57SBC   C09X40049   0.798   8.238   6.101
   57SBC   C09Y40050   0.813   8.293   5.973
   57SBC   C0A140051   0.780   8.426   5.960
   57SBC   C0A240052   0.712   8.490   6.068
   57SBC   C0A440053   0.671   8.619   6.048
   57SBC   C07140054   0.614   8.690   6.155
   57SBC   C0A540055   0.590   8.827   6.141
   57SBC   C0A940056   0.608   8.890   6.016
   57SBC   C0A840057   0.667   8.816   5.916
   57SBC   C0AP40058   0.675   8.877   5.792
   57SBC   C0BY40059   0.713   8.800   5.687
   57SBC   C0BX40060   0.742   8.667   5.693
   57SBC   C0C240061   0.774   8.597   5.577
   57SBC   C0C340062   0.820   8.460   5.593
   57SBC   C0CT40063   0.824   8.404   5.721
   57SBC   C0C140064   0.773   8.652   5.447
   57SBC   C0C040065   0.754   8.795   5.440
   57SBC   C0A740066   0.742   8.610   5.817
   57SBC   C0BZ40067   0.723   8.860   5.560
   57SBC   C0BO40068   0.691   8.991   5.541
   57SBC   C0BN40069   0.650   9.068   5.648
   57SBC   C0BM40070   0.613   9.194   5.617
   57SBC   C0B940071   0.567   9.269   5.721
   57SBC   C0B840072   0.547   9.215   5.845
   57SBC   C0AD40073   0.588   9.084   5.870
   57SBC   C0AF40074   0.503   9.290   5.953
   57SBC   C0AG40075   0.472   9.424   5.943
   57SBC   C0B740076   0.485   9.481   5.817
   57SBC   C0AE40077   0.494   9.223   6.071
   57SBC   C0AB40078   0.527   9.092   6.101
   57SBC   C0AA40079   0.504   9.030   6.225
   57SBC   C0AJ40080   0.443   9.296   6.179
   57SBC   C0AK40081   0.425   9.233   6.301
   57SBC   C06W40082   0.368   9.325   6.374
   57SBC   C0AI40083   0.409   9.433   6.176
   57SBC   C0BP40084   0.693   9.025   5.408
   57SBC   C0BQ40085   0.666   9.162   5.379
   57SBC   C0BW40086   0.637   9.003   5.770
   57SBC   C0AC40087   0.579   9.023   5.997
   57SBC   C0A640088   0.693   8.681   5.928
   57SBC   C0A340089   0.783   8.480   5.834
   57SBC   C09Z40090   0.861   8.219   5.867
   57SBC   C09W40091   0.688   8.426   6.190
   57SBC   C07240092   0.624   8.495   6.289
   57SBC   C09H40093   0.838   8.107   6.121
   57SBC   C09G40094   0.888   8.039   6.015
   57SBC   C09P40095   0.882   7.904   6.049
   57SBC   C02O40096   0.709   7.760   6.352
   57SBC   C02M40097   0.606   7.796   6.565
   57SBC   C02F40098   0.501   7.674   6.797
   57SBC   C00W40099   0.430   7.465   6.913
   57SBC   C01R40100   0.362   7.193   6.851
   57SBC   C01N40101   0.564   7.381   6.606
   57SBC   C01L40102   0.557   7.328   6.365
   57SBC   C01H40103   0.433   7.051   6.196
   57SBC   C01K40104   0.369   7.075   6.559
   57SBC   C01E40105   0.226   6.849   6.511
   57SBC   C01G40106   0.357   6.930   6.162
   57SBC   C01D40107   0.147   6.736   6.489
   57SBC   C01A40108   0.008   6.508   6.434
   57SBC   H00140109  -0.040   6.417   6.402
   57SBC   C01F40110   0.218   6.682   6.125
   57SBC   C03P40111   0.196   6.564   5.869
   57SBC   C03T40112   0.310   6.740   5.775
   57SBC   C08I40113   0.425   6.882   5.569
   57SBC   C08J40114   0.488   6.956   5.475
   57SBC   C08L40115   0.612   7.150   5.404
   57SBC   C09340116   0.747   7.359   5.338
   57SBC   C08Z40117   0.792   7.405   5.616
   57SBC   C09T40118   0.941   7.790   5.385
   57SBC   C09S40119   0.946   7.653   5.707
   57SBC   C09Q40120   0.917   7.814   5.941
   57SBC   C09F40121   0.897   8.090   5.884
   57SBC   C09E40122   0.993   7.953   5.556
   57SBC   C0A040123   0.870   8.270   5.738
   57SBC   C0CU40124   0.857   8.386   5.482
   57SBC   C0CR40125   0.856   8.444   5.357
   57SBC   C0CZ40126   0.924   8.383   5.251
   57SBC   C0DA40127   0.976   7.940   5.414
   57SBC   C0D940128   1.104   8.020   5.085
   57SBC   H00V40129   1.094   7.916   5.057
   57SBC   C0CY40130   1.007   8.273   5.277
   57SBC   C0DF40131   1.139   8.128   4.990
   57SBC   C0DE40132   1.165   8.172   4.852
   57SBC   C0GI40133   1.215   8.105   4.738
   57SBC   H01K40134   1.233   7.999   4.731
   57SBC   C0GJ40135   1.219   8.182   4.627
   57SBC   H01J40136   1.260   8.133   4.540
   57SBC   O00I40137   1.194   8.318   4.616
   57SBC   C0GH40138   1.129   8.384   4.722
   57SBC   C0GG40139   1.083   8.517   4.703
   57SBC   O00G40140   1.101   8.575   4.580
   57SBC   C0G840141   1.068   8.701   4.555
   57SBC   C0G940142   1.104   8.750   4.431
   57SBC   H01G40143   1.155   8.680   4.366
   57SBC   C0GA40144   1.072   8.876   4.400
   57SBC   H01H40145   1.107   8.912   4.305
   57SBC   C0GB40146   1.009   8.968   4.486
   57SBC   C0EP40147   0.976   8.923   4.614
   57SBC   C0E840148   0.914   9.019   4.712
   57SBC   C0CK40149   0.862   9.022   4.846
   57SBC   C0CL40150   0.802   8.902   4.890
   57SBC   C0E940151   0.850   8.774   4.851
   57SBC   C0GE40152   0.956   8.717   4.764
   57SBC   C0E740153   0.874   9.143   4.666
   57SBC   C0CJ40154   0.800   9.224   4.756
   57SBC   C0E640155   0.743   9.341   4.716
   57SBC   H00Y40156   0.685   9.397   4.788
   57SBC   C0EO40157   0.774   9.380   4.584
   57SBC   H01140158   0.748   9.482   4.557
   57SBC   C0G640159   0.859   9.305   4.496
   57SBC   C0G540160   0.905   9.351   4.365
   57SBC   H01F40161   0.892   9.455   4.340
   57SBC   C0GD40162   0.965   9.268   4.281
   57SBC   H01I40163   0.984   9.309   4.183
   57SBC   O00H40164   0.998   9.136   4.317
   57SBC   C0EQ40165   0.897   9.177   4.530
   57SBC   C0GC40166   0.967   9.095   4.443
   57SBC   C0G740167   1.000   8.786   4.649
   57SBC   C0DD40168   1.130   8.309   4.844
   57SBC   C0GF40169   0.991   8.579   4.793
   57SBC   C0CO40170   0.776   8.695   4.934
   57SBC   C0D040171   0.919   8.450   5.120
   57SBC   C0C440172   0.796   8.574   5.333
   57SBC   C0CN40173   0.692   8.770   5.023
   57SBC   C0CP40174   0.729   8.901   5.343
   57SBC   C0CM40175   0.696   8.907   4.989
   57SBC   C0CI40176   0.805   9.154   4.886
   57SBC   C0CD40177   0.695   9.556   5.114
   57SBC   C0BR40178   0.677   9.209   5.251
   57SBC   C0CS40179   0.618   9.242   5.484
   57SBC   C0B640180   0.531   9.402   5.705
   57SBC   C0CG40181   0.595   9.569   5.332
   57SBC   C0CF40182   0.629   9.636   5.214
   57SBC   C0E540183   0.726   9.759   4.989
   57SBC   C0DT40184   0.655  10.019   4.944
   57SBC   C0DL40185   0.527   9.977   5.287
   57SBC   C0DM40186   0.483  10.057   5.390
   57SBC   C0DY40187   0.487  10.251   5.245
   57SBC   C0DU40188   0.616  10.146   4.923
   57SBC   C0F040189   0.654  10.343   4.790
   57SBC   C0F440190   0.688  10.616   4.782
   57SBC   C0FG40191   0.464  10.573   5.061
   57SBC   O00B40192   0.681  10.814   4.920
   57SBC   C0FN40193   0.466  10.660   5.166
   57SBC   C0DZ40194   0.463  10.394   5.228
   57SBC   O00C40195   0.406  10.491   5.573
   57SBC   C0FR40196   0.368  10.440   5.694
   57SBC   O00D40197   0.340  10.525   5.777
   57SBC   C0E040198   0.470  10.196   5.371
   57SBC   C0E340199   0.368  10.302   5.712
   57SBC   C0AW40200   0.341  10.244   5.835
   57SBC   C0AV40201   0.291  10.310   5.955
   57SBC   H00Q40202   0.253  10.412   5.955
   57SBC   C0AU40203   0.278  10.242   6.084
   57SBC   H00R40204   0.229  10.288   6.169
   57SBC   C0AT40205   0.306  10.100   6.083
   57SBC   C0AS40206   0.315  10.000   6.185
   57SBC   C0AR40207   0.309  10.035   6.323
   57SBC   C0BE40208   0.351  10.041   5.966
   57SBC   C0DN40209   0.468   9.993   5.509
   57SBC   C0AX40210   0.362  10.107   5.843
   57SBC   C0BB40211   0.454   9.802   5.656
   57SBC   C0BD40212   0.372   9.904   5.988
   57SBC   C0B240213   0.462   9.613   5.802
   57SBC   C0AH40214   0.435   9.503   6.054
   57SBC   C0BF40215   0.342   9.869   6.125
   57SBC   C0AL40216   0.363   9.452   6.310
   57SBC   C07U40217   0.279   9.789   6.413
   57SBC   C0AQ40218   0.278   9.928   6.422
   57SBC   C0BG40219   0.294  10.165   6.396
   57SBC   C0FY40220   0.351  10.196   6.746
   57SBC   C0BJ40221   0.383  10.277   6.409
   57SBC   H00S40222   0.456  10.301   6.333
   57SBC   C0FZ40223   0.439  10.294   6.777
   57SBC   C07S40224   0.332  10.087   6.825
   57SBC   C0G140225   0.550  10.198   7.102
   57SBC   C07K40226   0.407   9.904   7.279
   57SBC   C07H40227   0.294   9.869   7.016
   57SBC   C06B40228   0.059   9.664   7.184
   57SBC   C06N40229   0.066   9.480   7.040
   57SBC   C06640230   0.232   9.730   6.800
   57SBC   C06240231   0.212   9.477   6.612
   57SBC   C05Y40232   0.135   9.262   6.927
   57SBC   C06140233   0.216   9.343   6.573
   57SBC   C05H40234   0.300   9.033   6.743
   57SBC   C06V40235   0.311   9.273   6.486
   57SBC   C06Y40236   0.450   9.097   6.329
   57SBC   C05C40237   0.412   8.838   6.589
   57SBC   C06Z40238   0.534   8.895   6.246
   57SBC   C07040239   0.591   8.629   6.273
   57SBC   C05B40240   0.440   8.701   6.598
   57SBC   C05740241   0.480   8.422   6.617
   57SBC   C05940242   0.598   8.428   6.408
   58SBC   C05840243  12.379   9.602   5.411
   58SBC   C05A40244  12.372   9.722   5.344
   58SBC   C06Q40245  12.421   9.734   5.215
   58SBC   C06R40246  12.422   9.857   5.149
   58SBC   C06S40247  12.368   9.974   5.207
   58SBC   C06T40248  12.373  10.098   5.137
   58SBC   C06U40249  12.316  10.233   5.170
   58SBC   C06X40250  12.245  10.284   5.274
   58SBC   C06040251  12.203  10.422   5.245
   58SBC   C05Z40252  12.200  10.536   5.337
   58SBC   C06840253  12.250  10.650   5.246
   58SBC   C06740254  12.271  10.793   5.273
   58SBC   C06940255  12.232  10.846   5.405
   58SBC   C06A40256  12.258  10.982   5.449
   58SBC   C07340257  12.347  11.086   5.421
   58SBC   C07P40258  12.408  11.156   5.526
   58SBC   C07O40259  12.415  11.114   5.661
   58SBC   H00D40260  12.357  11.027   5.688
   58SBC   C07N40261  12.483  11.177   5.761
   58SBC   H00E40262  12.497  11.131   5.858
   58SBC   C07M40263  12.558  11.291   5.729
   58SBC   H00F40264  12.605  11.348   5.808
   58SBC   C07L40265  12.547  11.348   5.600
   58SBC   C07Q40266  12.599  11.473   5.557
   58SBC   H00G40267  12.653  11.529   5.633
   58SBC   O00F40268  12.612  11.510   5.429
   58SBC   C07J40269  12.551  11.438   5.333
   58SBC   C07I40270  12.482  11.320   5.364
   58SBC   N00440271  12.424  11.243   5.260
   58SBC   C07R40272  12.419  11.303   5.130
   58SBC   C07T40273  12.500  11.420   5.100
   58SBC   C0FX40274  12.520  11.465   4.973
   58SBC   C0FW40275  12.620  11.554   4.936
   58SBC   C0G040276  12.691  11.614   5.044
   58SBC   C0G240277  12.797  11.703   5.017
   58SBC   H01E40278  12.862  11.733   5.098
   58SBC   C0G340279  12.828  11.736   4.880
   58SBC   H01C40280  12.893  11.819   4.858
   58SBC   C0G440281  12.752  11.679   4.778
   58SBC   H01D40282  12.765  11.714   4.677
   58SBC   O00E40283  12.652  11.594   5.168
   58SBC   C0FV40284  12.647  11.578   4.795
   58SBC   C0FU40285  12.568  11.504   4.705
   58SBC   H01B40286  12.584  11.529   4.601
   58SBC   C0FT40287  12.475  11.414   4.745
   58SBC   C0FS40288  12.393  11.316   4.677
   58SBC   C0BI40289  12.304  11.255   4.770
   58SBC   C0BH40290  12.276  11.119   4.737
   58SBC   C07F40291  12.307  11.010   4.823
   58SBC   C07E40292  12.311  10.999   4.963
   58SBC   C07G40293  12.321  11.097   5.056
   58SBC   C07440294  12.329  11.035   5.176
   58SBC   C06540295  12.325  10.875   5.027
   58SBC   C06440296  12.347  10.764   4.945
   58SBC   C06340297  12.348  10.637   4.988
   58SBC   C07540298  12.389  10.567   4.863
   58SBC   C0AM40299  12.421  10.651   4.748
   58SBC   C0AN40300  12.475  10.616   4.612
   58SBC   C0AO40301  12.508  10.484   4.545
   58SBC   C0B140302  12.550  10.470   4.410
   58SBC   C0B040303  12.568  10.585   4.334
   58SBC   C0AZ40304  12.617  10.585   4.202
   58SBC   C0AY40305  12.633  10.705   4.132
   58SBC   N00740306  12.691  10.710   4.007
   58SBC   C0E240307  12.724  10.836   3.949
   58SBC   C0E140308  12.793  10.832   3.828
   58SBC   C0E440309  12.835  10.950   3.772
   58SBC   C0FF40310  12.904  10.963   3.652
   58SBC   C0FJ40311  12.979  11.064   3.585
   58SBC   C0FK40312  13.068  11.156   3.656
   58SBC   H01640313  13.079  11.173   3.763
   58SBC   C0FL40314  13.169  11.192   3.558
   58SBC   H01740315  13.262  11.241   3.585
   58SBC   C0FM40316  13.147  11.116   3.440
   58SBC   C0FH40317  13.217  11.056   3.324
   58SBC   C0FI40318  13.129  10.947   3.307
   58SBC   C0F340319  13.174  10.824   3.250
   58SBC   C0F240320  13.093  10.714   3.275
   58SBC   C0DW40321  13.003  10.717   3.379
   58SBC   C0FE40322  12.975  10.833   3.449
   58SBC   C0DV40323  12.962  10.600   3.442
   58SBC   C0DX40324  12.902  10.599   3.567
   58SBC   C0DK40325  12.882  10.478   3.634
   58SBC   C0DJ40326  12.924  10.357   3.578
   58SBC   C0DI40327  12.890  10.234   3.633
   58SBC   C0DH40328  12.811  10.233   3.750
   58SBC   C0DG40329  12.774  10.351   3.813
   58SBC   C0BV40330  12.718  10.350   3.941
   58SBC   C0BC40331  12.698  10.471   4.005
   58SBC   C0BA40332  12.694  10.230   4.001
   58SBC   C0B440333  12.643  10.229   4.138
   58SBC   C0B340334  12.624  10.350   4.207
   58SBC   C0B540335  12.623  10.108   4.202
   58SBC   C0BU40336  12.651   9.986   4.130
   58SBC   C0BT40337  12.690   9.982   3.994
   58SBC   C0BS40338  12.719   9.861   3.933
   58SBC   C0CC40339  12.779   9.869   3.803
   58SBC   C0CB40340  12.810   9.749   3.737
   58SBC   C0CH40341  12.907   9.759   3.637
   58SBC   C0DO40342  12.956   9.883   3.592
   58SBC   C0DP40343  13.060   9.886   3.500
   58SBC   C0EA40344  13.132   9.765   3.468
   58SBC   H01240345  13.127   9.677   3.531
   58SBC   O00940346  13.219   9.755   3.363
   58SBC   C0EH40347  13.254   9.871   3.302
   58SBC   C0EG40348  13.358   9.871   3.210
   58SBC   C0EJ40349  13.440   9.771   3.150
   58SBC   H01040350  13.443   9.665   3.172
   58SBC   C0EK40351  13.536   9.835   3.057
   58SBC   H00Z40352  13.602   9.793   2.983
   58SBC   C0EL40353  13.512   9.971   3.072
   58SBC   C0EM40354  13.582  10.087   3.015
   58SBC   C0EW40355  13.687  10.085   2.929
   58SBC   H01340356  13.726   9.997   2.881
   58SBC   C0EX40357  13.750  10.212   2.884
   58SBC   H01440358  13.835  10.199   2.818
   58SBC   C0F140359  13.706  10.340   2.931
   58SBC   C0EU40360  13.592  10.335   3.016
   58SBC   C0ET40361  13.521  10.443   3.068
   58SBC   C0ES40362  13.416  10.380   3.148
   58SBC   C0EE40363  13.426  10.237   3.139
   58SBC   C0ED40364  13.357  10.123   3.186
   58SBC   C0EC40365  13.240  10.124   3.272
   58SBC   C0EB40366  13.163  10.242   3.311
   58SBC   C0EN40367  13.195  10.375   3.256
   58SBC   C0ER40368  13.109  10.474   3.291
   58SBC   C0DS40369  13.058  10.235   3.407
   58SBC   C0DR40370  13.025  10.118   3.465
   58SBC   C0EY40371  13.297  10.438   3.178
   58SBC   C0EZ40372  13.273  10.580   3.174
   58SBC   C0F540373  13.360  10.701   3.155
   58SBC   C0F640374  13.492  10.687   3.093
   58SBC   N00840375  13.564  10.812   3.092
   58SBC   C0F740376  13.515  10.926   3.159
   58SBC   C0FQ40377  13.599  11.043   3.158
   58SBC   H01840378  13.556  11.134   3.199
   58SBC   C0FP40379  13.723  11.050   3.093
   58SBC   H01940380  13.770  11.147   3.097
   58SBC   C0FO40381  13.761  10.940   3.023
   58SBC   H01A40382  13.844  10.957   2.956
   58SBC   C0F840383  13.385  10.925   3.214
   58SBC   C0F940384  13.690  10.816   3.028
   58SBC   C0FA40385  13.743  10.713   2.952
   58SBC   H01540386  13.831  10.727   2.891
   58SBC   C0FB40387  13.679  10.584   2.959
   58SBC   C0FD40388  13.556  10.574   3.029
   58SBC   C0FC40389  13.748  10.470   2.896
   58SBC   O00A40390  13.845  10.493   2.817
   58SBC   C0EV40391  13.537  10.215   3.059
   58SBC   C0EF40392  13.405   9.992   3.160
   58SBC   C0EI40393  13.192  10.003   3.332
   58SBC   C0DQ40394  13.090   9.997   3.428
   58SBC   C0CE40395  12.904  10.000   3.638
   58SBC   H00U40396  12.942   9.669   3.588
   58SBC   C0CA40397  12.750   9.626   3.775
   58SBC   C0C940398  12.686   9.611   3.906
   58SBC   C0C840399  12.624   9.484   3.949
   58SBC   C0C740400  12.601   9.424   4.077
   58SBC   C0C640401  12.532   9.299   4.080
   58SBC   C0C540402  12.532   9.178   4.159
   58SBC   C0CQ40403  12.527   9.057   4.092
   58SBC   C0D140404  12.536   9.047   3.956
   58SBC   C0D840405  12.593   8.927   3.919
   58SBC   C0D740406  12.567   8.841   4.031
   58SBC   C0D640407  12.605   8.707   4.042
   58SBC   C0D540408  12.591   8.638   4.165
   58SBC   C0D440409  12.522   8.661   4.291
   58SBC   C0D340410  12.570   8.568   4.384
   58SBC   C0CX40411  12.581   8.628   4.516
   58SBC   C0CW40412  12.568   8.769   4.494
   58SBC   C0CV40413  12.572   8.891   4.575
   58SBC   C0D240414  12.575   8.892   4.713
   58SBC   C09D40415  12.604   8.777   4.799
   58SBC   C09C40416  12.616   8.790   4.937
   58SBC   C09B40417  12.625   8.687   5.034
   58SBC   C09A40418  12.643   8.552   4.982
   58SBC   C09940419  12.657   8.534   4.847
   58SBC   C09840420  12.608   8.406   4.827
   58SBC   C08Y40421  12.568   8.342   4.952
   58SBC   C08X40422  12.494   8.221   4.980
   58SBC   C08W40423  12.446   8.143   4.871
   58SBC   C08U40424  12.451   8.179   4.725
   58SBC   C08V40425  12.484   8.295   4.650
   58SBC   C0DC40426  12.471   8.260   4.508
   58SBC   H00W40427  12.499   8.328   4.429
   58SBC   C0DB40428  12.432   8.126   4.496
   58SBC   H00X40429  12.421   8.082   4.398
   58SBC   C08T40430  12.409   8.077   4.629
   58SBC   C08S40431  12.362   7.945   4.670
   58SBC   H00N40432  12.326   7.873   4.598
   58SBC   C08R40433  12.340   7.922   4.807
   58SBC   C08Q40434  12.274   7.803   4.849
   58SBC   H00O40435  12.254   7.723   4.779
   58SBC   C08P40436  12.236   7.776   4.981
   58SBC   C08O40437  12.163   7.654   5.016
   58SBC   H00P40438  12.142   7.574   4.947
   58SBC   C08N40439  12.115   7.643   5.155
   58SBC   C08M40440  12.031   7.534   5.193
   58SBC   O00840441  12.003   7.437   5.126
   58SBC   O00740442  11.989   7.532   5.316
   58SBC   C08H40443  12.002   7.629   5.404
   58SBC   C08G40444  11.938   7.626   5.533
   58SBC   C03V40445  11.850   7.527   5.583
   58SBC   H00940446  11.815   7.443   5.524
   58SBC   C03U40447  11.805   7.532   5.717
   58SBC   C03W40448  11.719   7.429   5.777
   58SBC   H00A40449  11.688   7.345   5.717
   58SBC   C03X40450  11.682   7.444   5.907
   58SBC   H00B40451  11.612   7.379   5.958
   58SBC   O00540452  11.718   7.553   5.985
   58SBC   C03O40453  11.797   7.647   5.923
   58SBC   C03N40454  11.823   7.763   5.996
   58SBC   O00040455  11.773   7.767   6.122
   58SBC   C01940456  11.775   7.885   6.188
   58SBC   C01840457  11.870   7.983   6.155
   58SBC   C01740458  11.935   7.973   6.036
   58SBC   C01640459  12.034   8.063   5.999
   58SBC   C01540460  12.063   8.157   6.100
   58SBC   C01440461  12.151   8.257   6.064
   58SBC   C01340462  12.210   8.274   5.933
   58SBC   C01240463  12.280   8.404   5.943
   58SBC   C01140464  12.263   8.448   6.076
   58SBC   C01040465  12.315   8.564   6.119
   58SBC   C00Z40466  12.279   8.640   6.230
   58SBC   C00Y40467  12.329   8.768   6.196
   58SBC   C01O40468  12.376   8.776   6.068
   58SBC   C01P40469  12.366   8.889   5.987
   58SBC   C02L40470  12.395   8.874   5.849
   58SBC   C02K40471  12.414   8.743   5.805
   58SBC   C01M40472  12.381   8.623   5.882
   58SBC   C02J40473  12.458   8.739   5.670
   58SBC   C02I40474  12.490   8.623   5.595
   58SBC   C02H40475  12.455   8.492   5.625
   58SBC   C01Q40476  12.388   8.426   5.727
   58SBC   C02G40477  12.364   8.293   5.688
   58SBC   C08940478  12.430   8.273   5.565
   58SBC   C08840479  12.371   8.175   5.487
   58SBC   C08740480  12.275   8.117   5.590
   58SBC   C08640481  12.190   8.012   5.562
   58SBC   C03S40482  12.100   7.941   5.649
   58SBC   N00640483  12.059   7.826   5.582
   58SBC   C08F40484  12.108   7.832   5.456
   58SBC   C01J40485  12.054   7.959   5.778
   58SBC   C03R40486  11.962   7.863   5.826
   58SBC   C03Q40487  11.922   7.748   5.750
   58SBC   C08E40488  12.197   7.935   5.440
   58SBC   C08D40489  12.259   7.948   5.310
   58SBC   C08K40490  12.224   7.858   5.208
   58SBC   C08C40491  12.352   8.044   5.270
   58SBC   C09140492  12.388   8.063   5.135
   58SBC   C09240493  12.342   7.983   5.031
   58SBC   C08B40494  12.418   8.138   5.349
   58SBC   C09040495  12.492   8.217   5.253
   58SBC   C09440496  12.542   8.350   5.280
   58SBC   C09540497  12.588   8.445   5.187
   58SBC   C09R40498  12.602   8.570   5.247
   58SBC   C09740499  12.564   8.561   5.379
   58SBC   C09640500  12.538   8.427   5.402
   58SBC   C01I40501  12.264   8.191   5.715
   58SBC   C08A40502  12.477   8.396   5.520
   58SBC   C09L40503  12.552   8.662   5.477
   58SBC   C09K40504  12.543   8.804   5.474
   58SBC   C09J40505  12.551   8.877   5.351
   58SBC   C09I40506  12.521   9.016   5.339
   58SBC   C09O40507  12.471   9.127   5.418
   58SBC   C09N40508  12.434   9.116   5.553
   58SBC   C09M40509  12.436   8.997   5.634
   58SBC   C06O40510  12.389   9.233   5.618
   58SBC   C05M40511  12.387   9.355   5.548
   58SBC   C06P40512  12.426   9.364   5.416
   58SBC   C04240513  12.342   9.472   5.615
   58SBC   C04140514  12.301   9.467   5.750
   58SBC   C04040515  12.246   9.578   5.811
   58SBC   C03Z40516  12.203   9.580   5.940
   58SBC   C03Y40517  12.209   9.464   6.014
   58SBC   C02740518  12.169   9.462   6.143
   58SBC   C02640519  12.180   9.348   6.217
   58SBC   C02840520  12.124   9.339   6.342
   58SBC   C02940521  12.071   9.454   6.398
   58SBC   C02B40522  12.009   9.447   6.522
   58SBC   C02C40523  11.957   9.565   6.576
   58SBC   C02X40524  11.904   9.559   6.701
   58SBC   C03E40525  11.858   9.671   6.757
   58SBC   C03G40526  11.835   9.790   6.692
   58SBC   C04Q40527  11.883   9.792   6.567
   58SBC   C04R40528  11.870   9.907   6.489
   58SBC   C04S40529  11.922   9.917   6.363
   58SBC   C04L40530  11.988   9.804   6.308
   58SBC   C04M40531  12.000   9.688   6.382
   58SBC   C04K40532  12.030   9.803   6.179
   58SBC   C04F40533  12.014   9.918   6.104
   58SBC   C04E40534  11.962  10.036   6.158
   58SBC   C04D40535  11.955  10.155   6.086
   58SBC   C05040536  11.889  10.264   6.135
   58SBC   C05140537  11.881  10.381   6.060
   58SBC   C05Q40538  11.826  10.493   6.111
   58SBC   C05V40539  11.833  10.609   6.040
   58SBC   N00540540  11.784  10.728   6.098
   58SBC   C07V40541  11.714  10.718   6.224
   58SBC   C08240542  11.661  10.835   6.279
   58SBC   C08140543  11.674  10.959   6.224
   58SBC   C07C40544  11.745  10.968   6.101
   58SBC   C07B40545  11.776  11.094   6.044
   58SBC   C08040546  11.722  11.211   6.098
   58SBC   C07Z40547  11.764  11.328   6.050
   58SBC   H00L40548  11.733  11.411   6.111
   58SBC   C07940549  11.859  11.344   5.950
   58SBC   C07840550  11.903  11.229   5.889
   58SBC   C07740551  11.992  11.234   5.783
   58SBC   C07X40552  12.049  11.357   5.746
   58SBC   H00I40553  12.119  11.368   5.664
   58SBC   C07Y40554  12.002  11.476   5.811
   58SBC   H00H40555  12.042  11.569   5.774
   58SBC   C07640556  12.025  11.116   5.715
   58SBC   C06C40557  12.121  11.121   5.609
   58SBC   H00C40558  12.165  11.212   5.570
   58SBC   C06F40559  11.979  10.994   5.753
   58SBC   C06E40560  12.021  10.878   5.694
   58SBC   C06G40561  12.001  10.750   5.741
   58SBC   C06H40562  11.925  10.741   5.859
   58SBC   C06I40563  11.876  10.859   5.918
   58SBC   C06L40564  12.049  10.636   5.666
   58SBC   C06M40565  12.120  10.647   5.544
   58SBC   C06K40566  12.026  10.510   5.735
   58SBC   C05S40567  11.953  10.506   5.859
   58SBC   C05U40568  12.071  10.397   5.673
   58SBC   C05X40569  12.130  10.399   5.542
   58SBC   C05G40570  12.167  10.266   5.500
   58SBC   C05F40571  12.165  10.155   5.582
   58SBC   C05E40572  12.213  10.044   5.525
   58SBC   C04840573  12.211   9.925   5.596
   58SBC   C05640574  12.275   9.818   5.534
   58SBC   C04540575  12.289   9.702   5.609
   58SBC   C04740576  12.160   9.922   5.721
   58SBC   C04940577  12.106  10.036   5.777
   58SBC   C04B40578  12.060  10.039   5.905
   58SBC   C04640579  12.171   9.804   5.786
   58SBC   C04H40580  12.117   9.805   5.918
   58SBC   C05D40581  12.255  10.071   5.402
   58SBC   C04A40582  12.112  10.158   5.709
   58SBC   C05T40583  12.060  10.275   5.750
   58SBC   C05540584  11.999  10.270   5.875
   58SBC   C06D40585  12.108  10.888   5.587
   58SBC   C07W40586  11.898  10.986   5.867
   58SBC   C08540587  11.913  11.466   5.911
   58SBC   H00M40588  11.883  11.563   5.948
   58SBC   C08440589  11.639  11.197   6.209
   58SBC   H00J40590  11.586  11.279   6.254
   58SBC   C07A40591  11.862  11.103   5.934
   58SBC   C08340592  11.618  11.073   6.275
   58SBC   H00K40593  11.553  11.070   6.361
   58SBC   O00K40594  11.581  10.824   6.388
   58SBC   C0GO40595  11.590  10.709   6.462
   58SBC   C0GN40596  11.534  10.711   6.586
   58SBC   H01L40597  11.485  10.800   6.623
   58SBC   C0GM40598  11.544  10.590   6.672
   58SBC   C0GL40599  11.487  10.586   6.795
   58SBC   H01M40600  11.429  10.667   6.838
   58SBC   O00J40601  11.489  10.479   6.877
   58SBC   C0GK40602  11.547  10.367   6.818
   58SBC   H01N40603  11.526  10.276   6.872
   58SBC   C05K40604  11.620  10.374   6.701
   58SBC   C05J40605  11.685  10.250   6.657
   58SBC   C04Y40606  11.717  10.137   6.737
   58SBC   C04X40607  11.770  10.023   6.682
   58SBC   O00640608  11.678  10.126   6.872
   58SBC   C05340609  11.660  10.006   6.937
   58SBC   C04O40610  11.724   9.891   6.885
   58SBC   C03C40611  11.728   9.759   6.946
   58SBC   C03B40612  11.655   9.696   7.053
   58SBC   C05440613  11.549   9.752   7.120
   58SBC   C0GR40614  11.460   9.676   7.199
   58SBC   C03M40615  11.431   9.534   7.233
   58SBC   C03I40616  11.513   9.417   7.183
   58SBC   C03J40617  11.469   9.290   7.224
   58SBC   N00240618  11.525   9.169   7.170
   58SBC   C02U40619  11.484   9.037   7.206
   58SBC   C02T40620  11.541   8.922   7.147
   58SBC   C02Z40621  11.497   8.796   7.179
   58SBC   N00140622  11.548   8.678   7.118
   58SBC   C02R40623  11.498   8.551   7.159
   58SBC   C03240624  11.399   8.540   7.260
   58SBC   C03140625  11.348   8.663   7.317
   58SBC   H00740626  11.268   8.655   7.389
   58SBC   C03340627  11.373   8.404   7.307
   58SBC   H00340628  11.323   8.389   7.402
   58SBC   O00440629  11.423   8.288   7.247
   58SBC   C03440630  11.501   8.309   7.141
   58SBC   C03540631  11.552   8.192   7.085
   58SBC   C03640632  11.661   8.199   6.998
   58SBC   H00540633  11.698   8.104   6.962
   58SBC   C03740634  11.717   8.321   6.963
   58SBC   H00640635  11.807   8.328   6.903
   58SBC   C00D40636  11.653   8.442   7.002
   58SBC   C00C40637  11.694   8.564   6.954
   58SBC   C00B40638  11.794   8.584   6.841
   58SBC   C00A40639  11.889   8.515   6.741
   58SBC   C00940640  11.983   8.616   6.693
   58SBC   C00840641  12.055   8.621   6.572
   58SBC   C00740642  12.046   8.505   6.494
   58SBC   C00640643  12.127   8.503   6.374
   58SBC   C00540644  12.109   8.385   6.286
   58SBC   C00440645  12.018   8.282   6.317
   58SBC   C00340646  11.940   8.292   6.432
   58SBC   C00240647  11.843   8.201   6.455
   58SBC   C01C40648  11.826   8.088   6.373
   58SBC   C01B40649  11.727   7.986   6.398
   58SBC   H00040650  11.673   7.970   6.490
   58SBC   C00140651  11.743   8.229   6.551
   58SBC   C00040652  11.755   8.347   6.631
   58SBC   C01U40653  11.628   8.355   6.693
   58SBC   H00240654  11.597   8.447   6.742
   58SBC   C01T40655  11.543   8.243   6.657
   58SBC   O00240656  11.447   8.202   6.715
   58SBC   O00140657  11.610   8.176   6.562
   58SBC   C01S40658  11.960   8.400   6.522
   58SBC   C00N40659  12.112   8.742   6.535
   58SBC   C00M40660  12.072   8.860   6.599
   58SBC   C00J40661  11.993   8.857   6.711
   58SBC   C00I40662  11.935   8.970   6.764
   58SBC   C00H40663  11.838   8.956   6.866
   58SBC   C00G40664  11.788   8.834   6.900
   58SBC   C00F40665  11.691   8.815   6.990
   58SBC   C01X40666  11.781   9.070   6.920
   58SBC   C01W40667  11.815   9.189   6.870
   58SBC   C01V40668  11.902   9.199   6.763
   58SBC   C02040669  11.932   9.321   6.708
   58SBC   C01Z40670  11.762   9.303   6.926
   58SBC   C02Y40671  11.810   9.422   6.880
   58SBC   C03940672  11.764   9.539   6.936
   58SBC   C02W40673  11.659   9.306   7.029
   58SBC   C01Y40674  11.677   9.060   7.014
   58SBC   C00U40675  11.968   9.093   6.718
   58SBC   C00S40676  12.052   9.098   6.604
   58SBC   C00T40677  12.069   9.219   6.543
   58SBC   C00R40678  12.109   8.983   6.551
   58SBC   C00Q40679  12.169   8.989   6.427
   58SBC   C00V40680  12.183   9.110   6.362
   58SBC   C02440681  12.231   9.117   6.236
   58SBC   C00X40682  12.284   9.003   6.181
   58SBC   C00P40683  12.209   8.869   6.366
   58SBC   C00O40684  12.173   8.744   6.415
   58SBC   C00K40685  11.946   8.737   6.749
   58SBC   N00040686  11.870   8.423   6.637
   58SBC   C00L40687  11.837   8.721   6.833
   58SBC   H00440688  11.502   8.102   7.117
   58SBC   C02Q40689  11.552   8.436   7.098
   58SBC   C00E40690  11.651   8.686   7.021
   58SBC   C03040691  11.394   8.790   7.272
   58SBC   O00340692  11.341   8.901   7.341
   58SBC   C02S40693  11.637   8.932   7.053
   58SBC   C03840694  11.383   9.024   7.298
   58SBC   C03L40695  11.320   9.138   7.342
   58SBC   H00840696  11.232   9.116   7.401
   58SBC   C02V40697  11.625   9.179   7.071
   58SBC   C03K40698  11.362   9.268   7.315
   58SBC   C0BK40699  11.292   9.377   7.353
   58SBC   H00T40700  11.209   9.355   7.418
   58SBC   C03H40701  11.622   9.423   7.091
   58SBC   C0BL40702  11.319   9.509   7.318
   58SBC   C0GU40703  11.239   9.613   7.362
   58SBC   H01O40704  11.144   9.587   7.405
   58SBC   C0GT40705  11.255   9.747   7.330
   58SBC   H01P40706  11.175   9.813   7.360
   58SBC   C0GS40707  11.362   9.774   7.251
   58SBC   C0GV40708  11.405   9.907   7.212
   58SBC   C0GW40709  11.357  10.041   7.243
   58SBC   H01Q40710  11.278  10.063   7.312
   58SBC   C0GX40711  11.413  10.145   7.173
   58SBC   H01R40712  11.375  10.243   7.196
   58SBC   O00L40713  11.519  10.128   7.081
   58SBC   C0GQ40714  11.515   9.891   7.126
   58SBC   C03A40715  11.681   9.549   7.045
   58SBC   C05L40716  11.573  10.006   7.057
   58SBC   C04W40717  11.735  10.249   6.526
   58SBC   C05I40718  11.724  10.365   6.444
   58SBC   C05O40719  11.677  10.485   6.498
   58SBC   C05240720  11.778  10.373   6.314
   58SBC   C04V40721  11.802  10.142   6.473
   58SBC   C04U40722  11.854  10.145   6.343
   58SBC   N00940723  11.614  10.482   6.622
   58SBC   C0GP40724  11.659  10.599   6.419
   58SBC   C05W40725  11.717  10.598   6.292
   58SBC   C07D40726  11.798  10.851   6.038
   58SBC   C06J40727  11.902  10.621   5.921
   58SBC   C05P40728  11.777  10.488   6.239
   58SBC   C05R40729  11.938  10.382   5.930
   58SBC   C04Z40730  11.846  10.266   6.267
   58SBC   C04C40731  11.999  10.156   5.953
   58SBC   C04G40732  12.055   9.921   5.975
   58SBC   C04J40733  12.097   9.690   6.124
   58SBC   C04T40734  11.912  10.033   6.289
   58SBC   N00340735  11.814  10.023   6.549
   58SBC   C04P40736  11.781   9.902   6.755
   58SBC   C03D40737  11.793   9.660   6.881
   58SBC   C02140738  11.885   9.438   6.766
   58SBC   C03F40739  11.947   9.686   6.507
   58SBC   C02240740  12.006   9.333   6.594
   58SBC   C02A40741  12.063   9.575   6.330
   58SBC   C02340742  12.129   9.225   6.417
   58SBC   C02540743  12.236   9.236   6.163
   58SBC   C02D40744  12.277   9.234   6.031
   58SBC   C02E40745  12.320   9.116   5.967
   58SBC   C02N40746  12.357   9.116   5.832
   58SBC   C04N40747  12.117   9.574   6.203
   58SBC   C02P40748  12.271   9.353   5.956
   58SBC   C04I40749  12.141   9.696   5.993
   58SBC   C04440750  12.240   9.694   5.738
   58SBC   C04340751  12.314   9.350   5.824
   58SBC   C05N40752  12.355   9.233   5.759
   58SBC   C09U40753  12.471   9.250   5.347
   58SBC   C09V40754  12.497   9.258   5.208
   58SBC   C09X40755  12.520   9.150   5.135
   58SBC   C09Y40756  12.531   9.142   4.997
   58SBC   C0A140757  12.526   9.262   4.930
   58SBC   C0A240758  12.514   9.376   5.005
   58SBC   C0A440759  12.511   9.498   4.941
   58SBC   C07140760  12.488   9.618   5.015
   58SBC   C0A540761  12.493   9.740   4.946
   58SBC   C0A940762  12.524   9.743   4.813
   58SBC   C0A840763  12.539   9.626   4.740
   58SBC   C0AP40764  12.561   9.631   4.603
   58SBC   C0BY40765  12.579   9.510   4.540
   58SBC   C0BX40766  12.567   9.387   4.594
   58SBC   C0C240767  12.577   9.270   4.516
   58SBC   C0C340768  12.563   9.141   4.575
   58SBC   C0CT40769  12.556   9.135   4.716
   58SBC   C0C140770  12.593   9.272   4.376
   58SBC   C0C040771  12.633   9.409   4.322
   58SBC   C0A740772  12.548   9.381   4.728
   58SBC   C0BZ40773  12.612   9.517   4.407
   58SBC   C0BO40774  12.614   9.638   4.341
   58SBC   C0BN40775  12.597   9.760   4.405
   58SBC   C0BM40776  12.612   9.870   4.333
   58SBC   C0B940777  12.585   9.987   4.404
   58SBC   C0B840778  12.545   9.988   4.540
   58SBC   C0AD40779  12.554   9.871   4.611
   58SBC   C0AF40780  12.518  10.108   4.603
   58SBC   C0AG40781  12.528  10.232   4.539
   58SBC   C0B740782  12.571  10.233   4.408
   58SBC   C0AE40783  12.494  10.096   4.736
   58SBC   C0AB40784  12.502   9.981   4.811
   58SBC   C0AA40785  12.468   9.978   4.947
   58SBC   C0AJ40786  12.471  10.216   4.801
   58SBC   C0AK40787  12.444  10.216   4.938
   58SBC   C06W40788  12.397  10.336   4.968
   58SBC   C0AI40789  12.468  10.345   4.750
   58SBC   C0BP40790  12.654   9.618   4.207
   58SBC   C0BQ40791  12.655   9.740   4.128
   58SBC   C0BW40792  12.573   9.755   4.538
   58SBC   C0AC40793  12.530   9.863   4.748
   58SBC   C0A640794  12.535   9.500   4.805
   58SBC   C0A340795  12.545   9.258   4.790
   58SBC   C09Z40796  12.556   9.026   4.924
   58SBC   C09W40797  12.496   9.378   5.145
   58SBC   C07240798  12.458   9.493   5.216
   58SBC   C09H40799  12.539   9.035   5.201
   58SBC   C09G40800  12.578   8.923   5.127
   58SBC   C09P40801  12.588   8.822   5.221
   58SBC   C02O40802  12.480   8.859   5.589
   58SBC   C02M40803  12.397   8.995   5.769
   58SBC   C02F40804  12.328   9.002   6.048
   58SBC   C00W40805  12.276   8.887   6.254
   58SBC   C01R40806  12.194   8.624   6.342
   58SBC   C01N40807  12.368   8.651   6.020
   58SBC   C01L40808  12.348   8.486   5.844
   58SBC   C01H40809  12.183   8.178   5.832
   58SBC   C01K40810  12.175   8.369   6.154
   58SBC   C01E40811  11.996   8.173   6.226
   58SBC   C01G40812  12.092   8.066   5.866
   58SBC   C01D40813  11.894   8.080   6.249
   58SBC   C01A40814  11.700   7.890   6.297
   58SBC   H00140815  11.639   7.806   6.328
   58SBC   C01F40816  11.910   7.866   5.953
   58SBC   C03P40817  11.841   7.642   5.794
   58SBC   C03T40818  11.973   7.730   5.622
   58SBC   C08I40819  12.087   7.735   5.367
   58SBC   C08J40820  12.144   7.742   5.244
   58SBC   C08L40821  12.271   7.870   5.076
   58SBC   C09340822  12.379   8.018   4.899
   58SBC   C08Z40823  12.467   8.177   5.115
   58SBC   C09T40824  12.556   8.413   4.692
   58SBC   C09S40825  12.601   8.436   5.049
   58SBC   C09Q40826  12.606   8.694   5.172
   58SBC   C09F40827  12.588   8.911   4.990
   58SBC   C09E40828  12.603   8.635   4.764
   58SBC   C0A040829  12.560   9.014   4.782
   58SBC   C0CU40830  12.557   9.017   4.504
   58SBC   C0CR40831  12.556   9.034   4.366
   58SBC   C0CZ40832  12.549   8.914   4.289
   58SBC   C0DA40833  12.577   8.556   4.650
   58SBC   C0D940834  12.676   8.492   4.318
   58SBC   H00V40835  12.739   8.426   4.376
   58SBC   C0CY40836  12.542   8.786   4.357
   58SBC   C0DF40837  12.688   8.537   4.181
   58SBC   C0DE40838  12.766   8.544   4.053
   58SBC   C0GI40839  12.877   8.470   4.011
   58SBC   H01K40840  12.926   8.392   4.066
   58SBC   C0GJ40841  12.920   8.488   3.883
   58SBC   H01J40842  13.005   8.438   3.839
   58SBC   O00I40843  12.875   8.590   3.801
   58SBC   C0GH40844  12.780   8.681   3.846
   58SBC   C0GG40845  12.764   8.800   3.773
   58SBC   O00G40846  12.842   8.808   3.661
   58SBC   C0G840847  12.843   8.922   3.585
   58SBC   C0G940848  12.912   8.908   3.463
   58SBC   H01G40849  12.966   8.818   3.437
   58SBC   C0GA40850  12.905   9.015   3.374
   58SBC   H01H40851  12.950   8.990   3.278
   58SBC   C0GB40852  12.860   9.140   3.405
   58SBC   C0EP40853  12.808   9.154   3.537
   58SBC   C0E840854  12.791   9.296   3.579
   58SBC   C0CK40855  12.759   9.368   3.697
   58SBC   C0CL40856  12.664   9.306   3.777
   58SBC   C0E940857  12.643   9.160   3.787
   58SBC   C0GE40858  12.708   9.036   3.735
   58SBC   C0E740859  12.789   9.396   3.484
   58SBC   C0CJ40860  12.755   9.521   3.532
   58SBC   C0E640861  12.721   9.628   3.443
   58SBC   H00Y40862  12.685   9.724   3.477
   58SBC   C0EO40863  12.765   9.605   3.306
   58SBC   H01140864  12.770   9.687   3.237
   58SBC   C0G640865  12.810   9.479   3.259
   58SBC   C0G540866  12.846   9.455   3.126
   58SBC   H01F40867  12.841   9.541   3.060
   58SBC   C0GD40868  12.874   9.331   3.087
   58SBC   H01I40869  12.891   9.321   2.980
   58SBC   O00H40870  12.877   9.220   3.172
   58SBC   C0EQ40871  12.820   9.371   3.352
   58SBC   C0GC40872  12.856   9.246   3.308
   58SBC   C0G740873  12.789   9.045   3.626
   58SBC   C0DD40874  12.716   8.648   3.970
   58SBC   C0GF40875  12.682   8.910   3.804
   58SBC   C0CO40876  12.548   9.156   3.886
   58SBC   C0D040877  12.552   8.929   4.146
   58SBC   C0C440878  12.559   9.166   4.297
   58SBC   C0CN40879  12.516   9.285   3.936
   58SBC   C0CP40880  12.654   9.474   4.194
   58SBC   C0CM40881  12.572   9.384   3.859
   58SBC   C0CI40882  12.754   9.513   3.678
   58SBC   C0CD40883  12.819   9.994   3.748
   58SBC   C0BR40884  12.688   9.737   3.989
   58SBC   C0CS40885  12.638   9.868   4.197
   58SBC   C0B640886  12.587  10.109   4.339
   58SBC   C0CG40887  12.717  10.105   3.935
   58SBC   C0CF40888  12.783  10.112   3.809
   58SBC   C0E540889  12.938  10.114   3.573
   58SBC   C0DT40890  13.000  10.352   3.459
   58SBC   C0DL40891  12.812  10.474   3.752
   58SBC   C0DM40892  12.785  10.593   3.815
   58SBC   C0DY40893  12.874  10.717   3.631
   58SBC   C0DU40894  13.011  10.474   3.390
   58SBC   C0F040895  13.152  10.596   3.237
   58SBC   C0F440896  13.302  10.816   3.203
   58SBC   C0FG40897  13.016  10.951   3.386
   58SBC   O00B40898  13.347  11.038   3.289
   58SBC   C0FN40899  13.015  11.066   3.452
   58SBC   C0DZ40900  12.916  10.842   3.577
   58SBC   O00C40901  12.810  11.068   3.838
   58SBC   C0FR40902  12.721  11.080   3.942
   58SBC   O00D40903  12.684  11.189   3.966
   58SBC   C0E040904  12.814  10.714   3.754
   58SBC   C0E340905  12.686  10.956   4.006
   58SBC   C0AW40906  12.616  10.949   4.123
   58SBC   C0AV40907  12.559  11.063   4.194
   58SBC   H00Q40908  12.542  11.153   4.137
   58SBC   C0AU40909  12.499  11.050   4.323
   58SBC   H00R40910  12.452  11.138   4.365
   58SBC   C0AT40911  12.505  10.927   4.390
   58SBC   C0AS40912  12.462  10.872   4.518
   58SBC   C0AR40913  12.395  10.949   4.620
   58SBC   C0BE40914  12.561  10.820   4.316
   58SBC   C0DN40915  12.723  10.587   3.944
   58SBC   C0AX40916  12.606  10.825   4.183
   58SBC   C0BB40917  12.643  10.466   4.135
   58SBC   C0BD40918  12.549  10.709   4.394
   58SBC   C0B240919  12.580  10.350   4.339
   58SBC   C0AH40920  12.503  10.357   4.606
   58SBC   C0BF40921  12.491  10.728   4.524
   58SBC   C0AL40922  12.419  10.427   4.860
   58SBC   C07U40923  12.376  10.774   4.804
   58SBC   C0AQ40924  12.353  10.901   4.745
   58SBC   C0BG40925  12.353  11.092   4.620
   58SBC   C0FY40926  12.348  11.294   4.902
   58SBC   C0BJ40927  12.439  11.210   4.595
   58SBC   H00S40928  12.526  11.210   4.530
   58SBC   C0FZ40929  12.437  11.400   4.880
   58SBC   C07S40930  12.354  11.229   5.030
   58SBC   C0G140931  12.572  11.483   5.198
   58SBC   C07K40932  12.481  11.273   5.500
   58SBC   C07H40933  12.367  11.115   5.287
   58SBC   C06B40934  12.163  11.007   5.548
   58SBC   C06N40935  12.161  10.785   5.511
   58SBC   C06640936  12.306  10.890   5.168
   58SBC   C06240937  12.297  10.591   5.118
   58SBC   C05Y40938  12.153  10.528   5.474
   58SBC   C06140939  12.254  10.460   5.121
   58SBC   C05H40940  12.219  10.208   5.382
   58SBC   C06V40941  12.330  10.348   5.085
   58SBC   C06Y40942  12.431  10.096   5.016
   58SBC   C05C40943  12.317   9.957   5.333
   58SBC   C06Z40944  12.464   9.860   5.016
   58SBC   C07040945  12.460   9.615   5.152
   58SBC   C05B40946  12.326   9.837   5.403
   58SBC   C05740947  12.336   9.594   5.545
   58SBC   C05940948  12.420   9.487   5.353
   59SBC   C05840949  12.003   9.602   5.362
   59SBC   C05A40950  11.979   9.740   5.353
   59SBC   C06Q40951  11.912   9.808   5.452
   59SBC   C06R40952  11.878   9.944   5.444
   59SBC   C06S40953  11.909  10.017   5.328
   59SBC   C06T40954  11.870  10.154   5.326
   59SBC   C06U40955  11.873  10.255   5.215
   59SBC   C06X40956  11.931  10.251   5.089
   59SBC   C06040957  11.881  10.361   5.011
   59SBC   C05Z40958  11.963  10.441   4.917
   59SBC   C06840959  11.929  10.583   4.949
   59SBC   C06740960  11.951  10.713   4.878
   59SBC   C06940961  12.002  10.710   4.734
   59SBC   C06A40962  11.996  10.826   4.638
   59SBC   C07340963  11.932  10.955   4.630
   59SBC   C07P40964  11.892  11.005   4.508
   59SBC   C07O40965  11.866  10.925   4.390
   59SBC   H00D40966  11.879  10.818   4.397
   59SBC   C07N40967  11.847  10.984   4.267
   59SBC   H00E40968  11.837  10.927   4.176
   59SBC   C07M40969  11.829  11.119   4.260
   59SBC   H00F40970  11.801  11.168   4.167
   59SBC   C07L40971  11.842  11.202   4.372
   59SBC   C07Q40972  11.815  11.340   4.371
   59SBC   H00G40973  11.784  11.389   4.280
   59SBC   O00F40974  11.823  11.427   4.473
   59SBC   C07J40975  11.863  11.364   4.588
   59SBC   C07I40976  11.881  11.223   4.605
   59SBC   N00440977  11.920  11.170   4.734
   59SBC   C07R40978  11.941  11.264   4.836
   59SBC   C07T40979  11.911  11.401   4.815
   59SBC   C0FX40980  11.906  11.494   4.917
   59SBC   C0FW40981  11.845  11.620   4.915
   59SBC   C0G040982  11.804  11.667   4.787
   59SBC   C0G240983  11.735  11.790   4.776
   59SBC   H01E40984  11.714  11.833   4.679
   59SBC   C0G340985  11.708  11.866   4.890
   59SBC   H01C40986  11.665  11.964   4.875
   59SBC   C0G440987  11.754  11.819   5.015
   59SBC   H01D40988  11.725  11.883   5.098
   59SBC   O00E40989  11.829  11.584   4.679
   59SBC   C0FV40990  11.820  11.699   5.031
   59SBC   C0FU40991  11.865  11.637   5.152
   59SBC   H01B40992  11.843  11.685   5.246
   59SBC   C0FT40993  11.946  11.521   5.152
   59SBC   C0FS40994  11.985  11.430   5.253
   59SBC   C0BI40995  12.046  11.308   5.192
   59SBC   C0BH40996  12.016  11.196   5.277
   59SBC   C07F40997  11.966  11.072   5.231
   59SBC   C07E40998  11.978  11.014   5.104
   59SBC   C07G40999  11.986  11.081   4.981
   59SBC   C07441000  11.960  10.984   4.887
   59SBC   C06541001  11.928  10.890   5.078
   59SBC   C06441002  11.870  10.823   5.185
   59SBC   C06341003  11.819  10.694   5.182
   59SBC   C07541004  11.753  10.683   5.318
   59SBC   C0AM41005  11.750  10.805   5.397
   59SBC   C0AN41006  11.684  10.835   5.532
   59SBC   C0AO41007  11.621  10.750   5.637
   59SBC   C0B141008  11.555  10.801   5.753
   59SBC   C0B041009  11.534  10.934   5.768
   59SBC   C0AZ41010  11.463  11.002   5.867
   59SBC   C0AY41011  11.459  11.138   5.870
   59SBC   N00741012  11.399  11.198   5.980
   59SBC   C0E241013  11.401  11.343   5.993
   59SBC   C0E141014  11.340  11.393   6.108
   59SBC   C0E441015  11.344  11.531   6.124
   59SBC   C0FF41016  11.278  11.599   6.226
   59SBC   C0FJ41017  11.294  11.733   6.281
   59SBC   C0FK41018  11.423  11.791   6.306
   59SBC   H01641019  11.517  11.769   6.258
   59SBC   C0FL41020  11.407  11.878   6.420
   59SBC   H01741021  11.481  11.920   6.487
   59SBC   C0FM41022  11.268  11.881   6.459
   59SBC   C0FH41023  11.190  11.874   6.588
   59SBC   C0FI41024  11.109  11.763   6.560
   59SBC   C0F341025  11.055  11.686   6.660
   59SBC   C0F241026  11.014  11.565   6.618
   59SBC   C0DW41027  11.051  11.500   6.501
   59SBC   C0FE41028  11.106  11.573   6.405
   59SBC   C0DV41029  11.049  11.361   6.494
   59SBC   C0DX41030  11.116  11.298   6.387
   59SBC   C0DK41031  11.142  11.163   6.387
   59SBC   C0DJ41032  11.100  11.089   6.497
   59SBC   C0DI41033  11.124  10.953   6.496
   59SBC   C0DH41034  11.192  10.887   6.389
   59SBC   C0DG41035  11.232  10.965   6.281
   59SBC   C0BV41036  11.300  10.904   6.175
   59SBC   C0BC41037  11.342  10.981   6.068
   59SBC   C0BA41038  11.319  10.765   6.180
   59SBC   C0B441039  11.395  10.710   6.078
   59SBC   C0B341040  11.442  10.788   5.977
   59SBC   C0B541041  11.423  10.576   6.083
   59SBC   C0BU41042  11.393  10.497   6.200
   59SBC   C0BT41043  11.316  10.552   6.304
   59SBC   C0BS41044  11.294  10.479   6.422
   59SBC   C0CC41045  11.227  10.544   6.531
   59SBC   C0CB41046  11.189  10.476   6.648
   59SBC   C0CH41047  11.085  10.535   6.715
   59SBC   C0DO41048  11.065  10.673   6.718
   59SBC   C0DP41049  10.998  10.734   6.823
   59SBC   C0EA41050  10.946  10.658   6.935
   59SBC   H01241051  10.922  10.554   6.918
   59SBC   O00941052  10.902  10.716   7.051
   59SBC   C0EH41053  10.895  10.844   7.052
   59SBC   C0EG41054  10.848  10.899   7.171
   59SBC   C0EJ41055  10.790  10.842   7.291
   59SBC   H01041056  10.760  10.740   7.310
   59SBC   C0EK41057  10.776  10.957   7.384
   59SBC   H00Z41058  10.736  10.946   7.484
   59SBC   C0EL41059  10.817  11.070   7.311
   59SBC   C0EM41060  10.829  11.212   7.348
   59SBC   C0EW41061  10.790  11.273   7.467
   59SBC   H01341062  10.758  11.214   7.551
   59SBC   C0EX41063  10.819  11.415   7.500
   59SBC   H01441064  10.801  11.465   7.595
   59SBC   C0F141065  10.861  11.496   7.385
   59SBC   C0EU41066  10.899  11.434   7.265
   59SBC   C0ET41067  10.945  11.497   7.152
   59SBC   C0ES41068  10.970  11.390   7.060
   59SBC   C0EE41069  10.931  11.263   7.120
   59SBC   C0ED41070  10.909  11.122   7.087
   59SBC   C0EC41071  10.929  11.068   6.957
   59SBC   C0EB41072  10.962  11.137   6.839
   59SBC   C0EN41073  10.954  11.284   6.837
   59SBC   C0ER41074  10.968  11.346   6.709
   59SBC   C0DS41075  11.002  11.076   6.717
   59SBC   C0DR41076  11.029  10.945   6.716
   59SBC   C0EY41077  10.953  11.400   6.920
   59SBC   C0EZ41078  10.976  11.522   6.857
   59SBC   C0F541079  11.005  11.661   6.897
   59SBC   C0F641080  11.002  11.708   7.032
   59SBC   N00841081  11.052  11.844   7.052
   59SBC   C0F741082  11.118  11.918   6.945
   59SBC   C0FQ41083  11.168  12.046   6.985
   59SBC   H01841084  11.227  12.099   6.911
   59SBC   C0FP41085  11.135  12.110   7.104
   59SBC   H01941086  11.181  12.205   7.126
   59SBC   C0FO41087  11.063  12.039   7.196
   59SBC   H01A41088  11.048  12.081   7.294
   59SBC   C0F841089  11.130  11.850   6.820
   59SBC   C0F941090  11.024  11.907   7.174
   59SBC   C0FA41091  10.950  11.842   7.276
   59SBC   H01541092  10.928  11.890   7.370
   59SBC   C0FB41093  10.932  11.703   7.268
   59SBC   C0FD41094  10.960  11.641   7.145
   59SBC   C0FC41095  10.889  11.636   7.389
   59SBC   O00A41096  10.860  11.702   7.494
   59SBC   C0EV41097  10.883  11.299   7.248
   59SBC   C0EF41098  10.856  11.034   7.182
   59SBC   C0EI41099  10.936  10.927   6.943
   59SBC   C0DQ41100  10.990  10.870   6.827
   59SBC   C0CE41101  11.118  10.746   6.615
   59SBC   H00U41102  11.022  10.468   6.772
   59SBC   C0CA41103  11.238  10.345   6.672
   59SBC   C0C941104  11.316  10.274   6.570
   59SBC   C0C841105  11.373  10.149   6.611
   59SBC   C0C741106  11.433  10.038   6.536
   59SBC   C0C641107  11.469   9.924   6.611
   59SBC   C0C541108  11.498   9.783   6.589
   59SBC   C0CQ41109  11.480   9.707   6.706
   59SBC   C0D141110  11.412   9.756   6.812
   59SBC   C0D841111  11.326   9.668   6.871
   59SBC   C0D741112  11.383   9.543   6.824
   59SBC   C0D641113  11.340   9.411   6.859
   59SBC   C0D541114  11.390   9.302   6.798
   59SBC   C0D441115  11.495   9.274   6.706
   59SBC   C0D341116  11.466   9.149   6.648
   59SBC   C0CX41117  11.522   9.146   6.510
   59SBC   C0CW41118  11.557   9.281   6.476
   59SBC   C0CV41119  11.622   9.359   6.367
   59SBC   C0D241120  11.702   9.294   6.269
   59SBC   C09D41121  11.761   9.163   6.274
   59SBC   C09C41122  11.859   9.122   6.180
   59SBC   C09B41123  11.904   8.988   6.171
   59SBC   C09A41124  11.851   8.896   6.265
   59SBC   C09941125  11.782   8.936   6.367
   59SBC   C09841126  11.707   8.830   6.423
   59SBC   C08Y41127  11.721   8.716   6.338
   59SBC   C08X41128  11.643   8.595   6.329
   59SBC   C08W41129  11.529   8.572   6.415
   59SBC   C08U41130  11.478   8.663   6.519
   59SBC   C08V41131  11.506   8.800   6.558
   59SBC   C0DC41132  11.446   8.821   6.687
   59SBC   H00W41133  11.462   8.912   6.744
   59SBC   C0DB41134  11.359   8.710   6.720
   59SBC   H00X41135  11.295   8.695   6.806
   59SBC   C08T41136  11.377   8.619   6.612
   59SBC   C08S41137  11.312   8.502   6.594
   59SBC   H00N41138  11.242   8.464   6.668
   59SBC   C08R41139  11.351   8.417   6.493
   59SBC   C08Q41140  11.297   8.286   6.474
   59SBC   H00O41141  11.222   8.256   6.546
   59SBC   C08P41142  11.329   8.190   6.375
   59SBC   C08O41143  11.263   8.067   6.365
   59SBC   H00P41144  11.188   8.033   6.435
   59SBC   C08N41145  11.299   7.985   6.251
   59SBC   C08M41146  11.232   7.855   6.237
   59SBC   O00841147  11.148   7.823   6.317
   59SBC   O00741148  11.266   7.780   6.128
   59SBC   C08H41149  11.359   7.813   6.036
   59SBC   C08G41150  11.389   7.731   5.921
   59SBC   C03V41151  11.339   7.608   5.881
   59SBC   H00941152  11.278   7.557   5.954
   59SBC   C03U41153  11.371   7.540   5.765
   59SBC   C03W41154  11.320   7.406   5.729
   59SBC   H00A41155  11.252   7.347   5.788
   59SBC   C03X41156  11.369   7.351   5.612
   59SBC   H00B41157  11.338   7.250   5.589
   59SBC   O00541158  11.462   7.415   5.530
   59SBC   C03O41159  11.499   7.544   5.558
   59SBC   C03N41160  11.572   7.617   5.469
   59SBC   O00041161  11.612   7.554   5.355
   59SBC   C01941162  11.668   7.618   5.261
   59SBC   C01841163  11.720   7.752   5.274
   59SBC   C01741164  11.701   7.814   5.397
   59SBC   C01641165  11.757   7.938   5.426
   59SBC   C01541166  11.834   7.987   5.324
   59SBC   C01441167  11.910   8.102   5.350
   59SBC   C01341168  11.889   8.179   5.469
   59SBC   C01241169  11.965   8.303   5.441
   59SBC   C01141170  12.020   8.280   5.305
   59SBC   C01041171  12.115   8.362   5.254
   59SBC   C00Z41172  12.158   8.375   5.118
   59SBC   C00Y41173  12.213   8.506   5.117
   59SBC   C01O41174  12.206   8.570   5.237
   59SBC   C01P41175  12.185   8.710   5.246
   59SBC   C02L41176  12.134   8.760   5.367
   59SBC   C02K41177  12.089   8.670   5.462
   59SBC   C01M41178  12.082   8.524   5.445
   59SBC   C02J41179  12.061   8.731   5.588
   59SBC   C02I41180  12.025   8.665   5.705
   59SBC   C02H41181  11.984   8.534   5.728
   59SBC   C01Q41182  11.964   8.427   5.639
   59SBC   C02G41183  11.895   8.331   5.719
   59SBC   C08941184  11.904   8.356   5.853
   59SBC   C08841185  11.795   8.296   5.924
   59SBC   C08741186  11.745   8.205   5.825
   59SBC   C08641187  11.646   8.104   5.845
   59SBC   C03S41188  11.619   7.983   5.771
   59SBC   N00641189  11.533   7.913   5.852
   59SBC   C08F41190  11.499   7.982   5.962
   59SBC   C01J41191  11.657   7.933   5.647
   59SBC   C03R41192  11.596   7.803   5.618
   59SBC   C03Q41193  11.512   7.734   5.712
   59SBC   C08E41194  11.564   8.104   5.963
   59SBC   C08D41195  11.558   8.181   6.080
   59SBC   C08K41196  11.457   8.147   6.176
   59SBC   C08C41197  11.634   8.295   6.116
   59SBC   C09141198  11.592   8.377   6.222
   59SBC   C09241199  11.487   8.351   6.307
   59SBC   C08B41200  11.744   8.354   6.047
   59SBC   C09041201  11.776   8.479   6.116
   59SBC   C09441202  11.876   8.577   6.080
   59SBC   C09541203  11.891   8.710   6.138
   59SBC   C09R41204  11.957   8.790   6.046
   59SBC   C09741205  11.986   8.721   5.930
   59SBC   C09641206  11.936   8.588   5.955
   59SBC   C01I41207  11.819   8.209   5.700
   59SBC   C08A41208  11.939   8.495   5.853
   59SBC   C09L41209  12.021   8.763   5.800
   59SBC   C09K41210  12.068   8.891   5.748
   59SBC   C09J41211  12.051   9.012   5.814
   59SBC   C09I41212  12.018   9.134   5.749
   59SBC   C09O41213  12.027   9.190   5.615
   59SBC   C09N41214  12.069   9.113   5.504
   59SBC   C09M41215  12.090   8.970   5.496
   59SBC   C06O41216  12.081   9.182   5.382
   59SBC   C05M41217  12.057   9.322   5.376
   59SBC   C06P41218  12.005   9.394   5.489
   59SBC   C04241219  12.080   9.395   5.261
   59SBC   C04141220  12.117   9.331   5.142
   59SBC   C04041221  12.144   9.403   5.028
   59SBC   C03Z41222  12.185   9.338   4.910
   59SBC   C03Y41223  12.190   9.198   4.911
   59SBC   C02741224  12.214   9.137   4.791
   59SBC   C02641225  12.214   8.998   4.784
   59SBC   C02841226  12.221   8.933   4.663
   59SBC   C02941227  12.230   9.008   4.547
   59SBC   C02B41228  12.223   8.938   4.423
   59SBC   C02C41229  12.223   9.008   4.307
   59SBC   C02X41230  12.206   8.944   4.185
   59SBC   C03E41231  12.206   9.024   4.077
   59SBC   C03G41232  12.206   9.160   4.070
   59SBC   C04Q41233  12.215   9.224   4.189
   59SBC   C04R41234  12.229   9.358   4.192
   59SBC   C04S41235  12.241   9.424   4.313
   59SBC   C04L41236  12.239   9.356   4.434
   59SBC   C04M41237  12.229   9.220   4.432
   59SBC   C04K41238  12.241   9.415   4.555
   59SBC   C04F41239  12.235   9.553   4.555
   59SBC   C04E41240  12.246   9.627   4.437
   59SBC   C04D41241  12.245   9.768   4.440
   59SBC   C05041242  12.261   9.838   4.322
   59SBC   C05141243  12.253   9.976   4.330
   59SBC   C05Q41244  12.267  10.047   4.213
   59SBC   C05V41245  12.257  10.182   4.216
   59SBC   N00541246  12.296  10.253   4.097
   59SBC   C07V41247  12.332  10.181   3.983
   59SBC   C08241248  12.373  10.251   3.870
   59SBC   C08141249  12.380  10.390   3.863
   59SBC   C07C41250  12.330  10.461   3.971
   59SBC   C07B41251  12.321  10.601   3.968
   59SBC   C08041252  12.377  10.678   3.862
   59SBC   C07Z41253  12.374  10.815   3.871
   59SBC   H00L41254  12.414  10.862   3.783
   59SBC   C07941255  12.316  10.885   3.978
   59SBC   C07841256  12.265  10.813   4.088
   59SBC   C07741257  12.218  10.875   4.201
   59SBC   C07X41258  12.196  11.018   4.196
   59SBC   H00I41259  12.130  11.062   4.270
   59SBC   C07Y41260  12.243  11.096   4.091
   59SBC   H00H41261  12.233  11.204   4.090
   59SBC   C07641262  12.183  10.804   4.315
   59SBC   C06C41263  12.136  10.869   4.431
   59SBC   H00C41264  12.134  10.977   4.436
   59SBC   C06F41265  12.196  10.665   4.318
   59SBC   C06E41266  12.165  10.591   4.432
   59SBC   C06G41267  12.170  10.454   4.446
   59SBC   C06H41268  12.213  10.393   4.329
   59SBC   C06I41269  12.242  10.460   4.205
   59SBC   C06L41270  12.134  10.390   4.570
   59SBC   C06M41271  12.083  10.458   4.684
   59SBC   C06K41272  12.159  10.252   4.572
   59SBC   C05S41273  12.206  10.183   4.452
   59SBC   C05U41274  12.136  10.175   4.687
   59SBC   C05X41275  12.083  10.239   4.806
   59SBC   C05G41276  12.074  10.142   4.917
   59SBC   C05F41277  12.107  10.013   4.897
   59SBC   C05E41278  12.091   9.943   5.015
   59SBC   C04841279  12.114   9.806   5.028
   59SBC   C05641280  12.073   9.743   5.140
   59SBC   C04541281  12.092   9.606   5.145
   59SBC   C04741282  12.155   9.745   4.910
   59SBC   C04941283  12.177   9.817   4.795
   59SBC   C04B41284  12.208   9.753   4.677
   59SBC   C04641285  12.166   9.610   4.910
   59SBC   C04H41286  12.200   9.547   4.792
   59SBC   C05D41287  12.021  10.017   5.112
   59SBC   C04A41288  12.160   9.952   4.784
   59SBC   C05T41289  12.169  10.036   4.680
   59SBC   C05541290  12.209   9.972   4.563
   59SBC   C06D41291  12.099  10.655   4.536
   59SBC   C07W41292  12.237  10.601   4.200
   59SBC   C08541293  12.305  11.026   3.984
   59SBC   H00M41294  12.337  11.096   3.908
   59SBC   C08441295  12.426  10.603   3.754
   59SBC   H00J41296  12.479  10.644   3.670
   59SBC   C07A41297  12.273  10.669   4.084
   59SBC   C08341298  12.430  10.465   3.752
   59SBC   H00K41299  12.457  10.415   3.660
   59SBC   O00K41300  12.398  10.191   3.749
   59SBC   C0GO41301  12.397  10.054   3.747
   59SBC   C0GN41302  12.420   9.987   3.632
   59SBC   H01L41303  12.436  10.056   3.550
   59SBC   C0GM41304  12.396   9.845   3.619
   59SBC   C0GL41305  12.421   9.781   3.501
   59SBC   H01M41306  12.463   9.835   3.417
   59SBC   O00J41307  12.403   9.644   3.486
   59SBC   C0GK41308  12.345   9.581   3.595
   59SBC   H01N41309  12.334   9.474   3.580
   59SBC   C05K41310  12.326   9.642   3.711
   59SBC   C05J41311  12.282   9.566   3.827
   59SBC   C04Y41312  12.234   9.432   3.828
   59SBC   C04X41313  12.222   9.357   3.942
   59SBC   O00641314  12.198   9.370   3.711
   59SBC   C05341315  12.175   9.233   3.706
   59SBC   C04O41316  12.183   9.156   3.820
   59SBC   C03C41317  12.167   9.009   3.832
   59SBC   C03B41318  12.143   8.893   3.744
   59SBC   C05441319  12.111   8.912   3.616
   59SBC   C0GR41320  12.082   8.798   3.538
   59SBC   C03M41321  12.066   8.651   3.561
   59SBC   C03I41322  12.064   8.579   3.688
   59SBC   C03J41323  12.029   8.437   3.692
   59SBC   N00241324  12.029   8.363   3.818
   59SBC   C02U41325  11.979   8.228   3.826
   59SBC   C02T41326  11.968   8.160   3.946
   59SBC   C02Z41327  11.929   8.029   3.948
   59SBC   N00141328  11.918   7.960   4.071
   59SBC   C02R41329  11.867   7.825   4.074
   59SBC   C03241330  11.825   7.767   3.956
   59SBC   C03141331  11.837   7.836   3.837
   59SBC   H00741332  11.812   7.781   3.747
   59SBC   C03341333  11.770   7.631   3.970
   59SBC   H00341334  11.745   7.577   3.880
   59SBC   O00441335  11.749   7.562   4.091
   59SBC   C03441336  11.777   7.640   4.200
   59SBC   C03541337  11.757   7.576   4.327
   59SBC   C03641338  11.768   7.658   4.439
   59SBC   H00541339  11.750   7.617   4.537
   59SBC   C03741340  11.830   7.777   4.437
   59SBC   H00641341  11.822   7.840   4.524
   59SBC   C00D41342  11.877   7.834   4.316
   59SBC   C00C41343  11.941   7.951   4.316
   59SBC   C00B41344  12.005   8.012   4.438
   59SBC   C00A41345  12.001   8.023   4.593
   59SBC   C00941346  12.065   8.143   4.628
   59SBC   C00841347  12.078   8.198   4.756
   59SBC   C00741348  12.024   8.131   4.867
   59SBC   C00641349  12.047   8.185   4.996
   59SBC   C00541350  11.995   8.113   5.107
   59SBC   C00441351  11.930   7.990   5.093
   59SBC   C00341352  11.932   7.933   4.960
   59SBC   C00241353  11.879   7.803   4.946
   59SBC   C01C41354  11.807   7.738   5.049
   59SBC   C01B41355  11.749   7.611   5.032
   59SBC   H00041356  11.749   7.556   4.939
   59SBC   C00141357  11.912   7.741   4.827
   59SBC   C00041358  11.960   7.816   4.714
   59SBC   C01U41359  12.019   7.717   4.634
   59SBC   H00241360  12.064   7.716   4.535
   59SBC   C01T41361  11.983   7.582   4.690
   59SBC   O00241362  12.004   7.472   4.641
   59SBC   O00141363  11.932   7.606   4.818
   59SBC   C01S41364  11.978   8.003   4.846
   59SBC   C00N41365  12.131   8.325   4.756
   59SBC   C00M41366  12.169   8.390   4.642
   59SBC   C00J41367  12.160   8.333   4.519
   59SBC   C00I41368  12.167   8.397   4.403
   59SBC   C00H41369  12.122   8.339   4.288
   59SBC   C00G41370  12.074   8.205   4.287
   59SBC   C00F41371  12.016   8.143   4.178
   59SBC   C01X41372  12.118   8.407   4.169
   59SBC   C01W41373  12.157   8.535   4.171
   59SBC   C01V41374  12.183   8.604   4.292
   59SBC   C02041375  12.203   8.738   4.298
   59SBC   C01Z41376  12.149   8.612   4.055
   59SBC   C02Y41377  12.169   8.741   4.064
   59SBC   C03941378  12.164   8.819   3.949
   59SBC   C02W41379  12.110   8.557   3.931
   59SBC   C01Y41380  12.072   8.347   4.051
   59SBC   C00U41381  12.198   8.529   4.407
   59SBC   C00S41382  12.218   8.591   4.531
   59SBC   C00T41383  12.221   8.727   4.539
   59SBC   C00R41384  12.206   8.525   4.651
   59SBC   C00Q41385  12.207   8.589   4.773
   59SBC   C00V41386  12.222   8.722   4.778
   59SBC   C02441387  12.219   8.791   4.895
   59SBC   C00X41388  12.219   8.719   5.010
   59SBC   C00P41389  12.194   8.515   4.885
   59SBC   C00O41390  12.146   8.384   4.880
   59SBC   C00K41391  12.116   8.201   4.514
   59SBC   N00041392  11.973   7.950   4.713
   59SBC   C00L41393  12.072   8.134   4.404
   59SBC   H00441394  11.713   7.478   4.338
   59SBC   C02Q41395  11.838   7.772   4.195
   59SBC   C00E41396  11.959   8.016   4.191
   59SBC   C03041397  11.883   7.969   3.827
   59SBC   O00341398  11.890   8.037   3.710
   59SBC   C02S41399  12.019   8.217   4.060
   59SBC   C03841400  11.946   8.164   3.710
   59SBC   C03L41401  11.956   8.230   3.587
   59SBC   H00841402  11.930   8.176   3.497
   59SBC   C02V41403  12.069   8.423   3.938
   59SBC   C03K41404  11.989   8.369   3.580
   59SBC   C0BK41405  11.984   8.446   3.460
   59SBC   H00T41406  11.948   8.387   3.378
   59SBC   C03H41407  12.099   8.634   3.810
   59SBC   C0BL41408  12.026   8.580   3.443
   59SBC   C0GU41409  12.036   8.648   3.318
   59SBC   H01O41410  12.011   8.600   3.225
   59SBC   C0GT41411  12.049   8.783   3.299
   59SBC   H01P41412  12.040   8.816   3.197
   59SBC   C0GS41413  12.075   8.855   3.407
   59SBC   C0GV41414  12.112   8.993   3.407
   59SBC   C0GW41415  12.118   9.091   3.300
   59SBC   H01Q41416  12.108   9.067   3.195
   59SBC   C0GX41417  12.136   9.222   3.336
   59SBC   H01R41418  12.145   9.297   3.259
   59SBC   O00L41419  12.153   9.265   3.468
   59SBC   C0GQ41420  12.128   9.036   3.539
   59SBC   C03A41421  12.126   8.775   3.822
   59SBC   C05L41422  12.147   9.173   3.572
   59SBC   C04W41423  12.278   9.633   3.952
   59SBC   C05I41424  12.300   9.768   3.961
   59SBC   C05O41425  12.338   9.841   3.856
   59SBC   C05241426  12.282   9.840   4.086
   59SBC   C04V41427  12.263   9.564   4.075
   59SBC   C04U41428  12.261   9.633   4.199
   59SBC   N00941429  12.355   9.780   3.731
   59SBC   C0GP41430  12.354   9.977   3.862
   59SBC   C05W41431  12.325  10.045   3.978
   59SBC   C07D41432  12.286  10.391   4.087
   59SBC   C06J41433  12.223  10.255   4.333
   59SBC   C05P41434  12.289   9.977   4.092
   59SBC   C05R41435  12.221  10.046   4.449
   59SBC   C04Z41436  12.270   9.768   4.200
   59SBC   C04C41437  12.224   9.831   4.562
   59SBC   C04G41438  12.217   9.617   4.676
   59SBC   C04J41439  12.226   9.345   4.673
   59SBC   C04T41440  12.244   9.560   4.317
   59SBC   N00341441  12.236   9.425   4.069
   59SBC   C04P41442  12.199   9.224   3.941
   59SBC   C03D41443  12.178   8.959   3.960
   59SBC   C02141444  12.196   8.813   4.179
   59SBC   C03F41445  12.225   9.151   4.313
   59SBC   C02241446  12.220   8.799   4.423
   59SBC   C02A41447  12.226   9.145   4.550
   59SBC   C02341448  12.220   8.794   4.660
   59SBC   C02541449  12.209   8.931   4.900
   59SBC   C02D41450  12.192   8.990   5.023
   59SBC   C02E41451  12.178   8.916   5.145
   59SBC   C02N41452  12.143   8.980   5.268
   59SBC   C04N41453  12.218   9.210   4.672
   59SBC   C02P41454  12.175   9.128   5.027
   59SBC   C04I41455  12.208   9.409   4.793
   59SBC   C04441456  12.137   9.540   5.028
   59SBC   C04341457  12.137   9.192   5.146
   59SBC   C05N41458  12.119   9.121   5.266
   59SBC   C09U41459  11.988   9.326   5.604
   59SBC   C09V41460  11.934   9.399   5.712
   59SBC   C09X41461  11.918   9.350   5.835
   59SBC   C09Y41462  11.852   9.407   5.949
   59SBC   C0A141463  11.799   9.529   5.931
   59SBC   C0A241464  11.832   9.598   5.814
   59SBC   C0A441465  11.781   9.727   5.794
   59SBC   C07141466  11.812   9.796   5.674
   59SBC   C0A541467  11.786   9.930   5.668
   59SBC   C0A941468  11.720   9.986   5.780
   59SBC   C0A841469  11.685   9.913   5.887
   59SBC   C0AP41470  11.616   9.980   5.989
   59SBC   C0BY41471  11.587   9.906   6.097
   59SBC   C0BX41472  11.621   9.770   6.122
   59SBC   C0C241473  11.588   9.709   6.239
   59SBC   C0C341474  11.621   9.575   6.254
   59SBC   C0CT41475  11.695   9.514   6.149
   59SBC   C0C141476  11.531   9.777   6.346
   59SBC   C0C041477  11.494   9.918   6.328
   59SBC   C0A741478  11.691   9.713   6.013
   59SBC   C0BZ41479  11.522   9.973   6.202
   59SBC   C0BO41480  11.476  10.104   6.195
   59SBC   C0BN41481  11.503  10.174   6.081
   59SBC   C0BM41482  11.469  10.306   6.082
   59SBC   C0B941483  11.513  10.382   5.975
   59SBC   C0B841484  11.579  10.323   5.871
   59SBC   C0AD41485  11.612  10.186   5.876
   59SBC   C0AF41486  11.606  10.388   5.757
   59SBC   C0AG41487  11.586  10.528   5.751
   59SBC   C0B741488  11.517  10.590   5.861
   59SBC   C0AE41489  11.672  10.324   5.658
   59SBC   C0AB41490  11.709  10.189   5.658
   59SBC   C0AA41491  11.779  10.134   5.552
   59SBC   C0AJ41492  11.711  10.397   5.550
   59SBC   C0AK41493  11.774  10.341   5.437
   59SBC   C06W41494  11.778  10.431   5.346
   59SBC   C0AI41495  11.692  10.532   5.528
   59SBC   C0BP41496  11.413  10.145   6.308
   59SBC   C0BQ41497  11.388  10.288   6.320
   59SBC   C0BW41498  11.574  10.112   5.981
   59SBC   C0AC41499  11.680  10.118   5.769
   59SBC   C0A641500  11.714   9.782   5.896
   59SBC   C0A341501  11.724   9.583   6.033
   59SBC   C09Z41502  11.827   9.336   6.065
   59SBC   C09W41503  11.897   9.533   5.703
   59SBC   C07241504  11.919   9.601   5.587
   59SBC   C09H41505  11.974   9.226   5.849
   59SBC   C09G41506  11.959   9.160   5.969
   59SBC   C09P41507  11.998   9.025   5.948
   59SBC   C02O41508  12.070   8.873   5.608
   59SBC   C02M41509  12.114   8.901   5.377
   59SBC   C02F41510  12.203   8.781   5.133
   59SBC   C00W41511  12.216   8.584   4.997
   59SBC   C01R41512  12.117   8.311   4.996
   59SBC   C01N41513  12.144   8.482   5.322
   59SBC   C01L41514  11.997   8.427   5.507
   59SBC   C01H41515  11.813   8.128   5.579
   59SBC   C01K41516  11.983   8.161   5.247
   59SBC   C01E41517  11.855   7.929   5.196
   59SBC   C01G41518  11.742   8.001   5.553
   59SBC   C01D41519  11.789   7.813   5.167
   59SBC   C01A41520  11.679   7.554   5.138
   59SBC   H00141521  11.625   7.461   5.126
   59SBC   C01F41522  11.619   7.750   5.491
   59SBC   C03P41523  11.462   7.607   5.680
   59SBC   C03T41524  11.481   7.788   5.832
   59SBC   C08I41525  11.423   7.938   6.055
   59SBC   C08J41526  11.395   8.021   6.162
   59SBC   C08L41527  11.426   8.230   6.287
   59SBC   C09341528  11.456   8.449   6.406
   59SBC   C08Z41529  11.678   8.495   6.231
   59SBC   C09T41530  11.594   8.889   6.485
   59SBC   C09S41531  11.829   8.760   6.251
   59SBC   C09Q41532  11.960   8.933   6.052
   59SBC   C09F41533  11.885   9.208   6.079
   59SBC   C09E41534  11.709   9.058   6.362
   59SBC   C0A041535  11.743   9.384   6.161
   59SBC   C0CU41536  11.588   9.496   6.365
   59SBC   C0CR41537  11.533   9.570   6.472
   59SBC   C0CZ41538  11.503   9.497   6.591
   59SBC   C0DA41539  11.601   9.037   6.459
   59SBC   C0D941540  11.335   9.110   6.690
   59SBC   H00V41541  11.285   9.025   6.645
   59SBC   C0CY41542  11.518   9.358   6.592
   59SBC   C0DF41543  11.293   9.204   6.798
   59SBC   C0DE41544  11.184   9.251   6.886
   59SBC   C0GI41545  11.056   9.192   6.930
   59SBC   H01K41546  11.013   9.095   6.910
   59SBC   C0GJ41547  10.978   9.268   7.015
   59SBC   H01J41548  10.883   9.226   7.043
   59SBC   O00I41549  11.014   9.402   7.049
   59SBC   C0GH41550  11.119   9.464   6.997
   59SBC   C0GG41551  11.119   9.607   7.006
   59SBC   O00G41552  11.013   9.661   7.068
   59SBC   C0G841553  11.014   9.796   7.103
   59SBC   C0G941554  10.925   9.825   7.203
   59SBC   H01G41555  10.873   9.741   7.247
   59SBC   C0GA41556  10.917   9.959   7.248
   59SBC   H01H41557  10.856   9.985   7.333
   59SBC   C0GB41558  10.983  10.067   7.183
   59SBC   C0EP41559  11.056  10.035   7.068
   59SBC   C0E841560  11.099  10.138   6.969
   59SBC   C0CK41561  11.156  10.147   6.836
   59SBC   C0CL41562  11.257  10.057   6.810
   59SBC   C0E941563  11.265   9.924   6.867
   59SBC   C0GE41564  11.185   9.842   6.956
   59SBC   C0E741565  11.096  10.271   7.016
   59SBC   C0CJ41566  11.165  10.357   6.929
   59SBC   C0E641567  11.203  10.480   6.984
   59SBC   H00Y41568  11.271  10.557   6.950
   59SBC   C0EO41569  11.152  10.513   7.113
   59SBC   H01141570  11.179  10.608   7.156
   59SBC   C0G641571  11.070  10.430   7.191
   59SBC   C0G541572  11.010  10.457   7.321
   59SBC   H01F41573  11.018  10.560   7.353
   59SBC   C0GD41574  10.948  10.364   7.394
   59SBC   H01I41575  10.899  10.395   7.485
   59SBC   O00H41576  10.925  10.235   7.346
   59SBC   C0EQ41577  11.046  10.298   7.144
   59SBC   C0GC41578  10.987  10.200   7.225
   59SBC   C0G741579  11.088   9.897   7.035
   59SBC   C0DD41580  11.215   9.384   6.922
   59SBC   C0GF41581  11.216   9.698   6.953
   59SBC   C0CO41582  11.386   9.881   6.819
   59SBC   C0D041583  11.455   9.572   6.700
   59SBC   C0C441584  11.517   9.712   6.470
   59SBC   C0CN41585  11.453   9.975   6.741
   59SBC   C0CP41586  11.427  10.029   6.396
   59SBC   C0CM41587  11.381  10.095   6.743
   59SBC   C0CI41588  11.196  10.288   6.805
   59SBC   C0CD41589  11.192  10.678   6.518
   59SBC   C0BR41590  11.336  10.345   6.441
   59SBC   C0CS41591  11.425  10.363   6.201
   59SBC   C0B641592  11.486  10.518   5.975
   59SBC   C0CG41593  11.282  10.689   6.291
   59SBC   C0CF41594  11.220  10.753   6.399
   59SBC   C0E541595  11.088  10.881   6.607
   59SBC   C0DT41596  11.034  11.148   6.603
   59SBC   C0DL41597  11.207  11.103   6.278
   59SBC   C0DM41598  11.268  11.182   6.182
   59SBC   C0DY41599  11.182  11.378   6.288
   59SBC   C0DU41600  11.009  11.283   6.595
   59SBC   C0F041601  10.977  11.484   6.726
   59SBC   C0F441602  11.060  11.733   6.793
   59SBC   C0FG41603  11.130  11.708   6.431
   59SBC   O00B41604  11.211  11.907   6.721
   59SBC   C0FN41605  11.207  11.795   6.367
   59SBC   C0DZ41606  11.185  11.521   6.299
   59SBC   O00C41607  11.429  11.600   6.040
   59SBC   C0FR41608  11.493  11.561   5.936
   59SBC   O00D41609  11.565  11.647   5.882
   59SBC   C0E041610  11.269  11.320   6.197
   59SBC   C0E341611  11.475  11.421   5.905
   59SBC   C0AW41612  11.541  11.361   5.802
   59SBC   C0AV41613  11.627  11.426   5.707
   59SBC   H00Q41614  11.647  11.531   5.697
   59SBC   C0AU41615  11.703  11.351   5.615
   59SBC   H00R41616  11.782  11.403   5.562
   59SBC   C0AT41617  11.684  11.212   5.600
   59SBC   C0AS41618  11.733  11.106   5.513
   59SBC   C0AR41619  11.835  11.124   5.411
   59SBC   C0BE41620  11.595  11.156   5.693
   59SBC   C0DN41621  11.329  11.118   6.075
   59SBC   C0AX41622  11.529  11.223   5.788
   59SBC   C0BB41623  11.415  10.928   5.967
   59SBC   C0BD41624  11.600  11.016   5.677
   59SBC   C0B241625  11.499  10.728   5.860
   59SBC   C0AH41626  11.627  10.607   5.637
   59SBC   C0BF41627  11.678  10.976   5.567
   59SBC   C0AL41628  11.735  10.559   5.390
   59SBC   C07U41629  11.821  10.889   5.307
   59SBC   C0AQ41630  11.875  11.019   5.325
   59SBC   C0BG41631  11.923  11.241   5.378
   59SBC   C0FY41632  12.022  11.322   5.053
   59SBC   C0BJ41633  11.883  11.375   5.339
   59SBC   H00S41634  11.788  11.423   5.357
   59SBC   C0FZ41635  11.965  11.450   5.035
   59SBC   C07S41636  11.995  11.220   4.958
   59SBC   C0G141637  11.867  11.447   4.698
   59SBC   C07K41638  11.870  11.145   4.496
   59SBC   C07H41639  11.938  11.029   4.751
   59SBC   C06B41640  12.082  10.790   4.530
   59SBC   C06N41641  12.063  10.603   4.655
   59SBC   C06641642  11.947  10.849   4.938
   59SBC   C06241643  11.855  10.589   5.083
   59SBC   C05Y41644  12.045  10.382   4.804
   59SBC   C06141645  11.816  10.449   5.100
   59SBC   C05H41646  12.011  10.142   5.047
   59SBC   C06V41647  11.817  10.380   5.224
   59SBC   C06Y41648  11.807  10.201   5.439
   59SBC   C05C41649  11.984   9.950   5.228
   59SBC   C06Z41650  11.817  10.003   5.555
   59SBC   C07041651  11.884   9.736   5.571
   59SBC   C05B41652  12.013   9.812   5.239
   59SBC   C05741653  12.059   9.533   5.258
   59SBC   C05941654  11.973   9.532   5.480
   60SBC   C05841655  12.599  10.192  10.718
   60SBC   C05A41656  12.534  10.107  10.816
   60SBC   C06Q41657  12.548   9.970  10.812
   60SBC   C06R41658  12.491   9.892  10.911
   60SBC   C06S41659  12.415   9.946  11.016
   60SBC   C06T41660  12.367   9.851  11.115
   60SBC   C06U41661  12.307   9.879  11.244
   60SBC   C06X41662  12.260   9.998  11.303
   60SBC   C06041663  12.206   9.973  11.435
   60SBC   C05Z41664  12.090  10.024  11.505
   60SBC   C06841665  12.035   9.904  11.580
   60SBC   C06741666  11.915   9.890  11.663
   60SBC   C06941667  11.826  10.009  11.678
   60SBC   C06A41668  11.692   9.996  11.729
   60SBC   C07341669  11.606   9.884  11.726
   60SBC   C07P41670  11.474   9.905  11.673
   60SBC   C07O41671  11.436  10.028  11.602
   60SBC   H00D41672  11.505  10.106  11.572
   60SBC   C07N41673  11.304  10.054  11.562
   60SBC   H00E41674  11.276  10.141  11.505
   60SBC   C07M41675  11.205   9.973  11.622
   60SBC   H00F41676  11.103   9.993  11.592
   60SBC   C07L41677  11.238   9.845  11.672
   60SBC   C07Q41678  11.138   9.746  11.701
   60SBC   H00G41679  11.039   9.785  11.684
   60SBC   O00F41680  11.168   9.622  11.755
   60SBC   C07J41681  11.302   9.602  11.800
   60SBC   C07I41682  11.404   9.696  11.770
   60SBC   N00441683  11.536   9.675  11.831
   60SBC   C07R41684  11.564   9.553  11.906
   60SBC   C07T41685  11.460   9.453  11.911
   60SBC   C0FX41686  11.484   9.332  11.966
   60SBC   C0FW41687  11.400   9.225  11.959
   60SBC   C0G041688  11.274   9.249  11.901
   60SBC   C0G241689  11.182   9.145  11.882
   60SBC   H01E41690  11.091   9.172  11.831
   60SBC   C0G341691  11.214   9.017  11.927
   60SBC   H01C41692  11.158   8.926  11.910
   60SBC   C0G441693  11.338   8.992  11.987
   60SBC   H01D41694  11.363   8.893  12.022
   60SBC   O00E41695  11.238   9.378  11.861
   60SBC   C0FV41696  11.438   9.094  11.991
   60SBC   C0FU41697  11.571   9.074  12.029
   60SBC   H01B41698  11.609   8.976  12.053
   60SBC   C0FT41699  11.658   9.185  12.045
   60SBC   C0FS41700  11.801   9.205  12.052
   60SBC   C0BI41701  11.828   9.345  12.070
   60SBC   C0BH41702  11.959   9.368  12.022
   60SBC   C07F41703  11.991   9.455  11.911
   60SBC   C07E41704  11.928   9.572  11.867
   60SBC   C07G41705  11.799   9.611  11.895
   60SBC   C07441706  11.773   9.725  11.819
   60SBC   C06541707  11.981   9.655  11.771
   60SBC   C06441708  12.076   9.589  11.691
   60SBC   C06341709  12.129   9.639  11.575
   60SBC   C07541710  12.198   9.521  11.510
   60SBC   C0AM41711  12.204   9.408  11.599
   60SBC   C0AN41712  12.278   9.279  11.583
   60SBC   C0AO41713  12.370   9.233  11.468
   60SBC   C0B141714  12.435   9.105  11.472
   60SBC   C0B041715  12.428   9.022  11.585
   60SBC   C0AZ41716  12.492   8.902  11.604
   60SBC   C0AY41717  12.485   8.837  11.728
   60SBC   N00741718  12.547   8.715  11.744
   60SBC   C0E241719  12.533   8.642  11.867
   60SBC   C0E141720  12.605   8.526  11.877
   60SBC   C0E441721  12.599   8.456  11.998
   60SBC   C0FF41722  12.666   8.336  12.024
   60SBC   C0FJ41723  12.662   8.241  12.130
   60SBC   C0FK41724  12.536   8.205  12.192
   60SBC   H01641725  12.451   8.272  12.188
   60SBC   C0FL41726  12.554   8.065  12.231
   60SBC   H01741727  12.478   7.998  12.268
   60SBC   C0FM41728  12.689   8.027  12.206
   60SBC   C0FH41729  12.753   7.910  12.141
   60SBC   C0FI41730  12.842   7.972  12.047
   60SBC   C0F341731  12.882   7.906  11.930
   60SBC   C0F241732  12.921   7.987  11.825
   60SBC   C0DW41733  12.887   8.116  11.819
   60SBC   C0FE41734  12.831   8.180  11.927
   60SBC   C0DV41735  12.880   8.182  11.698
   60SBC   C0DX41736  12.811   8.300  11.681
   60SBC   C0DK41737  12.796   8.360  11.556
   60SBC   C0DJ41738  12.850   8.294  11.445
   60SBC   C0DI41739  12.844   8.354  11.320
   60SBC   C0DH41740  12.795   8.486  11.307
   60SBC   C0DG41741  12.744   8.549  11.420
   60SBC   C0BV41742  12.695   8.677  11.411
   60SBC   C0BC41743  12.627   8.737  11.519
   60SBC   C0BA41744  12.708   8.750  11.288
   60SBC   C0B441745  12.650   8.871  11.274
   60SBC   C0B341746  12.579   8.929  11.380
   60SBC   C0B541747  12.669   8.943  11.159
   60SBC   C0BU41748  12.754   8.890  11.057
   60SBC   C0BT41749  12.796   8.755  11.064
   60SBC   C0BS41750  12.879   8.698  10.967
   60SBC   C0CC41751  12.910   8.562  10.972
   60SBC   C0CB41752  12.975   8.499  10.863
   60SBC   C0CH41753  12.954   8.359  10.855
   60SBC   C0DO41754  12.926   8.285  10.972
   60SBC   C0DP41755  12.946   8.146  10.981
   60SBC   C0EA41756  12.978   8.067  10.860
   60SBC   H01241757  12.989   8.108  10.761
   60SBC   O00941758  12.993   7.931  10.868
   60SBC   C0EH41759  12.990   7.872  10.989
   60SBC   C0EG41760  13.003   7.738  10.989
   60SBC   C0EJ41761  13.033   7.634  10.893
   60SBC   H01041762  13.050   7.644  10.787
   60SBC   C0EK41763  13.031   7.502  10.955
   60SBC   H00Z41764  13.057   7.406  10.913
   60SBC   C0EL41765  13.001   7.531  11.091
   60SBC   C0EM41766  12.976   7.440  11.199
   60SBC   C0EW41767  12.976   7.296  11.193
   60SBC   H01341768  13.002   7.239  11.105
   60SBC   C0EX41769  12.957   7.219  11.309
   60SBC   H01441770  12.957   7.111  11.302
   60SBC   C0F141771  12.943   7.292  11.437
   60SBC   C0EU41772  12.937   7.435  11.438
   60SBC   C0ET41773  12.902   7.524  11.543
   60SBC   C0ES41774  12.905   7.656  11.486
   60SBC   C0EE41775  12.932   7.643  11.344
   60SBC   C0ED41776  12.965   7.729  11.233
   60SBC   C0EC41777  12.961   7.871  11.234
   60SBC   C0EB41778  12.945   7.950  11.351
   60SBC   C0EN41779  12.952   7.896  11.485
   60SBC   C0ER41780  12.966   7.982  11.589
   60SBC   C0DS41781  12.924   8.088  11.342
   60SBC   C0DR41782  12.920   8.150  11.218
   60SBC   C0EY41783  12.942   7.767  11.554
   60SBC   C0EZ41784  12.923   7.779  11.692
   60SBC   C0F541785  12.874   7.696  11.805
   60SBC   C0F641786  12.860   7.552  11.788
   60SBC   N00841787  12.825   7.485  11.910
   60SBC   C0F741788  12.791   7.560  12.031
   60SBC   C0FQ41789  12.745   7.493  12.144
   60SBC   H01841790  12.732   7.550  12.235
   60SBC   C0FP41791  12.742   7.356  12.150
   60SBC   H01941792  12.718   7.301  12.240
   60SBC   C0FO41793  12.771   7.284  12.037
   60SBC   H01A41794  12.771   7.177  12.050
   60SBC   C0F841795  12.796   7.702  12.026
   60SBC   C0F941796  12.806   7.345  11.911
   60SBC   C0FA41797  12.847   7.265  11.800
   60SBC   H01541798  12.847   7.157  11.803
   60SBC   C0FB41799  12.884   7.326  11.677
   60SBC   C0FD41800  12.883   7.467  11.673
   60SBC   C0FC41801  12.919   7.235  11.568
   60SBC   O00A41802  12.921   7.114  11.584
   60SBC   C0EV41803  12.947   7.504  11.321
   60SBC   C0EF41804  12.988   7.668  11.108
   60SBC   C0EI41805  12.969   7.942  11.111
   60SBC   C0DQ41806  12.941   8.079  11.104
   60SBC   C0CE41807  12.899   8.355  11.086
   60SBC   H00U41808  12.977   8.304  10.765
   60SBC   C0CA41809  13.061   8.583  10.780
   60SBC   C0C941810  13.035   8.725  10.771
   60SBC   C0C841811  13.121   8.803  10.690
   60SBC   C0C741812  13.112   8.933  10.629
   60SBC   C0C641813  13.227   8.982  10.566
   60SBC   C0C541814  13.257   9.075  10.453
   60SBC   C0CQ41815  13.366   9.041  10.371
   60SBC   C0D141816  13.421   8.911  10.368
   60SBC   C0D841817  13.429   8.865  10.238
   60SBC   C0D741818  13.438   8.982  10.158
   60SBC   C0D641819  13.463   8.985  10.024
   60SBC   C0D541820  13.472   9.106   9.952
   60SBC   C0D441821  13.458   9.247   9.996
   60SBC   C0D341822  13.432   9.321   9.879
   60SBC   C0CX41823  13.349   9.434   9.918
   60SBC   C0CW41824  13.289   9.406  10.045
   60SBC   C0CV41825  13.195   9.466  10.139
   60SBC   C0D241826  13.137   9.596  10.111
   60SBC   C09D41827  13.170   9.684  10.006
   60SBC   C09C41828  13.103   9.813   9.996
   60SBC   C09B41829  13.152   9.920   9.919
   60SBC   C09A41830  13.247   9.886   9.818
   60SBC   C09941831  13.278   9.754   9.789
   60SBC   C09841832  13.404   9.749   9.727
   60SBC   C08Y41833  13.455   9.885   9.725
   60SBC   C08X41834  13.584   9.937   9.686
   60SBC   C08W41835  13.695   9.846   9.651
   60SBC   C08U41836  13.700   9.702   9.670
   60SBC   C08V41837  13.601   9.606   9.726
   60SBC   C0DC41838  13.654   9.479   9.691
   60SBC   H00W41839  13.602   9.389   9.723
   60SBC   C0DB41840  13.779   9.485   9.623
   60SBC   H00X41841  13.830   9.400   9.579
   60SBC   C08T41842  13.803   9.626   9.615
   60SBC   C08S41843  13.908   9.682   9.552
   60SBC   H00N41844  13.994   9.622   9.527
   60SBC   C08R41845  13.927   9.819   9.553
   60SBC   C08Q41846  14.050   9.879   9.522
   60SBC   H00O41847  14.125   9.815   9.479
   60SBC   C08P41848  14.081  10.016   9.537
   60SBC   C08O41849  14.213  10.077   9.525
   60SBC   H00P41850  14.297  10.015   9.497
   60SBC   C08N41851  14.236  10.210   9.556
   60SBC   C08M41852  14.374  10.261   9.548
   60SBC   O00841853  14.467  10.190   9.507
   60SBC   O00741854  14.392  10.391   9.580
   60SBC   C08H41855  14.287  10.477   9.627
   60SBC   C08G41856  14.308  10.598   9.690
   60SBC   C03V41857  14.438  10.653   9.718
   60SBC   H00941858  14.526  10.598   9.687
   60SBC   C03U41859  14.458  10.770   9.796
   60SBC   C03W41860  14.586  10.830   9.825
   60SBC   H00A41861  14.676  10.795   9.776
   60SBC   C03X41862  14.588  10.943   9.893
   60SBC   H00B41863  14.680  10.993   9.920
   60SBC   O00541864  14.480  11.003   9.953
   60SBC   C03O41865  14.357  10.947   9.925
   60SBC   C03N41866  14.245  11.011   9.979
   60SBC   O00041867  14.271  11.120  10.043
   60SBC   C01941868  14.165  11.181  10.105
   60SBC   C01841869  14.033  11.129  10.091
   60SBC   C01741870  14.009  11.014  10.014
   60SBC   C01641871  13.883  10.971   9.990
   60SBC   C01541872  13.779  11.052  10.049
   60SBC   C01441873  13.649  11.006  10.038
   60SBC   C01341874  13.612  10.881   9.979
   60SBC   C01241875  13.477  10.859  10.029
   60SBC   C01141876  13.440  10.980  10.087
   60SBC   C01041877  13.310  11.009  10.124
   60SBC   C00Z41878  13.258  11.109  10.200
   60SBC   C00Y41879  13.128  11.063  10.233
   60SBC   C01O41880  13.099  10.939  10.176
   60SBC   C01P41881  13.029  10.850  10.259
   60SBC   C02L41882  13.044  10.718  10.228
   60SBC   C02K41883  13.151  10.684  10.137
   60SBC   C01M41884  13.257  10.771  10.090
   60SBC   C02J41885  13.155  10.547  10.110
   60SBC   C02I41886  13.228  10.486  10.015
   60SBC   C02H41887  13.340  10.524   9.949
   60SBC   C01Q41888  13.420  10.636   9.963
   60SBC   C02G41889  13.537  10.622   9.885
   60SBC   C08941890  13.516  10.513   9.801
   60SBC   C08841891  13.632  10.457   9.758
   60SBC   C08741892  13.729  10.561   9.787
   60SBC   C08641893  13.861  10.564   9.748
   60SBC   C03S41894  13.957  10.671   9.774
   60SBC   N00641895  14.074  10.626   9.718
   60SBC   C08F41896  14.057  10.509   9.657
   60SBC   C01J41897  13.967  10.785   9.858
   60SBC   C03R41898  14.095  10.844   9.873
   60SBC   C03Q41899  14.209  10.785   9.817
   60SBC   C08E41900  13.937  10.459   9.688
   60SBC   C08D41901  13.899  10.319   9.658
   60SBC   C08K41902  14.000  10.235   9.606
   60SBC   C08C41903  13.771  10.263   9.683
   60SBC   C09141904  13.750  10.125   9.666
   60SBC   C09241905  13.856  10.038   9.619
   60SBC   C08B41906  13.650  10.316   9.722
   60SBC   C09041907  13.552  10.204   9.722
   60SBC   C09441908  13.411  10.210   9.756
   60SBC   C09541909  13.330  10.102   9.792
   60SBC   C09R41910  13.221  10.144   9.870
   60SBC   C09741911  13.236  10.278   9.894
   60SBC   C09641912  13.352  10.318   9.824
   60SBC   C01I41913  13.667  10.677   9.856
   60SBC   C08A41914  13.398  10.447   9.848
   60SBC   C09L41915  13.174  10.362   9.995
   60SBC   C09K41916  13.077  10.332  10.095
   60SBC   C09J41917  13.001  10.218  10.101
   60SBC   C09I41918  12.931  10.184  10.221
   60SBC   C09O41919  12.879  10.255  10.341
   60SBC   C09N41920  12.888  10.398  10.355
   60SBC   C09M41921  12.969  10.484  10.278
   60SBC   C06O41922  12.800  10.450  10.449
   60SBC   C05M41923  12.721  10.364  10.534
   60SBC   C06P41924  12.728  10.223  10.522
   60SBC   C04241925  12.650  10.418  10.632
   60SBC   C04141926  12.643  10.556  10.655
   60SBC   C04041927  12.570  10.605  10.766
   60SBC   C03Z41928  12.565  10.740  10.790
   60SBC   C03Y41929  12.646  10.825  10.716
   60SBC   C02741930  12.655  10.961  10.747
   60SBC   C02641931  12.730  11.046  10.668
   60SBC   C02841932  12.748  11.181  10.710
   60SBC   C02941933  12.674  11.236  10.813
   60SBC   C02B41934  12.695  11.366  10.859
   60SBC   C02C41935  12.630  11.409  10.972
   60SBC   C02X41936  12.668  11.533  11.027
   60SBC   C03E41937  12.608  11.564  11.147
   60SBC   C03G41938  12.517  11.489  11.214
   60SBC   C04Q41939  12.486  11.370  11.158
   60SBC   C04R41940  12.399  11.286  11.232
   60SBC   C04S41941  12.378  11.156  11.192
   60SBC   C04L41942  12.444  11.108  11.080
   60SBC   C04M41943  12.523  11.195  11.004
   60SBC   C04K41944  12.437  10.977  11.045
   60SBC   C04F41945  12.352  10.895  11.118
   60SBC   C04E41946  12.279  10.944  11.225
   60SBC   C04D41947  12.202  10.859  11.304
   60SBC   C05041948  12.142  10.906  11.418
   60SBC   C05141949  12.062  10.820  11.492
   60SBC   C05Q41950  11.993  10.868  11.598
   60SBC   C05V41951  11.915  10.780  11.671
   60SBC   N00541952  11.828  10.831  11.764
   60SBC   C07V41953  11.835  10.965  11.792
   60SBC   C08241954  11.752  11.018  11.890
   60SBC   C08141955  11.646  10.941  11.946
   60SBC   C07C41956  11.644  10.800  11.920
   60SBC   C07B41957  11.552  10.718  11.986
   60SBC   C08041958  11.456  10.776  12.076
   60SBC   C07Z41959  11.366  10.684  12.127
   60SBC   H00L41960  11.301  10.725  12.202
   60SBC   C07941961  11.351  10.549  12.093
   60SBC   C07841962  11.450  10.497  12.010
   60SBC   C07741963  11.448  10.365  11.968
   60SBC   C07X41964  11.342  10.283  12.014
   60SBC   H00I41965  11.325  10.183  11.975
   60SBC   C07Y41966  11.250  10.324  12.106
   60SBC   H00H41967  11.172  10.260  12.145
   60SBC   C07641968  11.546  10.309  11.894
   60SBC   C06C41969  11.552  10.174  11.859
   60SBC   H00C41970  11.486  10.097  11.898
   60SBC   C06F41971  11.644  10.394  11.842
   60SBC   C06E41972  11.749  10.348  11.760
   60SBC   C06G41973  11.846  10.422  11.694
   60SBC   C06H41974  11.836  10.559  11.718
   60SBC   C06I41975  11.741  10.611  11.807
   60SBC   C06L41976  11.942  10.364  11.607
   60SBC   C06M41977  11.951  10.224  11.582
   60SBC   C06K41978  12.020  10.452  11.531
   60SBC   C05S41979  12.009  10.592  11.551
   60SBC   C05U41980  12.102  10.400  11.429
   60SBC   C05X41981  12.117  10.260  11.414
   60SBC   C05G41982  12.195  10.233  11.295
   60SBC   C05F41983  12.226  10.331  11.210
   60SBC   C05E41984  12.291  10.281  11.099
   60SBC   C04841985  12.359  10.367  11.011
   60SBC   C05641986  12.437  10.304  10.919
   60SBC   C04541987  12.506  10.386  10.826
   60SBC   C04741988  12.344  10.500  11.031
   60SBC   C04941989  12.276  10.548  11.139
   60SBC   C04B41990  12.273  10.682  11.163
   60SBC   C04641991  12.420  10.580  10.949
   60SBC   C04H41992  12.423  10.717  10.978
   60SBC   C05D41993  12.305  10.146  11.104
   60SBC   C04A41994  12.213  10.463  11.231
   60SBC   C05T41995  12.155  10.499  11.348
   60SBC   C05541996  12.148  10.632  11.367
   60SBC   C06D41997  11.752  10.216  11.733
   60SBC   C07W41998  11.642  10.528  11.867
   60SBC   C08541999  11.253  10.458  12.147
   60SBC   H00M42000  11.179  10.492  12.218
   60SBC   C08442001  11.455  10.912  12.101
   60SBC   H00J42002  11.390  10.954  12.177
   60SBC   C07A42003  11.548  10.582  11.958
   60SBC   C08342004  11.554  10.994  12.038
   60SBC   H00K42005  11.545  11.101  12.052
   60SBC   O00K42006  11.765  11.151  11.934
   60SBC   C0GO42007  11.863  11.227  11.887
   60SBC   C0GN42008  11.884  11.354  11.927
   60SBC   H01L42009  11.833  11.397  12.013
   60SBC   C0GM42010  11.967  11.447  11.860
   60SBC   C0GL42011  11.971  11.573  11.892
   60SBC   H01M42012  11.901  11.620  11.959
   60SBC   O00J42013  12.064  11.661  11.839
   60SBC   C0GK42014  12.134  11.612  11.736
   60SBC   H01N42015  12.207  11.679  11.692
   60SBC   C05K42016  12.134  11.482  11.696
   60SBC   C05J42017  12.215  11.431  11.591
   60SBC   C04Y42018  12.328  11.496  11.535
   60SBC   C04X42019  12.383  11.450  11.412
   60SBC   O00642020  12.385  11.595  11.599
   60SBC   C05342021  12.504  11.649  11.556
   60SBC   C04O42022  12.546  11.632  11.424
   60SBC   C03C42023  12.649  11.700  11.346
   60SBC   C03B42024  12.755  11.788  11.381
   60SBC   C05442025  12.786  11.810  11.518
   60SBC   C0GR42026  12.902  11.895  11.552
   60SBC   C03M42027  13.010  11.961  11.481
   60SBC   C03I42028  13.048  11.938  11.343
   60SBC   C03J42029  13.168  11.992  11.300
   60SBC   N00242030  13.228  11.955  11.176
   60SBC   C02U42031  13.357  11.997  11.135
   60SBC   C02T42032  13.420  11.954  11.019
   60SBC   C02Z42033  13.548  11.996  10.990
   60SBC   N00142034  13.611  11.945  10.876
   60SBC   C02R42035  13.741  11.986  10.850
   60SBC   C03242036  13.808  12.069  10.940
   60SBC   C03142037  13.747  12.118  11.054
   60SBC   H00742038  13.801  12.190  11.114
   60SBC   C03342039  13.936  12.106  10.901
   60SBC   H00342040  13.986  12.180  10.962
   60SBC   O00442041  14.003  12.066  10.791
   60SBC   C03442042  13.924  11.990  10.704
   60SBC   C03542043  13.991  11.955  10.582
   60SBC   C03642044  13.927  11.877  10.489
   60SBC   H00542045  13.976  11.844  10.399
   60SBC   C03742046  13.796  11.834  10.512
   60SBC   H00642047  13.749  11.771  10.437
   60SBC   C00D42048  13.731  11.854  10.637
   60SBC   C00C42049  13.606  11.812  10.671
   60SBC   C00B42050  13.533  11.721  10.583
   60SBC   C00A42051  13.549  11.632  10.467
   60SBC   C00942052  13.412  11.586  10.437
   60SBC   C00842053  13.382  11.459  10.377
   60SBC   C00742054  13.482  11.390  10.312
   60SBC   C00642055  13.449  11.275  10.241
   60SBC   C00542056  13.557  11.201  10.177
   60SBC   C00442057  13.691  11.236  10.194
   60SBC   C00342058  13.720  11.340  10.284
   60SBC   C00242059  13.848  11.373  10.312
   60SBC   C01C42060  13.952  11.303  10.244
   60SBC   C01B42061  14.083  11.358  10.250
   60SBC   H00042062  14.105  11.455  10.292
   60SBC   C00142063  13.869  11.449  10.425
   60SBC   C00042064  13.768  11.526  10.483
   60SBC   C01U42065  13.814  11.551  10.614
   60SBC   H00242066  13.770  11.598  10.701
   60SBC   C01T42067  13.956  11.501  10.618
   60SBC   O00242068  14.034  11.512  10.708
   60SBC   O00142069  13.986  11.438  10.501
   60SBC   C01S42070  13.617  11.420  10.332
   60SBC   C00N42071  13.251  11.414  10.396
   60SBC   C00M42072  13.164  11.477  10.488
   60SBC   C00J42073  13.202  11.588  10.557
   60SBC   C00I42074  13.140  11.638  10.667
   60SBC   C00H42075  13.204  11.728  10.750
   60SBC   C00G42076  13.332  11.768  10.728
   60SBC   C00F42077  13.405  11.844  10.811
   60SBC   C01X42078  13.144  11.769  10.868
   60SBC   C01W42079  13.016  11.718  10.899
   60SBC   C01V42080  12.959  11.617  10.820
   60SBC   C02042081  12.843  11.553  10.865
   60SBC   C01Z42082  12.959  11.757  11.020
   60SBC   C02Y42083  12.837  11.703  11.043
   60SBC   C03942084  12.775  11.743  11.165
   60SBC   C02W42085  13.029  11.831  11.119
   60SBC   C01Y42086  13.216  11.843  10.959
   60SBC   C00U42087  13.024  11.577  10.708
   60SBC   C00S42088  12.981  11.464  10.650
   60SBC   C00T42089  12.870  11.391  10.695
   60SBC   C00R42090  13.047  11.417  10.532
   60SBC   C00Q42091  13.013  11.292  10.479
   60SBC   C00V42092  12.913  11.211  10.535
   60SBC   C02442093  12.889  11.081  10.494
   60SBC   C00X42094  12.960  11.035  10.391
   60SBC   C00P42095  13.093  11.238  10.381
   60SBC   C00O42096  13.218  11.293  10.340
   60SBC   C00K42097  13.326  11.644  10.522
   60SBC   N00042098  13.641  11.523  10.437
   60SBC   C00L42099  13.397  11.721  10.613
   60SBC   H00442100  14.096  11.979  10.570
   60SBC   C02Q42101  13.793  11.941  10.731
   60SBC   C00E42102  13.539  11.866  10.782
   60SBC   C03042103  13.614  12.081  11.082
   60SBC   O00342104  13.551  12.134  11.187
   60SBC   C02S42105  13.345  11.881  10.930
   60SBC   C03842106  13.428  12.093  11.208
   60SBC   C03L42107  13.365  12.139  11.326
   60SBC   H00842108  13.428  12.197  11.392
   60SBC   C02V42109  13.159  11.870  11.086
   60SBC   C03K42110  13.248  12.079  11.377
   60SBC   C0BK42111  13.196  12.106  11.504
   60SBC   H00T42112  13.247  12.175  11.569
   60SBC   C03H42113  12.981  11.864  11.248
   60SBC   C0BL42114  13.092  12.042  11.569
   60SBC   C0GU42115  13.067  12.062  11.707
   60SBC   H01O42116  13.131  12.123  11.768
   60SBC   C0GT42117  12.958  12.002  11.769
   60SBC   H01P42118  12.948  12.003  11.877
   60SBC   C0GS42119  12.876  11.921  11.688
   60SBC   C0GV42120  12.766  11.841  11.737
   60SBC   C0GW42121  12.722  11.836  11.872
   60SBC   H01Q42122  12.775  11.891  11.949
   60SBC   C0GX42123  12.604  11.767  11.891
   60SBC   H01R42124  12.569  11.759  11.992
   60SBC   O00L42125  12.541  11.696  11.790
   60SBC   C0GQ42126  12.705  11.776  11.632
   60SBC   C03A42127  12.846  11.812  11.268
   60SBC   C05L42128  12.581  11.705  11.655
   60SBC   C04W42129  12.184  11.305  11.532
   60SBC   C05I42130  12.092  11.225  11.593
   60SBC   C05O42131  12.023  11.265  11.708
   60SBC   C05242132  12.077  11.089  11.555
   60SBC   C04V42133  12.253  11.254  11.419
   60SBC   C04U42134  12.230  11.122  11.375
   60SBC   N00942135  12.043  11.398  11.758
   60SBC   C0GP42136  11.936  11.182  11.774
   60SBC   C05W42137  11.924  11.052  11.731
   60SBC   C07D42138  11.735  10.748  11.829
   60SBC   C06J42139  11.921  10.641  11.648
   60SBC   C05P42140  11.997  11.005  11.627
   60SBC   C05R42141  12.079  10.682  11.476
   60SBC   C04Z42142  12.145  11.042  11.449
   60SBC   C04C42143  12.201  10.726  11.277
   60SBC   C04G42144  12.353  10.763  11.088
   60SBC   C04J42145  12.504  10.927  10.930
   60SBC   C04T42146  12.293  11.072  11.268
   60SBC   N00342147  12.338  11.335  11.348
   60SBC   C04P42148  12.484  11.525  11.346
   60SBC   C03D42149  12.655  11.684  11.208
   60SBC   C02142150  12.775  11.603  10.973
   60SBC   C03F42151  12.549  11.324  11.045
   60SBC   C02242152  12.799  11.439  10.804
   60SBC   C02A42153  12.591  11.147  10.886
   60SBC   C02342154  12.841  11.264  10.643
   60SBC   C02542155  12.800  10.998  10.561
   60SBC   C02D42156  12.794  10.861  10.526
   60SBC   C02E42157  12.869  10.812  10.420
   60SBC   C02N42158  12.875  10.673  10.395
   60SBC   C04N42159  12.583  11.012  10.854
   60SBC   C02P42160  12.718  10.775  10.601
   60SBC   C04I42161  12.492  10.794  10.896
   60SBC   C04442162  12.501  10.525  10.847
   60SBC   C04342163  12.717  10.638  10.575
   60SBC   C05N42164  12.799  10.586  10.474
   60SBC   C09U42165  12.809  10.167  10.422
   60SBC   C09V42166  12.827  10.028  10.422
   60SBC   C09X42167  12.894   9.963  10.328
   60SBC   C09Y42168  12.926   9.831  10.315
   60SBC   C0A142169  12.880   9.756  10.416
   60SBC   C0A242170  12.797   9.809  10.517
   60SBC   C0A442171  12.744   9.728  10.613
   60SBC   C07142172  12.656   9.780  10.711
   60SBC   C0A542173  12.609   9.703  10.809
   60SBC   C0A942174  12.647   9.569  10.809
   60SBC   C0A842175  12.728   9.517  10.708
   60SBC   C0AP42176  12.759   9.382  10.714
   60SBC   C0BY42177  12.837   9.333  10.614
   60SBC   C0BX42178  12.899   9.406  10.514
   60SBC   C0C242179  13.002   9.352  10.433
   60SBC   C0C342180  13.057   9.432  10.332
   60SBC   C0CT42181  13.007   9.566  10.320
   60SBC   C0C142182  13.057   9.225  10.457
   60SBC   C0C042183  12.987   9.140  10.561
   60SBC   C0A742184  12.860   9.540  10.508
   60SBC   C0BZ42185  12.872   9.195  10.621
   60SBC   C0BO42186  12.827   9.118  10.723
   60SBC   C0BN42187  12.752   9.168  10.830
   60SBC   C0BM42188  12.735   9.093  10.942
   60SBC   C0B942189  12.652   9.148  11.041
   60SBC   C0B842190  12.606   9.275  11.033
   60SBC   C0AD42191  12.637   9.356  10.926
   60SBC   C0AF42192  12.525   9.324  11.135
   60SBC   C0AG42193  12.480   9.253  11.244
   60SBC   C0B742194  12.536   9.124  11.254
   60SBC   C0AE42195  12.474   9.450  11.107
   60SBC   C0AB42196  12.514   9.534  11.009
   60SBC   C0AA42197  12.476   9.667  11.004
   60SBC   C0AJ42198  12.396   9.500  11.201
   60SBC   C0AK42199  12.352   9.630  11.197
   60SBC   C06W42200  12.293   9.652  11.318
   60SBC   C0AI42201  12.347   9.434  11.319
   60SBC   C0BP42202  12.906   8.999  10.735
   60SBC   C0BQ42203  12.884   8.915  10.853
   60SBC   C0BW42204  12.722   9.303  10.823
   60SBC   C0AC42205  12.600   9.488  10.915
   60SBC   C0A642206  12.777   9.595  10.607
   60SBC   C0A342207  12.917   9.622  10.415
   60SBC   C09Z42208  13.002   9.780  10.212
   60SBC   C09W42209  12.764   9.941  10.517
   60SBC   C07242210  12.677  10.000  10.611
   60SBC   C09H42211  12.924  10.043  10.222
   60SBC   C09G42212  12.982   9.988  10.109
   60SBC   C09P42213  13.038  10.092  10.041
   60SBC   C02O42214  13.066  10.447  10.174
   60SBC   C02M42215  12.971  10.621  10.305
   60SBC   C02F42216  12.952  10.904  10.357
   60SBC   C00W42217  13.055  11.119  10.335
   60SBC   C01R42218  13.313  11.227  10.261
   60SBC   C01N42219  13.219  10.900  10.124
   60SBC   C01L42220  13.386  10.746  10.036
   60SBC   C01H42221  13.716  10.803   9.917
   60SBC   C01K42222  13.547  11.071  10.109
   60SBC   C01E42223  13.799  11.163  10.131
   60SBC   C01G42224  13.854  10.849   9.919
   60SBC   C01D42225  13.927  11.195  10.159
   60SBC   C01A42226  14.196  11.295  10.183
   60SBC   H00142227  14.293  11.337  10.203
   60SBC   C01F42228  14.117  10.957   9.953
   60SBC   C03P42229  14.341  10.834   9.845
   60SBC   C03T42230  14.199  10.673   9.739
   60SBC   C08I42231  14.157  10.425   9.615
   60SBC   C08J42232  14.129  10.289   9.584
   60SBC   C08L42233  13.978  10.092   9.587
   60SBC   C09342234  13.821   9.899   9.606
   60SBC   C08Z42235  13.617  10.080   9.693
   60SBC   C09T42236  13.470   9.638   9.780
   60SBC   C09S42237  13.347   9.971   9.769
   60SBC   C09Q42238  13.128  10.061   9.935
   60SBC   C09F42239  13.026   9.857  10.102
   60SBC   C09E42240  13.267   9.663   9.900
   60SBC   C0A042241  13.046   9.646  10.212
   60SBC   C0CU42242  13.156   9.385  10.250
   60SBC   C0CR42243  13.223   9.263  10.284
   60SBC   C0CZ42244  13.322   9.214  10.202
   60SBC   C0DA42245  13.369   9.570   9.869
   60SBC   C0D942246  13.393   9.234   9.774
   60SBC   H00V42247  13.314   9.257   9.705
   60SBC   C0CY42248  13.359   9.289  10.089
   60SBC   C0DF42249  13.427   9.098   9.818
   60SBC   C0DE42250  13.415   8.954   9.800
   60SBC   C0GI42251  13.397   8.868   9.687
   60SBC   H01K42252  13.398   8.910   9.588
   60SBC   C0GJ42253  13.382   8.736   9.710
   60SBC   H01J42254  13.381   8.669   9.626
   60SBC   O00I42255  13.380   8.671   9.832
   60SBC   C0GH42256  13.423   8.747   9.944
   60SBC   C0GG42257  13.418   8.670  10.069
   60SBC   O00G42258  13.402   8.536  10.053
   60SBC   C0G842259  13.404   8.453  10.165
   60SBC   C0G942260  13.436   8.320  10.134
   60SBC   H01G42261  13.459   8.284  10.035
   60SBC   C0GA42262  13.458   8.235  10.245
   60SBC   H01H42263  13.486   8.133  10.223
   60SBC   C0GB42264  13.416   8.272  10.378
   60SBC   C0EP42265  13.356   8.401  10.394
   60SBC   C0E842266  13.279   8.425  10.514
   60SBC   C0CK42267  13.207   8.533  10.564
   60SBC   C0CL42268  13.278   8.651  10.556
   60SBC   C0E942269  13.352   8.700  10.444
   60SBC   C0GE42270  13.375   8.637  10.312
   60SBC   C0E742271  13.290   8.340  10.624
   60SBC   C0CJ42272  13.231   8.392  10.743
   60SBC   C0E642273  13.239   8.310  10.858
   60SBC   H00Y42274  13.187   8.328  10.951
   60SBC   C0EO42275  13.309   8.188  10.846
   60SBC   H01142276  13.314   8.123  10.932
   60SBC   C0G642277  13.369   8.143  10.722
   60SBC   C0G542278  13.437   8.017  10.711
   60SBC   H01F42279  13.444   7.956  10.799
   60SBC   C0GD42280  13.492   7.983  10.592
   60SBC   H01I42281  13.545   7.889  10.587
   60SBC   O00H42282  13.491   8.061  10.479
   60SBC   C0EQ42283  13.367   8.225  10.611
   60SBC   C0GC42284  13.429   8.183  10.492
   60SBC   C0G742285  13.367   8.496  10.292
   60SBC   C0DD42286  13.439   8.886   9.926
   60SBC   C0GF42287  13.414   8.726  10.202
   60SBC   C0CO42288  13.382   8.831  10.473
   60SBC   C0D042289  13.379   9.085  10.236
   60SBC   C0C442290  13.175   9.185  10.400
   60SBC   C0CN42291  13.322   8.877  10.593
   60SBC   C0CP42292  12.999   9.011  10.631
   60SBC   C0CM42293  13.250   8.763  10.649
   60SBC   C0CI42294  13.157   8.509  10.702
   60SBC   C0CD42295  12.873   8.490  11.084
   60SBC   C0BR42296  12.931   8.780  10.860
   60SBC   C0CS42297  12.787   8.967  10.949
   60SBC   C0B642298  12.619   9.071  11.154
   60SBC   C0CG42299  12.774   8.687  11.183
   60SBC   C0CF42300  12.810   8.555  11.189
   60SBC   C0E542301  12.889   8.285  11.205
   60SBC   C0DT42302  12.902   8.166  11.457
   60SBC   C0DL42303  12.743   8.485  11.544
   60SBC   C0DM42304  12.679   8.539  11.650
   60SBC   C0DY42305  12.753   8.362  11.792
   60SBC   C0DU42306  12.922   8.120  11.582
   60SBC   C0F042307  12.945   7.918  11.708
   60SBC   C0F442308  12.858   7.768  11.920
   60SBC   C0FG42309  12.826   8.109  12.048
   60SBC   O00B42310  12.736   7.776  12.133
   60SBC   C0FN42311  12.749   8.141  12.155
   60SBC   C0DZ42312  12.751   8.294  11.917
   60SBC   O00C42313  12.515   8.497  12.091
   60SBC   C0FR42314  12.445   8.605  12.090
   60SBC   O00D42315  12.371   8.623  12.184
   60SBC   C0E042316  12.681   8.476  11.771
   60SBC   C0E342317  12.454   8.691  11.973
   60SBC   C0AW42318  12.386   8.813  11.949
   60SBC   C0AV42319  12.295   8.869  12.044
   60SBC   H00Q42320  12.267   8.827  12.140
   60SBC   C0AU42321  12.243   8.999  12.031
   60SBC   H00R42322  12.177   9.040  12.107
   60SBC   C0AT42323  12.268   9.064  11.906
   60SBC   C0AS42324  12.209   9.179  11.828
   60SBC   C0AR42325  12.105   9.261  11.877
   60SBC   C0BE42326  12.342   8.998  11.809
   60SBC   C0DN42327  12.616   8.662  11.635
   60SBC   C0AX42328  12.404   8.880  11.830
   60SBC   C0BB42329  12.569   8.858  11.503
   60SBC   C0BD42330  12.345   9.067  11.688
   60SBC   C0B242331  12.517   9.053  11.368
   60SBC   C0AH42332  12.394   9.300  11.350
   60SBC   C0BF42333  12.271   9.184  11.695
   60SBC   C0AL42334  12.283   9.531  11.397
   60SBC   C07U42335  12.117   9.457  11.707
   60SBC   C0AQ42336  12.086   9.392  11.826
   60SBC   C0BG42337  12.020   9.244  11.988
   60SBC   C0FY42338  11.709   9.411  12.026
   60SBC   C0BJ42339  11.917   9.133  12.008
   60SBC   H00S42340  11.918   9.032  11.969
   60SBC   C0FZ42341  11.607   9.310  12.019
   60SBC   C07S42342  11.695   9.533  11.951
   60SBC   C0G142343  11.331   9.479  11.859
   60SBC   C07K42344  11.373   9.814  11.700
   60SBC   C07H42345  11.641   9.771  11.794
   60SBC   C06B42346  11.652  10.126  11.776
   60SBC   C06N42347  11.846  10.150  11.656
   60SBC   C06642348  11.893   9.767  11.747
   60SBC   C06242349  12.128   9.787  11.543
   60SBC   C05Y42350  12.052  10.168  11.499
   60SBC   C06142351  12.223   9.840  11.464
   60SBC   C05H42352  12.249  10.118  11.232
   60SBC   C06V42353  12.271   9.785  11.344
   60SBC   C06Y42354  12.392   9.719  11.100
   60SBC   C05C42355  12.387  10.082  11.008
   60SBC   C06Z42356  12.524   9.756  10.909
   60SBC   C07042357  12.624   9.915  10.706
   60SBC   C05B42358  12.452  10.165  10.913
   60SBC   C05742359  12.584  10.334  10.721
   60SBC   C05942360  12.666  10.137  10.609
   61SBC   C05842361   6.374   9.900  10.281
   61SBC   C05A42362   6.483   9.841  10.215
   61SBC   C06Q42363   6.605   9.829  10.279
   61SBC   C06R42364   6.713   9.768  10.215
   61SBC   C06S42365   6.705   9.722  10.078
   61SBC   C06T42366   6.820   9.652  10.033
   61SBC   C06U42367   6.831   9.576   9.908
   61SBC   C06X42368   6.751   9.552   9.791
   61SBC   C06042369   6.815   9.450   9.710
   61SBC   C05Z42370   6.795   9.406   9.577
   61SBC   C06842371   6.935   9.360   9.541
   61SBC   C06742372   6.992   9.312   9.417
   61SBC   C06942373   6.895   9.290   9.312
   61SBC   C06A42374   6.923   9.260   9.169
   61SBC   C07342375   7.032   9.297   9.089
   61SBC   C07P42376   7.002   9.344   8.959
   61SBC   C07O42377   6.873   9.379   8.908
   61SBC   H00D42378   6.787   9.371   8.972
   61SBC   C07N42379   6.848   9.419   8.776
   61SBC   H00E42380   6.747   9.439   8.744
   61SBC   C07M42381   6.960   9.435   8.701
   61SBC   H00F42382   6.944   9.476   8.603
   61SBC   C07L42383   7.089   9.419   8.745
   61SBC   C07Q42384   7.206   9.457   8.664
   61SBC   H00G42385   7.177   9.506   8.572
   61SBC   O00F42386   7.337   9.451   8.703
   61SBC   C07J42387   7.357   9.405   8.832
   61SBC   C07I42388   7.246   9.360   8.916
   61SBC   N00442389   7.267   9.297   9.044
   61SBC   C07R42390   7.401   9.275   9.078
   61SBC   C07T42391   7.510   9.314   8.993
   61SBC   C0FX42392   7.640   9.290   9.022
   61SBC   C0FW42393   7.747   9.344   8.955
   61SBC   C0G042394   7.719   9.406   8.829
   61SBC   C0G242395   7.824   9.454   8.744
   61SBC   H01E42396   7.810   9.500   8.647
   61SBC   C0G342397   7.955   9.436   8.788
   61SBC   H01C42398   8.039   9.481   8.738
   61SBC   C0G442399   7.982   9.384   8.915
   61SBC   H01D42400   8.080   9.394   8.960
   61SBC   O00E42401   7.591   9.409   8.784
   61SBC   C0FV42402   7.880   9.331   9.000
   61SBC   C0FU42403   7.897   9.268   9.132
   61SBC   H01B42404   7.994   9.273   9.179
   61SBC   C0FT42405   7.791   9.207   9.200
   61SBC   C0FS42406   7.757   9.154   9.330
   61SBC   C0BI42407   7.628   9.090   9.317
   61SBC   C0BH42408   7.573   9.082   9.447
   61SBC   C07F42409   7.453   9.146   9.492
   61SBC   C07E42410   7.337   9.179   9.429
   61SBC   C07G42411   7.330   9.195   9.294
   61SBC   C07442412   7.202   9.248   9.266
   61SBC   C06542413   7.228   9.240   9.493
   61SBC   C06442414   7.248   9.272   9.629
   61SBC   C06342415   7.163   9.348   9.706
   61SBC   C07542416   7.235   9.371   9.831
   61SBC   C0AM42417   7.369   9.315   9.825
   61SBC   C0AN42418   7.473   9.300   9.935
   61SBC   C0AO42419   7.474   9.360  10.074
   61SBC   C0B142420   7.583   9.338  10.165
   61SBC   C0B042421   7.686   9.255  10.132
   61SBC   C0AZ42422   7.790   9.221  10.210
   61SBC   C0AY42423   7.894   9.141  10.159
   61SBC   N00742424   8.004   9.108  10.236
   61SBC   C0E242425   8.107   9.021  10.184
   61SBC   C0E142426   8.215   8.988  10.263
   61SBC   C0E442427   8.320   8.911  10.207
   61SBC   C0FF42428   8.439   8.890  10.280
   61SBC   C0FJ42429   8.567   8.833  10.242
   61SBC   C0FK42430   8.623   8.845  10.113
   61SBC   H01642431   8.574   8.869  10.020
   61SBC   C0FL42432   8.770   8.839  10.134
   61SBC   H01742433   8.849   8.853  10.062
   61SBC   C0FM42434   8.793   8.828  10.271
   61SBC   C0FH42435   8.887   8.872  10.377
   61SBC   C0FI42436   8.799   8.876  10.485
   61SBC   C0F342437   8.823   8.975  10.584
   61SBC   C0F242438   8.710   9.022  10.647
   61SBC   C0DW42439   8.574   9.005  10.611
   61SBC   C0FE42440   8.550   8.927  10.500
   61SBC   C0DV42441   8.473   9.084  10.661
   61SBC   C0DX42442   8.358   9.093  10.586
   61SBC   C0DK42443   8.261   9.185  10.630
   61SBC   C0DJ42444   8.292   9.278  10.735
   61SBC   C0DI42445   8.196   9.368  10.771
   61SBC   C0DH42446   8.072   9.374  10.711
   61SBC   C0DG42447   8.043   9.289  10.607
   61SBC   C0BV42448   7.924   9.304  10.536
   61SBC   C0BC42449   7.908   9.245  10.416
   61SBC   C0BA42450   7.830   9.391  10.585
   61SBC   C0B442451   7.716   9.416  10.506
   61SBC   C0B342452   7.699   9.362  10.381
   61SBC   C0B542453   7.623   9.509  10.550
   61SBC   C0BU42454   7.642   9.560  10.677
   61SBC   C0BT42455   7.752   9.537  10.754
   61SBC   C0BS42456   7.764   9.597  10.885
   61SBC   C0CC42457   7.891   9.590  10.948
   61SBC   C0CB42458   7.916   9.649  11.072
   61SBC   C0CH42459   8.055   9.681  11.097
   61SBC   C0DO42460   8.159   9.628  11.016
   61SBC   C0DP42461   8.292   9.661  11.042
   61SBC   C0EA42462   8.328   9.776  11.119
   61SBC   H01242463   8.254   9.847  11.151
   61SBC   O00942464   8.456   9.807  11.161
   61SBC   C0EH42465   8.554   9.722  11.109
   61SBC   C0EG42466   8.687   9.748  11.141
   61SBC   C0EJ42467   8.755   9.855  11.212
   61SBC   H01042468   8.711   9.934  11.271
   61SBC   C0EK42469   8.897   9.844  11.205
   61SBC   H00Z42470   8.978   9.899  11.250
   61SBC   C0EL42471   8.907   9.727  11.123
   61SBC   C0EM42472   9.023   9.656  11.081
   61SBC   C0EW42473   9.159   9.687  11.117
   61SBC   H01342474   9.165   9.764  11.192
   61SBC   C0EX42475   9.278   9.619  11.061
   61SBC   H01442476   9.381   9.644  11.080
   61SBC   C0F142477   9.245   9.513  10.963
   61SBC   C0EU42478   9.114   9.487  10.920
   61SBC   C0ET42479   9.062   9.384  10.838
   61SBC   C0ES42480   8.923   9.388  10.855
   61SBC   C0EE42481   8.884   9.497  10.940
   61SBC   C0ED42482   8.768   9.567  10.996
   61SBC   C0EC42483   8.628   9.527  10.973
   61SBC   C0EB42484   8.589   9.406  10.908
   61SBC   C0EN42485   8.690   9.305  10.867
   61SBC   C0ER42486   8.634   9.185  10.813
   61SBC   C0DS42487   8.454   9.380  10.881
   61SBC   C0DR42488   8.360   9.471  10.915
   61SBC   C0EY42489   8.831   9.286  10.848
   61SBC   C0EZ42490   8.865   9.177  10.762
   61SBC   C0F542491   8.984   9.126  10.693
   61SBC   C0F642492   9.115   9.179  10.710
   61SBC   N00842493   9.213   9.110  10.633
   61SBC   C0F742494   9.181   9.012  10.532
   61SBC   C0FQ42495   9.289   8.957  10.459
   61SBC   H01842496   9.265   8.877  10.391
   61SBC   C0FP42497   9.426   8.988  10.481
   61SBC   H01942498   9.508   8.951  10.422
   61SBC   C0FO42499   9.453   9.092  10.572
   61SBC   H01A42500   9.558   9.117  10.578
   61SBC   C0F842501   9.049   8.992  10.501
   61SBC   C0F942502   9.348   9.151  10.646
   61SBC   C0FA42503   9.393   9.249  10.745
   61SBC   H01542504   9.499   9.262  10.758
   61SBC   C0FB42505   9.289   9.320  10.811
   61SBC   C0FD42506   9.157   9.291  10.785
   61SBC   C0FC42507   9.340   9.429  10.901
   61SBC   O00A42508   9.460   9.450  10.923
   61SBC   C0EV42509   9.007   9.551  10.981
   61SBC   C0EF42510   8.784   9.677  11.084
   61SBC   C0EI42511   8.526   9.610  11.028
   61SBC   C0DQ42512   8.395   9.578  10.995
   61SBC   C0CE42513   8.131   9.532  10.923
   61SBC   H00U42514   8.085   9.732  11.187
   61SBC   C0CA42515   7.805   9.683  11.151
   61SBC   C0C942516   7.669   9.688  11.092
   61SBC   C0C842517   7.553   9.707  11.180
   61SBC   C0C742518   7.416   9.749  11.158
   61SBC   C0C642519   7.327   9.749  11.267
   61SBC   C0C542520   7.208   9.818  11.316
   61SBC   C0CQ42521   7.198   9.831  11.457
   61SBC   C0D142522   7.314   9.822  11.532
   61SBC   C0D842523   7.322   9.920  11.622
   61SBC   C0D742524   7.187   9.963  11.637
   61SBC   C0D642525   7.149  10.072  11.717
   61SBC   C0D542526   7.013  10.112  11.717
   61SBC   C0D442527   6.903  10.080  11.637
   61SBC   C0D342528   6.808  10.179  11.659
   61SBC   C0CX42529   6.726  10.183  11.537
   61SBC   C0CW42530   6.802  10.113  11.433
   61SBC   C0CV42531   6.788  10.086  11.285
   61SBC   C0D242532   6.681  10.140  11.209
   61SBC   C09D42533   6.568  10.216  11.255
   61SBC   C09C42534   6.473  10.270  11.166
   61SBC   C09B42535   6.359  10.345  11.202
   61SBC   C09A42536   6.344  10.370  11.340
   61SBC   C09942537   6.444  10.345  11.421
   61SBC   C09842538   6.397  10.356  11.550
   61SBC   C08Y42539   6.253  10.356  11.550
   61SBC   C08X42540   6.155  10.309  11.644
   61SBC   C08W42541   6.196  10.257  11.775
   61SBC   C08U42542   6.333  10.219  11.821
   61SBC   C08V42543   6.453  10.212  11.754
   61SBC   C0DC42544   6.545  10.180  11.854
   61SBC   H00W42545   6.651  10.173  11.832
   61SBC   C0DB42546   6.488  10.159  11.981
   61SBC   H00X42547   6.528  10.127  12.077
   61SBC   C08T42548   6.352  10.190  11.958
   61SBC   C08S42549   6.249  10.178  12.044
   61SBC   H00N42550   6.269  10.146  12.145
   61SBC   C08R42551   6.120  10.184  12.008
   61SBC   C08Q42552   6.016  10.152  12.098
   61SBC   H00O42553   6.033  10.132  12.202
   61SBC   C08P42554   5.880  10.154  12.060
   61SBC   C08O42555   5.776  10.119  12.152
   61SBC   H00P42556   5.795  10.094  12.255
   61SBC   C08N42557   5.638  10.124  12.106
   61SBC   C08M42558   5.528  10.095  12.200
   61SBC   O00842559   5.545  10.095  12.324
   61SBC   O00742560   5.401  10.080  12.153
   61SBC   C08H42561   5.372  10.123  12.024
   61SBC   C08G42562   5.243  10.117  11.972
   61SBC   C03V42563   5.124  10.093  12.045
   61SBC   H00942564   5.141  10.070  12.149
   61SBC   C03U42565   4.995  10.089  11.984
   61SBC   C03W42566   4.864  10.067  12.048
   61SBC   H00A42567   4.861  10.027  12.148
   61SBC   C03X42568   4.753  10.077  11.981
   61SBC   H00B42569   4.663  10.055  12.036
   61SBC   O00542570   4.750  10.109  11.846
   61SBC   C03O42571   4.867  10.122  11.778
   61SBC   C03N42572   4.868  10.129  11.641
   61SBC   O00042573   4.744  10.114  11.591
   61SBC   C01942574   4.731  10.105  11.453
   61SBC   C01842575   4.843  10.120  11.371
   61SBC   C01742576   4.969  10.155  11.431
   61SBC   C01642577   5.080  10.179  11.353
   61SBC   C01542578   5.052  10.173  11.215
   61SBC   C01442579   5.159  10.213  11.128
   61SBC   C01342580   5.287  10.243  11.175
   61SBC   C01242581   5.367  10.258  11.052
   61SBC   C01142582   5.276  10.239  10.945
   61SBC   C01042583   5.307  10.276  10.819
   61SBC   C00Z42584   5.231  10.247  10.708
   61SBC   C00Y42585   5.329  10.250  10.607
   61SBC   C01O42586   5.455  10.279  10.649
   61SBC   C01P42587   5.569  10.220  10.592
   61SBC   C02L42588   5.682  10.228  10.667
   61SBC   C02K42589   5.666  10.270  10.797
   61SBC   C01M42590   5.540  10.280  10.868
   61SBC   C02J42591   5.788  10.278  10.868
   61SBC   C02I42592   5.808  10.321  10.998
   61SBC   C02H42593   5.726  10.339  11.111
   61SBC   C01Q42594   5.589  10.307  11.122
   61SBC   C02G42595   5.555  10.320  11.258
   61SBC   C08942596   5.666  10.373  11.328
   61SBC   C08842597   5.665  10.337  11.461
   61SBC   C08742598   5.531  10.276  11.473
   61SBC   C08642599   5.476  10.221  11.591
   61SBC   C03S42600   5.337  10.199  11.622
   61SBC   N00642601   5.332  10.167  11.756
   61SBC   C08F42602   5.451  10.178  11.812
   61SBC   C01J42603   5.218  10.197  11.552
   61SBC   C03R42604   5.103  10.169  11.630
   61SBC   C03Q42605   5.104  10.149  11.767
   61SBC   C08E42606   5.545  10.202  11.715
   61SBC   C08D42607   5.688  10.210  11.749
   61SBC   C08K42608   5.716  10.183  11.885
   61SBC   C08C42609   5.797  10.269  11.669
   61SBC   C09142610   5.922  10.265  11.712
   61SBC   C09242611   5.958  10.216  11.840
   61SBC   C08B42612   5.792  10.328  11.540
   61SBC   C09042613   5.928  10.353  11.497
   61SBC   C09442614   5.979  10.409  11.378
   61SBC   C09542615   6.115  10.403  11.337
   61SBC   C09R42616   6.122  10.390  11.198
   61SBC   C09742617   5.993  10.367  11.147
   61SBC   C09642618   5.908  10.390  11.254
   61SBC   C01I42619   5.453  10.279  11.346
   61SBC   C08A42620   5.774  10.377  11.234
   61SBC   C09L42621   5.943  10.337  11.017
   61SBC   C09K42622   6.010  10.309  10.896
   61SBC   C09J42623   6.154  10.295  10.886
   61SBC   C09I42624   6.223  10.221  10.781
   61SBC   C09O42625   6.186  10.146  10.658
   61SBC   C09N42626   6.052  10.140  10.607
   61SBC   C09M42627   5.931  10.185  10.666
   61SBC   C06O42628   6.041  10.075  10.481
   61SBC   C05M42629   6.152  10.021  10.412
   61SBC   C06P42630   6.278  10.016  10.472
   61SBC   C04242631   6.135   9.952  10.290
   61SBC   C04142632   6.008   9.933  10.233
   61SBC   C04042633   5.992   9.865  10.113
   61SBC   C03Z42634   5.866   9.845  10.059
   61SBC   C03Y42635   5.754   9.896  10.126
   61SBC   C02742636   5.632   9.873  10.066
   61SBC   C02642637   5.524   9.922  10.135
   61SBC   C02842638   5.398   9.885  10.092
   61SBC   C02942639   5.382   9.802   9.979
   61SBC   C02B42640   5.255   9.763   9.939
   61SBC   C02C42641   5.238   9.673   9.840
   61SBC   C02X42642   5.115   9.632   9.808
   61SBC   C03E42643   5.105   9.535   9.712
   61SBC   C03G42644   5.207   9.478   9.643
   61SBC   C04Q42645   5.332   9.520   9.676
   61SBC   C04R42646   5.446   9.461   9.620
   61SBC   C04S42647   5.572   9.502   9.659
   61SBC   C04L42648   5.587   9.596   9.755
   61SBC   C04M42649   5.476   9.656   9.814
   61SBC   C04K42650   5.713   9.637   9.794
   61SBC   C04F42651   5.820   9.582   9.729
   61SBC   C04E42652   5.806   9.492   9.627
   61SBC   C04D42653   5.917   9.441   9.566
   61SBC   C05042654   5.908   9.343   9.463
   61SBC   C05142655   6.021   9.300   9.398
   61SBC   C05Q42656   6.004   9.212   9.301
   61SBC   C05V42657   6.119   9.161   9.236
   61SBC   N00542658   6.103   9.072   9.128
   61SBC   C07V42659   5.981   9.031   9.088
   61SBC   C08242660   5.967   8.951   8.974
   61SBC   C08142661   6.074   8.892   8.907
   61SBC   C07C42662   6.201   8.928   8.946
   61SBC   C07B42663   6.312   8.878   8.880
   61SBC   C08042664   6.298   8.782   8.773
   61SBC   C07Z42665   6.417   8.734   8.715
   61SBC   H00L42666   6.403   8.669   8.630
   61SBC   C07942667   6.547   8.773   8.755
   61SBC   C07842668   6.552   8.877   8.855
   61SBC   C07742669   6.678   8.916   8.900
   61SBC   C07X42670   6.797   8.855   8.847
   61SBC   H00I42671   6.892   8.868   8.897
   61SBC   C07Y42672   6.794   8.763   8.743
   61SBC   H00H42673   6.883   8.711   8.711
   61SBC   C07642674   6.690   9.011   8.994
   61SBC   C06C42675   6.816   9.077   9.015
   61SBC   H00C42676   6.899   9.071   8.946
   61SBC   C06F42677   6.579   9.055   9.068
   61SBC   C06E42678   6.588   9.136   9.175
   61SBC   C06G42679   6.482   9.188   9.246
   61SBC   C06H42680   6.356   9.146   9.200
   61SBC   C06I42681   6.336   9.062   9.096
   61SBC   C06L42682   6.508   9.278   9.354
   61SBC   C06M42683   6.644   9.318   9.397
   61SBC   C06K42684   6.393   9.321   9.423
   61SBC   C05S42685   6.267   9.287   9.377
   61SBC   C05U42686   6.411   9.408   9.531
   61SBC   C05X42687   6.544   9.442   9.578
   61SBC   C05G42688   6.533   9.533   9.691
   61SBC   C05F42689   6.411   9.568   9.743
   61SBC   C05E42690   6.424   9.647   9.855
   61SBC   C04842691   6.319   9.704   9.923
   61SBC   C05642692   6.340   9.774  10.038
   61SBC   C04542693   6.227   9.828  10.104
   61SBC   C04742694   6.196   9.680   9.868
   61SBC   C04942695   6.181   9.602   9.754
   61SBC   C04B42696   6.059   9.568   9.712
   61SBC   C04642697   6.085   9.734   9.932
   61SBC   C04H42698   5.960   9.708   9.881
   61SBC   C05D42699   6.556   9.666   9.891
   61SBC   C04A42700   6.287   9.544   9.691
   61SBC   C05T42701   6.289   9.462   9.587
   61SBC   C05542702   6.159   9.428   9.540
   61SBC   C06D42703   6.713   9.184   9.206
   61SBC   C07W42704   6.448   9.016   9.027
   61SBC   C08542705   6.668   8.719   8.707
   61SBC   H00M42706   6.659   8.629   8.647
   61SBC   C08442707   6.168   8.747   8.738
   61SBC   H00J42708   6.151   8.658   8.679
   61SBC   C07A42709   6.435   8.927   8.918
   61SBC   C08342710   6.061   8.807   8.798
   61SBC   H00K42711   5.962   8.776   8.769
   61SBC   O00K42712   5.840   8.916   8.933
   61SBC   C0GO42713   5.731   8.944   9.012
   61SBC   C0GN42714   5.602   8.904   8.973
   61SBC   H01L42715   5.598   8.838   8.887
   61SBC   C0GM42716   5.486   8.915   9.052
   61SBC   C0GL42717   5.369   8.848   9.028
   61SBC   H01M42718   5.359   8.781   8.944
   61SBC   O00J42719   5.261   8.876   9.111
   61SBC   C0GK42720   5.278   8.966   9.207
   61SBC   H01N42721   5.198   8.981   9.277
   61SBC   C05K42722   5.387   9.041   9.226
   61SBC   C05J42723   5.392   9.147   9.325
   61SBC   C04Y42724   5.282   9.208   9.396
   61SBC   C04X42725   5.296   9.312   9.493
   61SBC   O00642726   5.154   9.177   9.363
   61SBC   C05342727   5.050   9.209   9.443
   61SBC   C04O42728   5.059   9.321   9.531
   61SBC   C03C42729   4.956   9.369   9.615
   61SBC   C03B42730   4.820   9.339   9.642
   61SBC   C05442731   4.760   9.219   9.602
   61SBC   C0GR42732   4.625   9.189   9.634
   61SBC   C03M42733   4.516   9.244   9.723
   61SBC   C03I42734   4.532   9.358   9.815
   61SBC   C03J42735   4.424   9.389   9.898
   61SBC   N00242736   4.439   9.494  10.001
   61SBC   C02U42737   4.337   9.513  10.098
   61SBC   C02T42738   4.352   9.607  10.200
   61SBC   C02Z42739   4.250   9.628  10.289
   61SBC   N00142740   4.263   9.724  10.399
   61SBC   C02R42741   4.160   9.744  10.485
   61SBC   C03242742   4.040   9.676  10.465
   61SBC   C03142743   4.026   9.588  10.354
   61SBC   H00742744   3.931   9.546  10.327
   61SBC   C03342745   3.934   9.709  10.559
   61SBC   H00342746   3.838   9.665  10.537
   61SBC   O00442747   3.947   9.792  10.671
   61SBC   C03442748   4.068   9.857  10.677
   61SBC   C03542749   4.077   9.945  10.785
   61SBC   C03642750   4.194  10.022  10.803
   61SBC   H00542751   4.194  10.094  10.884
   61SBC   C03742752   4.302  10.010  10.715
   61SBC   H00642753   4.393  10.070  10.717
   61SBC   C00D42754   4.299   9.909  10.612
   61SBC   C00C42755   4.405   9.876  10.528
   61SBC   C00B42756   4.538   9.937  10.540
   61SBC   C00A42757   4.620  10.029  10.630
   61SBC   C00942758   4.735  10.063  10.550
   61SBC   C00842759   4.863  10.109  10.598
   61SBC   C00742760   4.878  10.117  10.734
   61SBC   C00642761   5.002  10.165  10.780
   61SBC   C00542762   5.017  10.177  10.921
   61SBC   C00442763   4.916  10.131  11.009
   61SBC   C00342764   4.797  10.075  10.958
   61SBC   C00242765   4.696  10.029  11.043
   61SBC   C01C42766   4.710  10.058  11.180
   61SBC   C01B42767   4.604  10.031  11.272
   61SBC   H00042768   4.503  10.004  11.247
   61SBC   C00142769   4.593   9.953  10.990
   61SBC   C00042770   4.586   9.936  10.853
   61SBC   C01U42771   4.503   9.821  10.833
   61SBC   H00242772   4.485   9.772  10.738
   61SBC   C01T42773   4.438   9.790  10.960
   61SBC   O00242774   4.352   9.704  10.994
   61SBC   O00142775   4.496   9.878  11.052
   61SBC   C01S42776   4.774  10.076  10.820
   61SBC   C00N42777   4.965  10.107  10.508
   61SBC   C00M42778   4.951  10.053  10.380
   61SBC   C00J42779   4.830  10.005  10.335
   61SBC   C00I42780   4.812   9.912  10.230
   61SBC   C00H42781   4.690   9.842  10.211
   61SBC   C00G42782   4.595   9.850  10.309
   61SBC   C00F42783   4.480   9.771  10.315
   61SBC   C01X42784   4.677   9.742  10.116
   61SBC   C01W42785   4.783   9.723  10.032
   61SBC   C01V42786   4.905   9.787  10.055
   61SBC   C02042787   5.015   9.761   9.977
   61SBC   C01Z42788   4.772   9.627   9.940
   61SBC   C02Y42789   4.885   9.611   9.863
   61SBC   C03942790   4.878   9.508   9.771
   61SBC   C02W42791   4.661   9.542   9.924
   61SBC   C01Y42792   4.559   9.669  10.110
   61SBC   C00U42793   4.921   9.876  10.155
   61SBC   C00S42794   5.044   9.931  10.187
   61SBC   C00T42795   5.160   9.890  10.118
   61SBC   C00R42796   5.054  10.020  10.298
   61SBC   C00Q42797   5.180  10.053  10.341
   61SBC   C00V42798   5.291  10.012  10.268
   61SBC   C02442799   5.417  10.054  10.308
   61SBC   C00X42800   5.434  10.132  10.420
   61SBC   C00P42801   5.193  10.121  10.460
   61SBC   C00O42802   5.092  10.146  10.548
   61SBC   C00K42803   4.726  10.012  10.425
   61SBC   N00042804   4.658  10.015  10.765
   61SBC   C00L42805   4.612   9.935  10.418
   61SBC   H00442806   3.989   9.962  10.846
   61SBC   C02Q42807   4.180   9.833  10.593
   61SBC   C00E42808   4.387   9.786  10.415
   61SBC   C03042809   4.132   9.562  10.276
   61SBC   O00342810   4.112   9.470  10.171
   61SBC   C02S42811   4.463   9.686  10.206
   61SBC   C03842812   4.218   9.441  10.081
   61SBC   C03L42813   4.196   9.356   9.974
   61SBC   H00842814   4.098   9.313   9.960
   61SBC   C02V42815   4.554   9.569  10.010
   61SBC   C03K42816   4.297   9.326   9.885
   61SBC   C0BK42817   4.286   9.223   9.791
   61SBC   H00T42818   4.187   9.180   9.787
   61SBC   C03H42819   4.650   9.440   9.830
   61SBC   C0BL42820   4.390   9.173   9.718
   61SBC   C0GU42821   4.377   9.057   9.632
   61SBC   H01O42822   4.284   9.002   9.633
   61SBC   C0GT42823   4.472   9.009   9.548
   61SBC   H01P42824   4.458   8.926   9.480
   61SBC   C0GS42825   4.596   9.076   9.550
   61SBC   C0GV42826   4.714   9.041   9.467
   61SBC   C0GW42827   4.733   8.948   9.362
   61SBC   H01Q42828   4.658   8.876   9.334
   61SBC   C0GX42829   4.850   8.947   9.296
   61SBC   H01R42830   4.870   8.874   9.219
   61SBC   O00L42831   4.947   9.032   9.322
   61SBC   C0GQ42832   4.812   9.138   9.496
   61SBC   C03A42833   4.767   9.424   9.748
   61SBC   C05L42834   4.933   9.130   9.424
   61SBC   C04W42835   5.519   9.200   9.364
   61SBC   C05I42836   5.635   9.152   9.299
   61SBC   C05O42837   5.630   9.055   9.200
   61SBC   C05242838   5.760   9.208   9.326
   61SBC   C04V42839   5.539   9.301   9.463
   61SBC   C04U42840   5.666   9.355   9.494
   61SBC   N00942841   5.503   9.003   9.158
   61SBC   C0GP42842   5.742   9.022   9.130
   61SBC   C05W42843   5.869   9.067   9.167
   61SBC   C07D42844   6.214   9.019   9.055
   61SBC   C06J42845   6.248   9.202   9.266
   61SBC   C05P42846   5.878   9.161   9.266
   61SBC   C05R42847   6.146   9.338   9.440
   61SBC   C04Z42848   5.779   9.306   9.428
   61SBC   C04C42849   6.045   9.483   9.602
   61SBC   C04G42850   5.945   9.623   9.776
   61SBC   C04J42851   5.728   9.728   9.903
   61SBC   C04T42852   5.680   9.451   9.594
   61SBC   N00342853   5.428   9.363   9.522
   61SBC   C04P42854   5.187   9.376   9.554
   61SBC   C03D42855   4.980   9.480   9.688
   61SBC   C02142856   5.004   9.672   9.876
   61SBC   C03F42857   5.347   9.616   9.776
   61SBC   C02242858   5.145   9.809  10.011
   61SBC   C02A42859   5.494   9.751   9.915
   61SBC   C02342860   5.282   9.931  10.155
   61SBC   C02542861   5.537  10.006  10.244
   61SBC   C02D42862   5.665  10.034  10.298
   61SBC   C02E42863   5.674  10.101  10.413
   61SBC   C02N42864   5.801  10.117  10.480
   61SBC   C04N42865   5.614   9.786   9.962
   61SBC   C02P42866   5.772   9.973  10.242
   61SBC   C04I42867   5.851   9.762   9.948
   61SBC   C04442868   6.103   9.815  10.047
   61SBC   C04342869   5.899   9.991  10.300
   61SBC   C05N42870   5.915  10.063  10.419
   61SBC   C09U42871   6.300  10.081  10.594
   61SBC   C09V42872   6.428  10.063  10.656
   61SBC   C09X42873   6.453  10.122  10.780
   61SBC   C09Y42874   6.566  10.105  10.856
   61SBC   C0A142875   6.667  10.034  10.798
   61SBC   C0A242876   6.654   9.991  10.667
   61SBC   C0A442877   6.755   9.929  10.605
   61SBC   C07142878   6.740   9.870  10.479
   61SBC   C0A542879   6.845   9.804  10.418
   61SBC   C0A942880   6.961   9.791  10.489
   61SBC   C0A842881   6.978   9.844  10.620
   61SBC   C0AP42882   7.096   9.826  10.684
   61SBC   C0BY42883   7.100   9.864  10.817
   61SBC   C0BX42884   6.998   9.913  10.887
   61SBC   C0C242885   7.007   9.934  11.024
   61SBC   C0C342886   6.899  10.000  11.087
   61SBC   C0CT42887   6.789  10.042  11.008
   61SBC   C0C142888   7.119   9.899  11.097
   61SBC   C0C042889   7.239   9.858  11.019
   61SBC   C0A742890   6.891   9.951  10.812
   61SBC   C0BZ42891   7.219   9.844  10.881
   61SBC   C0BO42892   7.332   9.792  10.817
   61SBC   C0BN42893   7.321   9.745  10.689
   61SBC   C0BM42894   7.426   9.668  10.651
   61SBC   C0B942895   7.413   9.614  10.523
   61SBC   C0B842896   7.296   9.638  10.448
   61SBC   C0AD42897   7.188   9.709  10.502
   61SBC   C0AF42898   7.288   9.590  10.324
   61SBC   C0AG42899   7.386   9.504  10.264
   61SBC   C0B742900   7.495   9.477  10.344
   61SBC   C0AE42901   7.171   9.612  10.255
   61SBC   C0AB42902   7.059   9.677  10.303
   61SBC   C0AA42903   6.940   9.696  10.230
   61SBC   C0AJ42904   7.160   9.559  10.132
   61SBC   C0AK42905   7.043   9.570  10.060
   61SBC   C06W42906   7.061   9.502   9.950
   61SBC   C0AI42907   7.252   9.479  10.071
   61SBC   C0BP42908   7.430   9.760  10.912
   61SBC   C0BQ42909   7.543   9.677  10.867
   61SBC   C0BW42910   7.201   9.762  10.626
   61SBC   C0AC42911   7.067   9.722  10.434
   61SBC   C0A642912   6.877   9.915  10.678
   61SBC   C0A342913   6.785  10.012  10.872
   61SBC   C09Z42914   6.577  10.152  10.987
   61SBC   C09W42915   6.534  10.001  10.599
   61SBC   C07242916   6.512   9.953  10.470
   61SBC   C09H42917   6.354  10.204  10.831
   61SBC   C09G42918   6.369  10.260  10.953
   61SBC   C09P42919   6.251  10.325  10.988
   61SBC   C02O42920   5.920  10.258  10.802
   61SBC   C02M42921   5.804  10.174  10.611
   61SBC   C02F42922   5.560  10.152  10.472
   61SBC   C00W42923   5.318  10.166  10.494
   61SBC   C01R42924   5.105  10.188  10.681
   61SBC   C01N42925   5.437  10.285  10.783
   61SBC   C01L42926   5.508  10.277  11.015
   61SBC   C01H42927   5.315  10.246  11.311
   61SBC   C01K42928   5.145  10.214  10.985
   61SBC   C01E42929   4.932  10.134  11.155
   61SBC   C01G42930   5.207  10.204  11.407
   61SBC   C01D42931   4.829  10.103  11.236
   61SBC   C01A42932   4.613  10.059  11.410
   61SBC   H00142933   4.530  10.024  11.470
   61SBC   C01F42934   4.981  10.148  11.564
   61SBC   C03P42935   4.989  10.119  11.842
   61SBC   C03T42936   5.221  10.139  11.837
   61SBC   C08I42937   5.478  10.151  11.938
   61SBC   C08J42938   5.611  10.150  11.976
   61SBC   C08L42939   5.854  10.185  11.924
   61SBC   C09342940   6.095  10.219  11.873
   61SBC   C08Z42941   6.013  10.310  11.609
   61SBC   C09T42942   6.485  10.263  11.615
   61SBC   C09S42943   6.225  10.382  11.412
   61SBC   C09Q42944   6.244  10.357  11.125
   61SBC   C09F42945   6.479  10.232  11.038
   61SBC   C09E42946   6.539  10.247  11.393
   61SBC   C0A042947   6.681  10.113  11.069
   61SBC   C0CU42948   6.899  10.019  11.226
   61SBC   C0CR42949   7.008   9.966  11.301
   61SBC   C0CZ42950   7.011   9.979  11.438
   61SBC   C0DA42951   6.586  10.216  11.520
   61SBC   C0D942952   6.870  10.288  11.733
   61SBC   H00V42953   6.822  10.382  11.754
   61SBC   C0CY42954   6.910  10.050  11.497
   61SBC   C0DF42955   7.004  10.247  11.756
   61SBC   C0DE42956   7.136  10.282  11.799
   61SBC   C0GI42957   7.186  10.399  11.868
   61SBC   H01K42958   7.139  10.492  11.897
   61SBC   C0GJ42959   7.321  10.392  11.897
   61SBC   H01J42960   7.367  10.477  11.945
   61SBC   O00I42961   7.408  10.290  11.855
   61SBC   C0GH42962   7.363  10.182  11.790
   61SBC   C0GG42963   7.462  10.083  11.755
   61SBC   O00G42964   7.585  10.119  11.801
   61SBC   C0G842965   7.688  10.040  11.767
   61SBC   C0G942966   7.793  10.043  11.858
   61SBC   H01G42967   7.772  10.109  11.941
   61SBC   C0GA42968   7.904   9.966  11.848
   61SBC   H01H42969   7.970   9.975  11.932
   61SBC   C0GB42970   7.912   9.875  11.743
   61SBC   C0EP42971   7.809   9.876  11.639
   61SBC   C0E842972   7.835   9.812  11.509
   61SBC   C0CK42973   7.767   9.800  11.389
   61SBC   C0CL42974   7.633   9.764  11.407
   61SBC   C0E942975   7.542   9.816  11.510
   61SBC   C0GE42976   7.564   9.916  11.612
   61SBC   C0E742977   7.943   9.726  11.503
   61SBC   C0CJ42978   7.950   9.660  11.378
   61SBC   C0E642979   8.049   9.558  11.368
   61SBC   H00Y42980   8.059   9.499  11.278
   61SBC   C0EO42981   8.135   9.542  11.476
   61SBC   H01142982   8.215   9.469  11.473
   61SBC   C0G642983   8.132   9.612  11.598
   61SBC   C0G542984   8.220   9.595  11.711
   61SBC   H01F42985   8.303   9.527  11.697
   61SBC   C0GD42986   8.212   9.672  11.817
   61SBC   H01I42987   8.281   9.652  11.897
   61SBC   O00H42988   8.104   9.758  11.835
   61SBC   C0EQ42989   8.033   9.709  11.612
   61SBC   C0GC42990   8.022   9.783  11.731
   61SBC   C0G742991   7.688   9.947  11.663
   61SBC   C0DD42992   7.226  10.177  11.766
   61SBC   C0GF42993   7.444   9.976  11.668
   61SBC   C0CO42994   7.421   9.765  11.475
   61SBC   C0D042995   7.126   9.931  11.508
   61SBC   C0C442996   7.117   9.896  11.238
   61SBC   C0CN42997   7.416   9.687  11.359
   61SBC   C0CP42998   7.374   9.803  11.038
   61SBC   C0CM42999   7.551   9.679  11.319
   61SBC   C0CI43000   7.842   9.715  11.294
   61SBC   C0CD43001   7.997   9.520  10.879
   61SBC   C0BR43002   7.657   9.658  10.951
   61SBC   C0CS43003   7.540   9.639  10.730
   61SBC   C0B643004   7.512   9.535  10.471
   61SBC   C0CG43005   7.848   9.453  10.708
   61SBC   C0CF43006   7.971   9.448  10.766
   61SBC   C0E543007   8.231   9.457  10.867
   61SBC   C0DT43008   8.414   9.273  10.799
   61SBC   C0DL43009   8.140   9.197  10.558
   61SBC   C0DM43010   8.124   9.126  10.440
   61SBC   C0DY43011   8.338   9.021  10.466
   61SBC   C0DU43012   8.502   9.178  10.759
   61SBC   C0F043013   8.738   9.111  10.753
   61SBC   C0F443014   8.952   9.027  10.598
   61SBC   C0FG43015   8.665   8.852  10.447
   61SBC   O00B43016   9.018   8.917  10.387
   61SBC   C0FN43017   8.674   8.801  10.325
   61SBC   C0DZ43018   8.440   8.943  10.415
   61SBC   O00C43019   8.306   8.861  10.081
   61SBC   C0FR43020   8.206   8.880   9.999
   61SBC   O00D43021   8.225   8.827   9.891
   61SBC   C0E043022   8.223   9.045  10.391
   61SBC   C0E343023   8.101   8.966  10.052
   61SBC   C0AW43024   7.987   8.995   9.974
   61SBC   C0AV43025   7.961   8.947   9.841
   61SBC   H00Q43026   8.029   8.889   9.780
   61SBC   C0AU43027   7.842   8.981   9.776
   61SBC   H00R43028   7.814   8.946   9.677
   61SBC   C0AT43029   7.748   9.062   9.835
   61SBC   C0AS43030   7.629   9.132   9.796
   61SBC   C0AR43031   7.611   9.163   9.658
   61SBC   C0BE43032   7.774   9.104   9.962
   61SBC   C0DN43033   8.010   9.155  10.368
   61SBC   C0AX43034   7.892   9.077  10.038
   61SBC   C0BB43035   7.800   9.275  10.336
   61SBC   C0BD43036   7.680   9.193  10.008
   61SBC   C0B243037   7.594   9.393  10.297
   61SBC   C0AH43038   7.375   9.449  10.134
   61SBC   C0BF43039   7.582   9.214   9.908
   61SBC   C0AL43040   7.187   9.434   9.952
   61SBC   C07U43041   7.373   9.255   9.695
   61SBC   C0AQ43042   7.473   9.192   9.619
   61SBC   C0BG43043   7.678   9.095   9.546
   61SBC   C0FY43044   7.562   9.149   9.209
   61SBC   C0BJ43045   7.794   9.155   9.470
   61SBC   H00S43046   7.885   9.195   9.511
   61SBC   C0FZ43047   7.665   9.213   9.137
   61SBC   C07S43048   7.427   9.195   9.195
   61SBC   C0G143049   7.488   9.378   8.870
   61SBC   C07K43050   7.112   9.373   8.877
   61SBC   C07H43051   7.158   9.279   9.138
   61SBC   C06B43052   6.828   9.165   9.124
   61SBC   C06N43053   6.749   9.262   9.312
   61SBC   C06643054   7.129   9.275   9.398
   61SBC   C06243055   7.023   9.380   9.662
   61SBC   C05Y43056   6.660   9.393   9.516
   61SBC   C06143057   6.938   9.426   9.759
   61SBC   C05H43058   6.623   9.596   9.783
   61SBC   C06V43059   6.951   9.504   9.872
   61SBC   C06Y43060   6.935   9.649  10.107
   61SBC   C05C43061   6.580   9.728  10.017
   61SBC   C06Z43062   6.834   9.756  10.290
   61SBC   C07043063   6.619   9.887  10.407
   61SBC   C05B43064   6.467   9.788  10.086
   61SBC   C05743065   6.247   9.899  10.225
   61SBC   C05943066   6.387   9.958  10.404
   62SBC   C05843067   8.026   1.800   5.276
   62SBC   C05A43068   8.119   1.691   5.279
   62SBC   C06Q43069   8.190   1.657   5.392
   62SBC   C06R43070   8.272   1.542   5.396
   62SBC   C06S43071   8.286   1.457   5.284
   62SBC   C06T43072   8.382   1.354   5.288
   62SBC   C06U43073   8.409   1.245   5.197
   62SBC   C06X43074   8.361   1.214   5.065
   62SBC   C06043075   8.397   1.072   5.030
   62SBC   C05Z43076   8.436   1.019   4.902
   62SBC   C06843077   8.551   0.936   4.934
   62SBC   C06743078   8.636   0.853   4.843
   62SBC   C06943079   8.591   0.826   4.708
   62SBC   C06A43080   8.669   0.766   4.597
   62SBC   C07343081   8.810   0.762   4.572
   62SBC   C07P43082   8.858   0.795   4.444
   62SBC   C07O43083   8.788   0.865   4.345
   62SBC   H00D43084   8.695   0.914   4.371
   62SBC   C07N43085   8.841   0.891   4.214
   62SBC   H00E43086   8.792   0.951   4.138
   62SBC   C07M43087   8.963   0.840   4.191
   62SBC   H00F43088   8.997   0.860   4.090
   62SBC   C07L43089   9.034   0.769   4.281
   62SBC   C07Q43090   9.170   0.725   4.263
   62SBC   H00G43091   9.209   0.747   4.165
   62SBC   O00F43092   9.259   0.678   4.359
   62SBC   C07J43093   9.202   0.664   4.478
   62SBC   C07I43094   9.066   0.691   4.508
   62SBC   N00443095   9.016   0.664   4.639
   62SBC   C07R43096   9.103   0.593   4.730
   62SBC   C07T43097   9.243   0.579   4.702
   62SBC   C0FX43098   9.331   0.538   4.794
   62SBC   C0FW43099   9.470   0.539   4.782
   62SBC   C0G043100   9.523   0.583   4.657
   62SBC   C0G243101   9.659   0.616   4.650
   62SBC   H01E43102   9.700   0.671   4.567
   62SBC   C0G343103   9.741   0.571   4.748
   62SBC   H01C43104   9.843   0.606   4.745
   62SBC   C0G443105   9.689   0.504   4.863
   62SBC   H01D43106   9.765   0.478   4.935
   62SBC   O00E43107   9.435   0.613   4.552
   62SBC   C0FV43108   9.551   0.496   4.891
   62SBC   C0FU43109   9.487   0.466   5.013
   62SBC   H01B43110   9.551   0.442   5.096
   62SBC   C0FT43111   9.348   0.452   5.027
   62SBC   C0FS43112   9.249   0.440   5.129
   62SBC   C0BI43113   9.122   0.427   5.061
   62SBC   C0BH43114   9.021   0.454   5.155
   62SBC   C07F43115   8.933   0.564   5.143
   62SBC   C07E43116   8.883   0.624   5.022
   62SBC   C07G43117   8.933   0.622   4.896
   62SBC   C07443118   8.858   0.701   4.813
   62SBC   C06543119   8.788   0.724   5.025
   62SBC   C06443120   8.764   0.784   5.150
   62SBC   C06343121   8.688   0.893   5.178
   62SBC   C07543122   8.711   0.913   5.321
   62SBC   C0AM43123   8.805   0.823   5.381
   62SBC   C0AN43124   8.863   0.826   5.519
   62SBC   C0AO43125   8.832   0.916   5.641
   62SBC   C0B143126   8.896   0.903   5.768
   62SBC   C0B043127   8.979   0.791   5.789
   62SBC   C0AZ43128   9.046   0.762   5.906
   62SBC   C0AY43129   9.127   0.644   5.916
   62SBC   N00743130   9.197   0.616   6.034
   62SBC   C0E243131   9.284   0.503   6.035
   62SBC   C0E143132   9.359   0.485   6.149
   62SBC   C0E443133   9.450   0.380   6.145
   62SBC   C0FF43134   9.516   0.346   6.264
   62SBC   C0FJ43135   9.629   0.265   6.295
   62SBC   C0FK43136   9.743   0.251   6.205
   62SBC   H01643137   9.743   0.278   6.100
   62SBC   C0FL43138   9.859   0.204   6.283
   62SBC   H01743139   9.961   0.178   6.258
   62SBC   C0FM43140   9.815   0.206   6.421
   62SBC   C0FH43141   9.856   0.237   6.560
   62SBC   C0FI43142   9.740   0.296   6.618
   62SBC   C0F343143   9.748   0.391   6.721
   62SBC   C0F243144   9.641   0.478   6.718
   62SBC   C0DW43145   9.545   0.488   6.617
   62SBC   C0FE43146   9.534   0.394   6.517
   62SBC   C0DV43147   9.460   0.593   6.605
   62SBC   C0DX43148   9.385   0.613   6.490
   62SBC   C0DK43149   9.302   0.726   6.480
   62SBC   C0DJ43150   9.305   0.822   6.584
   62SBC   C0DI43151   9.223   0.935   6.579
   62SBC   C0DH43152   9.145   0.958   6.470
   62SBC   C0DG43153   9.154   0.873   6.358
   62SBC   C0BV43154   9.086   0.902   6.241
   62SBC   C0BC43155   9.104   0.818   6.131
   62SBC   C0BA43156   9.005   1.015   6.239
   62SBC   C0B443157   8.934   1.036   6.122
   62SBC   C0B343158   8.949   0.952   6.007
   62SBC   C0B543159   8.840   1.135   6.118
   62SBC   C0BU43160   8.827   1.219   6.231
   62SBC   C0BT43161   8.899   1.204   6.344
   62SBC   C0BS43162   8.877   1.281   6.456
   62SBC   C0CC43163   8.965   1.264   6.564
   62SBC   C0CB43164   8.955   1.349   6.678
   62SBC   C0CH43165   9.073   1.348   6.757
   62SBC   C0DO43166   9.173   1.252   6.758
   62SBC   C0DP43167   9.280   1.251   6.847
   62SBC   C0EA43168   9.301   1.360   6.935
   62SBC   H01243169   9.258   1.457   6.911
   62SBC   O00943170   9.393   1.352   7.033
   62SBC   C0EH43171   9.481   1.250   7.032
   62SBC   C0EG43172   9.594   1.262   7.107
   62SBC   C0EJ43173   9.646   1.367   7.192
   62SBC   H01043174   9.606   1.468   7.194
   62SBC   C0EK43175   9.779   1.328   7.235
   62SBC   H00Z43176   9.845   1.399   7.282
   62SBC   C0EL43177   9.788   1.196   7.192
   62SBC   C0EM43178   9.898   1.104   7.207
   62SBC   C0EW43179  10.025   1.126   7.270
   62SBC   H01343180  10.045   1.220   7.320
   62SBC   C0EX43181  10.130   1.027   7.262
   62SBC   H01443182  10.231   1.050   7.294
   62SBC   C0F143183  10.111   0.903   7.183
   62SBC   C0EU43184   9.984   0.888   7.128
   62SBC   C0ET43185   9.947   0.782   7.046
   62SBC   C0ES43186   9.810   0.811   7.014
   62SBC   C0EE43187   9.774   0.938   7.060
   62SBC   C0ED43188   9.668   1.036   7.046
   62SBC   C0EC43189   9.551   1.027   6.959
   62SBC   C0EB43190   9.522   0.915   6.876
   62SBC   C0EN43191   9.602   0.792   6.878
   62SBC   C0ER43192   9.563   0.691   6.793
   62SBC   C0DS43193   9.418   0.917   6.777
   62SBC   C0DR43194   9.339   1.027   6.767
   62SBC   C0EY43195   9.725   0.738   6.937
   62SBC   C0EZ43196   9.764   0.617   6.876
   62SBC   C0F543197   9.885   0.531   6.870
   62SBC   C0F643198  10.010   0.560   6.930
   62SBC   N00843199  10.114   0.462   6.903
   62SBC   C0F743200  10.099   0.354   6.809
   62SBC   C0FQ43201  10.210   0.267   6.800
   62SBC   H01843202  10.211   0.198   6.717
   62SBC   C0FP43203  10.322   0.264   6.878
   62SBC   H01943204  10.402   0.193   6.866
   62SBC   C0FO43205  10.336   0.379   6.952
   62SBC   H01A43206  10.429   0.396   7.005
   62SBC   C0F843207   9.979   0.351   6.731
   62SBC   C0F943208  10.236   0.482   6.965
   62SBC   C0FA43209  10.270   0.590   7.047
   62SBC   H01543210  10.367   0.596   7.093
   62SBC   C0FB43211  10.167   0.690   7.072
   62SBC   C0FD43212  10.041   0.672   7.012
   62SBC   C0FC43213  10.208   0.800   7.155
   62SBC   O00A43214  10.322   0.810   7.209
   62SBC   C0EV43215   9.879   0.975   7.143
   62SBC   C0EF43216   9.679   1.158   7.111
   62SBC   C0EI43217   9.465   1.135   6.951
   62SBC   C0DQ43218   9.364   1.137   6.854
   62SBC   C0CE43219   9.153   1.149   6.672
   62SBC   H00U43220   9.078   1.424   6.833
   62SBC   C0CA43221   8.836   1.425   6.704
   62SBC   C0C943222   8.741   1.437   6.592
   62SBC   C0C843223   8.617   1.504   6.620
   62SBC   C0C743224   8.531   1.586   6.533
   62SBC   C0C643225   8.424   1.649   6.598
   62SBC   C0C543226   8.329   1.760   6.576
   62SBC   C0CQ43227   8.268   1.810   6.690
   62SBC   C0D143228   8.330   1.783   6.815
   62SBC   C0D843229   8.343   1.903   6.884
   62SBC   C0D743230   8.242   1.988   6.829
   62SBC   C0D643231   8.214   2.122   6.864
   62SBC   C0D543232   8.105   2.198   6.819
   62SBC   C0D443233   8.037   2.186   6.692
   62SBC   C0D343234   7.992   2.317   6.658
   62SBC   C0CX43235   7.979   2.324   6.515
   62SBC   C0CW43236   8.049   2.197   6.461
   62SBC   C0CV43237   8.088   2.127   6.335
   62SBC   C0D243238   8.033   2.179   6.212
   62SBC   C09D43239   7.964   2.305   6.193
   62SBC   C09C43240   7.929   2.348   6.061
   62SBC   C09B43241   7.870   2.473   6.022
   62SBC   C09A43242   7.831   2.557   6.126
   62SBC   C09943243   7.865   2.522   6.249
   62SBC   C09843244   7.790   2.596   6.340
   62SBC   C08Y43245   7.686   2.666   6.262
   62SBC   C08X43246   7.560   2.728   6.300
   62SBC   C08W43247   7.534   2.733   6.440
   62SBC   C08U43248   7.607   2.659   6.554
   62SBC   C08V43249   7.712   2.568   6.564
   62SBC   C0DC43250   7.722   2.525   6.696
   62SBC   H00W43251   7.790   2.446   6.722
   62SBC   C0DB43252   7.638   2.602   6.780
   62SBC   H00X43253   7.634   2.591   6.887
   62SBC   C08T43254   7.562   2.682   6.683
   62SBC   C08S43255   7.458   2.764   6.714
   62SBC   H00N43256   7.440   2.783   6.819
   62SBC   C08R43257   7.373   2.811   6.617
   62SBC   C08Q43258   7.251   2.880   6.635
   62SBC   H00O43259   7.225   2.895   6.739
   62SBC   C08P43260   7.156   2.921   6.539
   62SBC   C08O43261   7.030   2.991   6.564
   62SBC   H00P43262   7.015   3.025   6.666
   62SBC   C08N43263   6.937   3.017   6.462
   62SBC   C08M43264   6.816   3.084   6.492
   62SBC   O00843265   6.784   3.125   6.605
   62SBC   O00743266   6.729   3.107   6.382
   62SBC   C08H43267   6.751   3.060   6.254
   62SBC   C08G43268   6.654   3.069   6.146
   62SBC   C03V43269   6.524   3.115   6.143
   62SBC   H00943270   6.486   3.158   6.234
   62SBC   C03U43271   6.443   3.122   6.031
   62SBC   C03W43272   6.312   3.180   6.027
   62SBC   H00A43273   6.277   3.215   6.123
   62SBC   C03X43274   6.248   3.202   5.911
   62SBC   H00B43275   6.151   3.250   5.916
   62SBC   O00543276   6.291   3.160   5.788
   62SBC   C03O43277   6.414   3.094   5.794
   62SBC   C03N43278   6.473   3.055   5.674
   62SBC   O00043279   6.387   3.076   5.576
   62SBC   C01943280   6.427   3.023   5.452
   62SBC   C01843281   6.549   2.956   5.432
   62SBC   C01743282   6.638   2.952   5.541
   62SBC   C01643283   6.769   2.900   5.528
   62SBC   C01543284   6.797   2.859   5.396
   62SBC   C01443285   6.929   2.814   5.373
   62SBC   C01343286   7.024   2.805   5.474
   62SBC   C01243287   7.141   2.752   5.404
   62SBC   C01143288   7.094   2.738   5.265
   62SBC   C01043289   7.183   2.707   5.167
   62SBC   C00Z43290   7.145   2.667   5.039
   62SBC   C00Y43291   7.260   2.597   4.999
   62SBC   C01O43292   7.356   2.588   5.099
   62SBC   C01P43293   7.428   2.470   5.118
   62SBC   C02L43294   7.486   2.449   5.244
   62SBC   C02K43295   7.452   2.540   5.345
   62SBC   C01M43296   7.344   2.638   5.338
   62SBC   C02J43297   7.535   2.536   5.457
   62SBC   C02I43298   7.532   2.618   5.573
   62SBC   C02H43299   7.443   2.710   5.616
   62SBC   C01Q43300   7.320   2.742   5.565
   62SBC   C02G43301   7.246   2.817   5.664
   62SBC   C08943302   7.340   2.847   5.766
   62SBC   C08843303   7.270   2.868   5.886
   62SBC   C08743304   7.132   2.884   5.838
   62SBC   C08643305   7.017   2.910   5.921
   62SBC   C03S43306   6.887   2.950   5.882
   62SBC   N00643307   6.821   2.987   5.996
   62SBC   C08F43308   6.898   2.966   6.103
   62SBC   C01J43309   6.816   2.953   5.765
   62SBC   C03R43310   6.684   2.998   5.774
   62SBC   C03Q43311   6.622   3.031   5.898
   62SBC   C08E43312   7.021   2.918   6.066
   62SBC   C08D43313   7.123   2.892   6.163
   62SBC   C08K43314   7.095   2.918   6.298
   62SBC   C08C43315   7.256   2.847   6.140
   62SBC   C09143316   7.340   2.813   6.248
   62SBC   C09243317   7.310   2.832   6.387
   62SBC   C08B43318   7.320   2.821   6.018
   62SBC   C09043319   7.457   2.774   6.056
   62SBC   C09443320   7.572   2.764   5.972
   62SBC   C09543321   7.680   2.685   6.008
   62SBC   C09R43322   7.724   2.616   5.895
   62SBC   C09743323   7.654   2.645   5.778
   62SBC   C09643324   7.563   2.738   5.828
   62SBC   C01I43325   7.111   2.852   5.697
   62SBC   C08A43326   7.456   2.772   5.740
   62SBC   C09L43327   7.642   2.583   5.653
   62SBC   C09K43328   7.711   2.475   5.586
   62SBC   C09J43329   7.778   2.382   5.667
   62SBC   C09I43330   7.826   2.255   5.617
   62SBC   C09O43331   7.826   2.180   5.497
   62SBC   C09N43332   7.751   2.218   5.385
   62SBC   C09M43333   7.657   2.328   5.375
   62SBC   C06O43334   7.757   2.128   5.277
   62SBC   C05M43335   7.845   2.017   5.280
   62SBC   C06P43336   7.920   1.986   5.392
   62SBC   C04243337   7.856   1.931   5.175
   62SBC   C04143338   7.779   1.949   5.062
   62SBC   C04043339   7.784   1.858   4.956
   62SBC   C03Z43340   7.687   1.863   4.855
   62SBC   C03Y43341   7.599   1.966   4.848
   62SBC   C02743342   7.508   1.971   4.741
   62SBC   C02643343   7.421   2.084   4.728
   62SBC   C02843344   7.337   2.095   4.625
   62SBC   C02943345   7.323   1.995   4.531
   62SBC   C02B43346   7.231   1.999   4.433
   62SBC   C02C43347   7.218   1.893   4.345
   62SBC   C02X43348   7.108   1.886   4.268
   62SBC   C03E43349   7.102   1.783   4.179
   62SBC   C03G43350   7.183   1.675   4.181
   62SBC   C04Q43351   7.286   1.673   4.267
   62SBC   C04R43352   7.371   1.568   4.275
   62SBC   C04S43353   7.471   1.567   4.372
   62SBC   C04L43354   7.492   1.676   4.458
   62SBC   C04M43355   7.400   1.783   4.446
   62SBC   C04K43356   7.585   1.671   4.552
   62SBC   C04F43357   7.675   1.567   4.554
   62SBC   C04E43358   7.666   1.463   4.463
   62SBC   C04D43359   7.754   1.355   4.472
   62SBC   C05043360   7.748   1.256   4.376
   62SBC   C05143361   7.850   1.155   4.375
   62SBC   C05Q43362   7.832   1.042   4.294
   62SBC   C05V43363   7.935   0.948   4.295
   62SBC   N00543364   7.921   0.843   4.207
   62SBC   C07V43365   7.805   0.834   4.124
   62SBC   C08243366   7.795   0.724   4.034
   62SBC   C08143367   7.892   0.622   4.028
   62SBC   C07C43368   8.010   0.639   4.103
   62SBC   C07B43369   8.114   0.544   4.099
   62SBC   C08043370   8.105   0.433   4.015
   62SBC   C07Z43371   8.215   0.348   3.999
   62SBC   H00L43372   8.204   0.269   3.926
   62SBC   C07943373   8.339   0.371   4.063
   62SBC   C07843374   8.345   0.477   4.155
   62SBC   C07743375   8.466   0.497   4.234
   62SBC   C07X43376   8.576   0.410   4.220
   62SBC   H00I43377   8.671   0.432   4.265
   62SBC   C07Y43378   8.569   0.300   4.133
   62SBC   H00H43379   8.649   0.228   4.122
   62SBC   C07643380   8.470   0.597   4.327
   62SBC   C06C43381   8.591   0.619   4.404
   62SBC   H00C43382   8.686   0.572   4.384
   62SBC   C06F43383   8.354   0.678   4.341
   62SBC   C06E43384   8.346   0.768   4.446
   62SBC   C06G43385   8.253   0.866   4.464
   62SBC   C06H43386   8.142   0.861   4.375
   62SBC   C06I43387   8.136   0.757   4.279
   62SBC   C06L43388   8.258   0.957   4.574
   62SBC   C06M43389   8.364   0.955   4.673
   62SBC   C06K43390   8.158   1.055   4.570
   62SBC   C05S43391   8.053   1.055   4.476
   62SBC   C05U43392   8.154   1.147   4.671
   62SBC   C05X43393   8.255   1.147   4.777
   62SBC   C05G43394   8.236   1.258   4.869
   62SBC   C05F43395   8.140   1.357   4.843
   62SBC   C05E43396   8.141   1.452   4.942
   62SBC   C04843397   8.054   1.553   4.948
   62SBC   C05643398   8.050   1.627   5.061
   62SBC   C04543399   7.953   1.732   5.062
   62SBC   C04743400   7.960   1.555   4.852
   62SBC   C04943401   7.955   1.455   4.753
   62SBC   C04B43402   7.862   1.460   4.659
   62SBC   C04643403   7.863   1.651   4.854
   62SBC   C04H43404   7.769   1.664   4.751
   62SBC   C05D43405   8.230   1.420   5.041
   62SBC   C04A43406   8.048   1.352   4.748
   62SBC   C05T43407   8.059   1.251   4.658
   62SBC   C05543408   7.960   1.256   4.563
   62SBC   C06D43409   8.463   0.785   4.524
   62SBC   C07W43410   8.239   0.664   4.259
   62SBC   C08543411   8.459   0.287   4.054
   62SBC   H00M43412   8.461   0.204   3.984
   62SBC   C08443413   7.994   0.413   3.942
   62SBC   H00J43414   7.982   0.322   3.885
   62SBC   C07A43415   8.234   0.563   4.165
   62SBC   C08343416   7.886   0.504   3.953
   62SBC   H00K43417   7.800   0.490   3.890
   62SBC   O00K43418   7.677   0.708   3.959
   62SBC   C0GO43419   7.592   0.814   3.955
   62SBC   C0GN43420   7.488   0.802   3.862
   62SBC   H01L43421   7.492   0.708   3.810
   62SBC   C0GM43422   7.382   0.900   3.863
   62SBC   C0GL43423   7.265   0.872   3.805
   62SBC   H01M43424   7.252   0.777   3.754
   62SBC   O00J43425   7.158   0.953   3.812
   62SBC   C0GK43426   7.186   1.079   3.874
   62SBC   H01N43427   7.095   1.137   3.879
   62SBC   C05K43428   7.302   1.113   3.939
   62SBC   C05J43429   7.314   1.236   4.009
   62SBC   C04Y43430   7.225   1.345   4.015
   62SBC   C04X43431   7.245   1.455   4.095
   62SBC   O00643432   7.125   1.349   3.924
   62SBC   C05343433   7.025   1.443   3.929
   62SBC   C04O43434   7.037   1.556   4.011
   62SBC   C03C43435   6.951   1.676   4.017
   62SBC   C03B43436   6.815   1.709   3.970
   62SBC   C05443437   6.741   1.626   3.898
   62SBC   C0GR43438   6.601   1.651   3.875
   62SBC   C03M43439   6.502   1.760   3.913
   62SBC   C03I43440   6.528   1.869   4.004
   62SBC   C03J43441   6.420   1.949   4.040
   62SBC   N00243442   6.431   2.066   4.131
   62SBC   C02U43443   6.329   2.154   4.165
   62SBC   C02T43444   6.344   2.259   4.250
   62SBC   C02Z43445   6.231   2.332   4.292
   62SBC   N00143446   6.245   2.444   4.388
   62SBC   C02R43447   6.133   2.518   4.425
   62SBC   C03243448   6.003   2.482   4.375
   62SBC   C03143449   5.992   2.375   4.282
   62SBC   H00743450   5.894   2.337   4.255
   62SBC   C03343451   5.894   2.575   4.416
   62SBC   H00343452   5.794   2.556   4.382
   62SBC   O00443453   5.910   2.674   4.509
   62SBC   C03443454   6.043   2.704   4.546
   62SBC   C03543455   6.059   2.819   4.623
   62SBC   C03643456   6.183   2.864   4.660
   62SBC   H00543457   6.175   2.949   4.725
   62SBC   C03743458   6.293   2.792   4.614
   62SBC   H00643459   6.388   2.829   4.650
   62SBC   C00D43460   6.281   2.665   4.549
   62SBC   C00C43461   6.388   2.581   4.530
   62SBC   C00B43462   6.515   2.599   4.596
   62SBC   C00A43463   6.581   2.675   4.709
   62SBC   C00943464   6.726   2.652   4.683
   62SBC   C00843465   6.826   2.639   4.782
   62SBC   C00743466   6.802   2.700   4.902
   62SBC   C00643467   6.902   2.712   4.995
   62SBC   C00543468   6.873   2.761   5.126
   62SBC   C00443469   6.742   2.808   5.157
   62SBC   C00343470   6.641   2.791   5.063
   62SBC   C00243471   6.511   2.831   5.093
   62SBC   C01C43472   6.493   2.908   5.208
   62SBC   C01B43473   6.379   2.995   5.220
   62SBC   H00043474   6.312   3.013   5.137
   62SBC   C00143475   6.405   2.790   5.014
   62SBC   C00043476   6.433   2.710   4.902
   62SBC   C01U43477   6.304   2.660   4.873
   62SBC   H00243478   6.272   2.593   4.795
   62SBC   C01T43479   6.199   2.729   4.955
   62SBC   O00243480   6.079   2.744   4.943
   62SBC   O00143481   6.270   2.798   5.047
   62SBC   C01S43482   6.669   2.734   4.941
   62SBC   C00N43483   6.947   2.576   4.749
   62SBC   C00M43484   6.964   2.498   4.633
   62SBC   C00J43485   6.860   2.489   4.542
   62SBC   C00I43486   6.839   2.384   4.460
   62SBC   C00H43487   6.718   2.364   4.393
   62SBC   C00G43488   6.606   2.431   4.425
   62SBC   C00F43489   6.479   2.402   4.385
   62SBC   C01X43490   6.696   2.251   4.319
   62SBC   C01W43491   6.802   2.164   4.297
   62SBC   C01V43492   6.921   2.186   4.365
   62SBC   C02043493   7.028   2.096   4.355
   62SBC   C01Z43494   6.782   2.056   4.211
   62SBC   C02Y43495   6.892   1.976   4.202
   62SBC   C03943496   6.885   1.871   4.107
   62SBC   C02W43497   6.663   2.022   4.148
   62SBC   C01Y43498   6.571   2.218   4.262
   62SBC   C00U43499   6.942   2.294   4.448
   62SBC   C00S43500   7.053   2.306   4.522
   62SBC   C00T43501   7.149   2.207   4.522
   62SBC   C00R43502   7.064   2.404   4.620
   62SBC   C00Q43503   7.159   2.402   4.721
   62SBC   C00V43504   7.251   2.304   4.713
   62SBC   C02443505   7.340   2.289   4.820
   62SBC   C00X43506   7.343   2.385   4.918
   62SBC   C00P43507   7.157   2.494   4.820
   62SBC   C00O43508   7.050   2.583   4.838
   62SBC   C00K43509   6.746   2.569   4.570
   62SBC   N00043510   6.560   2.698   4.850
   62SBC   C00L43511   6.620   2.538   4.521
   62SBC   H00443512   5.974   2.884   4.637
   62SBC   C02Q43513   6.154   2.625   4.507
   62SBC   C00E43514   6.372   2.476   4.437
   62SBC   C03043515   6.102   2.300   4.241
   62SBC   O00343516   6.093   2.195   4.150
   62SBC   C02S43517   6.465   2.296   4.295
   62SBC   C03843518   6.202   2.121   4.115
   62SBC   C03L43519   6.188   2.010   4.032
   62SBC   H00843520   6.091   1.981   3.995
   62SBC   C02V43521   6.558   2.103   4.178
   62SBC   C03K43522   6.289   1.930   3.996
   62SBC   C0BK43523   6.280   1.824   3.906
   62SBC   H00T43524   6.179   1.795   3.882
   62SBC   C03H43525   6.649   1.907   4.061
   62SBC   C0BL43526   6.373   1.740   3.852
   62SBC   C0GU43527   6.346   1.632   3.762
   62SBC   H01O43528   6.254   1.628   3.706
   62SBC   C0GT43529   6.438   1.528   3.732
   62SBC   H01P43530   6.404   1.453   3.661
   62SBC   C0GS43531   6.564   1.539   3.786
   62SBC   C0GV43532   6.683   1.459   3.764
   62SBC   C0GW43533   6.692   1.333   3.688
   62SBC   H01Q43534   6.601   1.297   3.643
   62SBC   C0GX43535   6.813   1.270   3.684
   62SBC   H01R43536   6.832   1.183   3.624
   62SBC   O00L43537   6.919   1.314   3.764
   62SBC   C0GQ43538   6.793   1.507   3.836
   62SBC   C03A43539   6.768   1.827   4.038
   62SBC   C05L43540   6.918   1.430   3.843
   62SBC   C04W43541   7.427   1.243   4.096
   62SBC   C05I43542   7.525   1.139   4.102
   62SBC   C05O43543   7.513   1.033   4.023
   62SBC   C05243544   7.635   1.147   4.195
   62SBC   C04V43545   7.442   1.347   4.187
   62SBC   C04U43546   7.546   1.352   4.280
   62SBC   N00943547   7.410   1.021   3.934
   62SBC   C0GP43548   7.602   0.926   4.034
   62SBC   C05W43549   7.714   0.935   4.123
   62SBC   C07D43550   8.024   0.745   4.195
   62SBC   C06J43551   8.040   0.948   4.388
   62SBC   C05P43552   7.726   1.042   4.205
   62SBC   C05R43553   7.952   1.153   4.473
   62SBC   C04Z43554   7.644   1.255   4.283
   62SBC   C04C43555   7.862   1.356   4.563
   62SBC   C04G43556   7.773   1.566   4.649
   62SBC   C04J43557   7.592   1.771   4.650
   62SBC   C04T43558   7.561   1.461   4.369
   62SBC   N00343559   7.353   1.463   4.189
   62SBC   C04P43560   7.152   1.563   4.097
   62SBC   C03D43561   6.988   1.779   4.097
   62SBC   C02143562   7.010   1.984   4.274
   62SBC   C03F43563   7.304   1.782   4.348
   62SBC   C02243564   7.139   2.103   4.431
   62SBC   C02A43565   7.411   1.885   4.538
   62SBC   C02343566   7.246   2.206   4.616
   62SBC   C02543567   7.428   2.188   4.825
   62SBC   C02D43568   7.512   2.170   4.936
   62SBC   C02E43569   7.516   2.270   5.036
   62SBC   C02N43570   7.596   2.258   5.150
   62SBC   C04N43571   7.504   1.877   4.643
   62SBC   C02P43572   7.596   2.062   4.947
   62SBC   C04I43573   7.683   1.766   4.755
   62SBC   C04443574   7.869   1.749   4.958
   62SBC   C04343575   7.687   2.054   5.054
   62SBC   C05N43576   7.680   2.149   5.156
   62SBC   C09U43577   7.906   2.064   5.509
   62SBC   C09V43578   7.976   2.021   5.621
   62SBC   C09X43579   7.970   2.090   5.741
   62SBC   C09Y43580   8.028   2.054   5.860
   62SBC   C0A143581   8.101   1.941   5.865
   62SBC   C0A243582   8.121   1.872   5.744
   62SBC   C0A443583   8.213   1.766   5.740
   62SBC   C07143584   8.242   1.703   5.625
   62SBC   C0A543585   8.329   1.598   5.623
   62SBC   C0A943586   8.390   1.556   5.746
   62SBC   C0A843587   8.366   1.624   5.862
   62SBC   C0AP43588   8.432   1.592   5.977
   62SBC   C0BY43589   8.409   1.667   6.087
   62SBC   C0BX43590   8.317   1.767   6.095
   62SBC   C0C243591   8.297   1.841   6.211
   62SBC   C0C343592   8.203   1.945   6.218
   62SBC   C0CT43593   8.143   1.987   6.096
   62SBC   C0C143594   8.364   1.803   6.330
   62SBC   C0C043595   8.471   1.703   6.324
   62SBC   C0A743596   8.250   1.803   5.978
   62SBC   C0BZ43597   8.479   1.635   6.199
   62SBC   C0BO43598   8.566   1.531   6.199
   62SBC   C0BN43599   8.586   1.448   6.090
   62SBC   C0BM43600   8.670   1.345   6.103
   62SBC   C0B943601   8.696   1.270   5.986
   62SBC   C0B843602   8.625   1.303   5.874
   62SBC   C0AD43603   8.541   1.411   5.865
   62SBC   C0AF43604   8.641   1.229   5.760
   62SBC   C0AG43605   8.729   1.116   5.760
   62SBC   C0B743606   8.800   1.086   5.878
   62SBC   C0AE43607   8.584   1.277   5.646
   62SBC   C0AB43608   8.500   1.385   5.636
   62SBC   C0AA43609   8.432   1.417   5.517
   62SBC   C0AJ43610   8.608   1.197   5.531
   62SBC   C0AK43611   8.544   1.232   5.415
   62SBC   C06W43612   8.570   1.126   5.331
   62SBC   C0AI43613   8.685   1.080   5.521
   62SBC   C0BP43614   8.623   1.515   6.324
   62SBC   C0BQ43615   8.715   1.403   6.338
   62SBC   C0BW43616   8.518   1.483   5.981
   62SBC   C0AC43617   8.478   1.453   5.749
   62SBC   C0A643618   8.276   1.731   5.860
   62SBC   C0A343619   8.162   1.907   5.981
   62SBC   C09Z43620   8.006   2.137   5.975
   62SBC   C09W43621   8.059   1.912   5.624
   62SBC   C07243622   8.086   1.842   5.505
   62SBC   C09H43623   7.891   2.205   5.736
   62SBC   C09G43624   7.895   2.293   5.841
   62SBC   C09P43625   7.823   2.402   5.799
   62SBC   C02O43626   7.640   2.442   5.466
   62SBC   C02M43627   7.577   2.344   5.260
   62SBC   C02F43628   7.434   2.376   5.021
   62SBC   C00W43629   7.250   2.488   4.911
   62SBC   C01R43630   7.029   2.658   4.956
   62SBC   C01N43631   7.303   2.653   5.208
   62SBC   C01L43632   7.273   2.708   5.442
   62SBC   C01H43633   7.000   2.849   5.610
   62SBC   C01K43634   6.961   2.766   5.246
   62SBC   C01E43635   6.711   2.857   5.285
   62SBC   C01G43636   6.863   2.900   5.638
   62SBC   C01D43637   6.584   2.902   5.310
   62SBC   C01A43638   6.346   3.052   5.337
   62SBC   H00143639   6.258   3.115   5.347
   62SBC   C01F43640   6.601   3.005   5.664
   62SBC   C03P43641   6.495   3.081   5.909
   62SBC   C03T43642   6.696   3.031   6.017
   62SBC   C08I43643   6.876   3.002   6.234
   62SBC   C08J43644   6.969   2.975   6.331
   62SBC   C08L43645   7.182   2.887   6.406
   62SBC   C09343646   7.408   2.792   6.482
   62SBC   C08Z43647   7.463   2.767   6.202
   62SBC   C09T43648   7.799   2.528   6.455
   62SBC   C09S43649   7.729   2.647   6.129
   62SBC   C09Q43650   7.803   2.496   5.901
   62SBC   C09F43651   7.946   2.258   5.963
   62SBC   C09E43652   7.918   2.402   6.290
   62SBC   C0A043653   8.061   2.100   6.100
   62SBC   C0CU43654   8.178   2.014   6.338
   62SBC   C0CR43655   8.225   1.955   6.457
   62SBC   C0CZ43656   8.169   2.002   6.580
   62SBC   C0DA43657   7.903   2.419   6.432
   62SBC   C0D943658   8.058   2.412   6.751
   62SBC   H00V43659   8.058   2.519   6.741
   62SBC   C0CY43660   8.093   2.126   6.576
   62SBC   C0DF43661   8.129   2.333   6.848
   62SBC   C0DE43662   8.234   2.333   6.944
   62SBC   C0GI43663   8.291   2.437   7.022
   62SBC   H01K43664   8.254   2.538   7.022
   62SBC   C0GJ43665   8.402   2.406   7.096
   62SBC   H01J43666   8.442   2.487   7.156
   62SBC   O00I43667   8.463   2.279   7.108
   62SBC   C0GH43668   8.402   2.175   7.032
   62SBC   C0GG43669   8.472   2.051   7.036
   62SBC   O00G43670   8.575   2.064   7.124
   62SBC   C0G843671   8.642   1.950   7.161
   62SBC   C0G943672   8.717   1.959   7.276
   62SBC   H01G43673   8.724   2.045   7.341
   62SBC   C0GA43674   8.797   1.853   7.314
   62SBC   H01H43675   8.852   1.867   7.407
   62SBC   C0GB43676   8.818   1.740   7.233
   62SBC   C0EP43677   8.752   1.736   7.112
   62SBC   C0E843678   8.793   1.637   7.012
   62SBC   C0CK43679   8.753   1.603   6.880
   62SBC   C0CL43680   8.618   1.614   6.849
   62SBC   C0E943681   8.532   1.710   6.897
   62SBC   C0GE43682   8.547   1.831   6.987
   62SBC   C0E743683   8.864   1.524   7.058
   62SBC   C0CJ43684   8.875   1.425   6.962
   62SBC   C0E643685   8.933   1.304   6.999
   62SBC   H00Y43686   8.943   1.214   6.941
   62SBC   C0EO43687   9.001   1.307   7.122
   62SBC   H01143688   9.050   1.213   7.140
   62SBC   C0G643689   8.999   1.414   7.217
   62SBC   C0G543690   9.065   1.414   7.341
   62SBC   H01F43691   9.122   1.332   7.381
   62SBC   C0GD43692   9.034   1.517   7.426
   62SBC   H01I43693   9.082   1.510   7.522
   62SBC   O00H43694   8.958   1.628   7.396
   62SBC   C0EQ43695   8.919   1.519   7.189
   62SBC   C0GC43696   8.902   1.630   7.272
   62SBC   C0G743697   8.650   1.837   7.078
   62SBC   C0DD43698   8.287   2.202   6.957
   62SBC   C0GF43699   8.444   1.932   6.973
   62SBC   C0CO43700   8.418   1.686   6.823
   62SBC   C0D043701   8.216   1.938   6.694
   62SBC   C0C443702   8.308   1.837   6.455
   62SBC   C0CN43703   8.430   1.586   6.727
   62SBC   C0CP43704   8.560   1.619   6.403
   62SBC   C0CM43705   8.555   1.533   6.749
   62SBC   C0CI43706   8.822   1.483   6.839
   62SBC   C0CD43707   9.058   1.162   6.568
   62SBC   C0BR43708   8.777   1.377   6.462
   62SBC   C0CS43709   8.733   1.322   6.223
   62SBC   C0B643710   8.780   1.165   5.994
   62SBC   C0CG43711   8.986   1.098   6.349
   62SBC   C0CF43712   9.062   1.070   6.464
   62SBC   C0E543713   9.237   1.038   6.669
   62SBC   C0DT43714   9.393   0.809   6.689
   62SBC   C0DL43715   9.230   0.751   6.367
   62SBC   C0DM43716   9.245   0.669   6.258
   62SBC   C0DY43717   9.402   0.532   6.382
   62SBC   C0DU43718   9.473   0.702   6.691
   62SBC   C0F043719   9.651   0.586   6.803
   62SBC   C0F443720   9.874   0.426   6.773
   62SBC   C0FG43721   9.633   0.291   6.528
   62SBC   O00B43722   9.980   0.271   6.615
   62SBC   C0FN43723   9.674   0.216   6.419
   62SBC   C0DZ43724   9.482   0.415   6.386
   62SBC   O00C43725   9.478   0.316   6.036
   62SBC   C0FR43726   9.429   0.346   5.916
   62SBC   O00D43727   9.484   0.295   5.823
   62SBC   C0E043728   9.338   0.563   6.260
   62SBC   C0E343729   9.309   0.425   5.917
   62SBC   C0AW43730   9.228   0.442   5.808
   62SBC   C0AV43731   9.229   0.363   5.689
   62SBC   H00Q43732   9.288   0.273   5.682
   62SBC   C0AU43733   9.141   0.389   5.585
   62SBC   H00R43734   9.126   0.322   5.501
   62SBC   C0AT43735   9.066   0.510   5.589
   62SBC   C0AS43736   8.986   0.589   5.494
   62SBC   C0AR43737   8.998   0.565   5.358
   62SBC   C0BE43738   9.067   0.587   5.704
   62SBC   C0DN43739   9.184   0.704   6.141
   62SBC   C0AX43740   9.143   0.557   5.815
   62SBC   C0BB43741   9.034   0.846   6.014
   62SBC   C0BD43742   8.992   0.701   5.683
   62SBC   C0B243743   8.884   0.981   5.884
   62SBC   C0AH43744   8.751   1.033   5.641
   62SBC   C0BF43745   8.942   0.714   5.557
   62SBC   C0AL43746   8.671   1.037   5.383
   62SBC   C07U43747   8.830   0.736   5.269
   62SBC   C0AQ43748   8.920   0.630   5.262
   62SBC   C0BG43749   9.077   0.461   5.287
   62SBC   C0FY43750   9.135   0.473   4.929
   62SBC   C0BJ43751   9.221   0.460   5.271
   62SBC   H00S43752   9.291   0.480   5.351
   62SBC   C0FZ43753   9.272   0.483   4.909
   62SBC   C07S43754   9.048   0.556   4.852
   62SBC   C0G143755   9.293   0.617   4.576
   62SBC   C07K43756   8.985   0.749   4.414
   62SBC   C07H43757   8.885   0.701   4.677
   62SBC   C06B43758   8.578   0.711   4.504
   62SBC   C06N43759   8.466   0.858   4.639
   62SBC   C06643760   8.754   0.768   4.890
   62SBC   C06243761   8.587   0.951   5.083
   62SBC   C05Y43762   8.354   1.038   4.785
   62SBC   C06143763   8.480   1.030   5.127
   62SBC   C05H43764   8.295   1.304   4.993
   62SBC   C06V43765   8.488   1.130   5.222
   62SBC   C06Y43766   8.449   1.335   5.407
   62SBC   C05C43767   8.221   1.498   5.167
   62SBC   C06Z43768   8.346   1.522   5.510
   62SBC   C07043769   8.177   1.734   5.507
   62SBC   C05B43770   8.130   1.607   5.170
   62SBC   C05743771   7.949   1.827   5.167
   62SBC   C05943772   8.012   1.872   5.391
   63SBC   C05843773   3.083   8.386  11.085
   63SBC   C05A43774   3.095   8.441  10.955
   63SBC   C06Q43775   3.154   8.369  10.856
   63SBC   C06R43776   3.181   8.417  10.728
   63SBC   C06S43777   3.139   8.552  10.699
   63SBC   C06T43778   3.154   8.598  10.564
   63SBC   C06U43779   3.137   8.734  10.504
   63SBC   C06X43780   3.102   8.861  10.555
   63SBC   C06043781   3.119   8.969  10.458
   63SBC   C05Z43782   3.033   9.080  10.422
   63SBC   C06843783   3.056   9.090  10.276
   63SBC   C06743784   3.035   9.208  10.190
   63SBC   C06943785   2.974   9.325  10.243
   63SBC   C06A43786   2.976   9.452  10.182
   63SBC   C07343787   3.070   9.525  10.113
   63SBC   C07P43788   3.107   9.657  10.157
   63SBC   C07O43789   3.087   9.704  10.290
   63SBC   H00D43790   3.045   9.646  10.371
   63SBC   C07N43791   3.130   9.828  10.326
   63SBC   H00E43792   3.112   9.869  10.424
   63SBC   C07M43793   3.183   9.908  10.230
   63SBC   H00F43794   3.210  10.009  10.258
   63SBC   C07L43795   3.207   9.869  10.099
   63SBC   C07Q43796   3.264   9.948   9.997
   63SBC   H00G43797   3.292  10.048  10.025
   63SBC   O00F43798   3.304   9.901   9.877
   63SBC   C07J43799   3.260   9.776   9.848
   63SBC   C07I43800   3.185   9.696   9.938
   63SBC   N00443801   3.156   9.558   9.898
   63SBC   C07R43802   3.181   9.520   9.763
   63SBC   C07T43803   3.264   9.600   9.688
   63SBC   C0FX43804   3.335   9.549   9.578
   63SBC   C0FW43805   3.446   9.607   9.519
   63SBC   C0G043806   3.478   9.735   9.561
   63SBC   C0G243807   3.577   9.810   9.503
   63SBC   H01E43808   3.595   9.910   9.541
   63SBC   C0G343809   3.649   9.756   9.398
   63SBC   H01C43810   3.733   9.813   9.362
   63SBC   C0G443811   3.630   9.617   9.363
   63SBC   H01D43812   3.704   9.579   9.295
   63SBC   O00E43813   3.401   9.796   9.654
   63SBC   C0FV43814   3.523   9.539   9.419
   63SBC   C0FU43815   3.489   9.401   9.389
   63SBC   H01B43816   3.539   9.339   9.315
   63SBC   C0FT43817   3.372   9.348   9.449
   63SBC   C0FS43818   3.292   9.223   9.438
   63SBC   C0BI43819   3.168   9.238   9.515
   63SBC   C0BH43820   3.145   9.112   9.573
   63SBC   C07F43821   3.152   9.084   9.709
   63SBC   C07E43822   3.116   9.162   9.815
   63SBC   C07G43823   3.104   9.296   9.814
   63SBC   C07443824   3.093   9.328   9.951
   63SBC   C06543825   3.110   9.108   9.948
   63SBC   C06443826   3.147   8.980   9.971
   63SBC   C06343827   3.160   8.914  10.091
   63SBC   C07543828   3.196   8.772  10.050
   63SBC   C0AM43829   3.231   8.760   9.904
   63SBC   C0AN43830   3.263   8.645   9.823
   63SBC   C0AO43831   3.295   8.499   9.863
   63SBC   C0B143832   3.331   8.396   9.768
   63SBC   C0B043833   3.329   8.421   9.634
   63SBC   C0AZ43834   3.391   8.335   9.534
   63SBC   C0AY43835   3.413   8.378   9.405
   63SBC   N00743836   3.480   8.305   9.309
   63SBC   C0E243837   3.520   8.361   9.184
   63SBC   C0E143838   3.578   8.280   9.092
   63SBC   C0E443839   3.615   8.341   8.974
   63SBC   C0FF43840   3.670   8.263   8.866
   63SBC   C0FJ43841   3.724   8.303   8.736
   63SBC   C0FK43842   3.792   8.435   8.717
   63SBC   H01643843   3.776   8.520   8.781
   63SBC   C0FL43844   3.886   8.409   8.610
   63SBC   H01743845   3.949   8.479   8.556
   63SBC   C0FM43846   3.896   8.264   8.591
   63SBC   C0FH43847   3.983   8.152   8.568
   63SBC   C0FI43848   3.915   8.046   8.627
   63SBC   C0F343849   3.982   7.929   8.668
   63SBC   C0F243850   3.914   7.866   8.772
   63SBC   C0DW43851   3.806   7.917   8.847
   63SBC   C0FE43852   3.753   8.034   8.809
   63SBC   C0DV43853   3.788   7.871   8.973
   63SBC   C0DX43854   3.710   7.941   9.063
   63SBC   C0DK43855   3.706   7.902   9.195
   63SBC   C0DJ43856   3.771   7.785   9.241
   63SBC   C0DI43857   3.758   7.740   9.370
   63SBC   C0DH43858   3.675   7.812   9.458
   63SBC   C0DG43859   3.612   7.927   9.420
   63SBC   C0BV43860   3.536   8.002   9.513
   63SBC   C0BC43861   3.495   8.129   9.476
   63SBC   C0BA43862   3.520   7.960   9.644
   63SBC   C0B443863   3.464   8.045   9.737
   63SBC   C0B343864   3.424   8.173   9.699
   63SBC   C0B543865   3.458   8.001   9.867
   63SBC   C0BU43866   3.491   7.869   9.899
   63SBC   C0BT43867   3.562   7.793   9.807
   63SBC   C0BS43868   3.609   7.661   9.843
   63SBC   C0CC43869   3.690   7.589   9.750
   63SBC   C0CB43870   3.738   7.464   9.783
   63SBC   C0CH43871   3.854   7.434   9.714
   63SBC   C0DO43872   3.894   7.482   9.586
   63SBC   C0DP43873   3.987   7.420   9.501
   63SBC   C0EA43874   4.070   7.321   9.557
   63SBC   H01243875   4.062   7.280   9.657
   63SBC   O00943876   4.153   7.247   9.474
   63SBC   C0EH43877   4.184   7.298   9.352
   63SBC   C0EG43878   4.281   7.237   9.274
   63SBC   C0EJ43879   4.368   7.123   9.288
   63SBC   H01043880   4.359   7.048   9.366
   63SBC   C0EK43881   4.468   7.125   9.182
   63SBC   H00Z43882   4.549   7.055   9.171
   63SBC   C0EL43883   4.430   7.240   9.103
   63SBC   C0EM43884   4.489   7.306   8.992
   63SBC   C0EW43885   4.610   7.266   8.926
   63SBC   H01343886   4.666   7.181   8.963
   63SBC   C0EX43887   4.666   7.343   8.815
   63SBC   H01443888   4.759   7.319   8.766
   63SBC   C0F143889   4.589   7.458   8.769
   63SBC   C0EU43890   4.475   7.492   8.832
   63SBC   C0ET43891   4.387   7.596   8.803
   63SBC   C0ES43892   4.280   7.595   8.907
   63SBC   C0EE43893   4.312   7.488   8.994
   63SBC   C0ED43894   4.256   7.417   9.107
   63SBC   C0EC43895   4.134   7.461   9.167
   63SBC   C0EB43896   4.042   7.557   9.118
   63SBC   C0EN43897   4.052   7.608   8.985
   63SBC   C0ER43898   3.942   7.691   8.939
   63SBC   C0DS43899   3.938   7.611   9.198
   63SBC   C0DR43900   3.926   7.569   9.333
   63SBC   C0EY43901   4.150   7.622   8.883
   63SBC   C0EZ43902   4.117   7.714   8.785
   63SBC   C0F543903   4.191   7.802   8.692
   63SBC   C0F643904   4.330   7.785   8.658
   63SBC   N00843905   4.387   7.884   8.571
   63SBC   C0F743906   4.311   8.000   8.524
   63SBC   C0FQ43907   4.383   8.091   8.441
   63SBC   H01843908   4.338   8.188   8.425
   63SBC   C0FP43909   4.512   8.078   8.412
   63SBC   H01943910   4.557   8.154   8.350
   63SBC   C0FO43911   4.573   7.957   8.434
   63SBC   H01A43912   4.669   7.941   8.386
   63SBC   C0F843913   4.181   8.013   8.563
   63SBC   C0F943914   4.515   7.856   8.508
   63SBC   C0FA43915   4.592   7.738   8.529
   63SBC   H01543916   4.687   7.716   8.483
   63SBC   C0FB43917   4.542   7.649   8.629
   63SBC   C0FD43918   4.417   7.675   8.690
   63SBC   C0FC43919   4.630   7.538   8.666
   63SBC   O00A43920   4.739   7.518   8.612
   63SBC   C0EV43921   4.428   7.420   8.943
   63SBC   C0EF43922   4.316   7.297   9.161
   63SBC   C0EI43923   4.104   7.409   9.300
   63SBC   C0DQ43924   4.003   7.465   9.377
   63SBC   C0CE43925   3.818   7.587   9.542
   63SBC   H00U43926   3.909   7.349   9.752
   63SBC   C0CA43927   3.668   7.392   9.886
   63SBC   C0C943928   3.592   7.466   9.987
   63SBC   C0C843929   3.515   7.394  10.086
   63SBC   C0C743930   3.487   7.422  10.226
   63SBC   C0C643931   3.410   7.326  10.295
   63SBC   C0C543932   3.413   7.297  10.435
   63SBC   C0CQ43933   3.395   7.161  10.463
   63SBC   C0D143934   3.421   7.064  10.367
   63SBC   C0D843935   3.486   6.960  10.420
   63SBC   C0D743936   3.454   6.963  10.556
   63SBC   C0D643937   3.513   6.881  10.652
   63SBC   C0D543938   3.476   6.890  10.787
   63SBC   C0D443939   3.417   6.986  10.868
   63SBC   C0D343940   3.459   6.975  11.001
   63SBC   C0CX43941   3.440   7.107  11.063
   63SBC   C0CW43942   3.424   7.209  10.955
   63SBC   C0CV43943   3.413   7.356  10.939
   63SBC   C0D243944   3.402   7.441  11.047
   63SBC   C09D43945   3.395   7.404  11.186
   63SBC   C09C43946   3.384   7.500  11.290
   63SBC   C09B43947   3.353   7.469  11.424
   63SBC   C09A43948   3.338   7.334  11.458
   63SBC   C09943949   3.379   7.235  11.371
   63SBC   C09843950   3.334   7.110  11.417
   63SBC   C08Y43951   3.247   7.131  11.528
   63SBC   C08X43952   3.148   7.045  11.589
   63SBC   C08W43953   3.129   6.911  11.534
   63SBC   C08U43954   3.182   6.853  11.409
   63SBC   C08V43955   3.255   6.904  11.298
   63SBC   C0DC43956   3.277   6.795  11.207
   63SBC   H00W43957   3.339   6.807  11.119
   63SBC   C0DB43958   3.212   6.677  11.262
   63SBC   H00X43959   3.206   6.579  11.216
   63SBC   C08T43960   3.164   6.714  11.383
   63SBC   C08S43961   3.084   6.633  11.465
   63SBC   H00N43962   3.066   6.529  11.444
   63SBC   C08R43963   3.020   6.688  11.575
   63SBC   C08Q43964   2.938   6.610  11.658
   63SBC   H00O43965   2.923   6.506  11.633
   63SBC   C08P43966   2.863   6.655  11.774
   63SBC   C08O43967   2.777   6.576  11.858
   63SBC   H00P43968   2.760   6.471  11.842
   63SBC   C08N43969   2.705   6.634  11.968
   63SBC   C08M43970   2.614   6.553  12.055
   63SBC   O00843971   2.597   6.437  12.052
   63SBC   O00743972   2.548   6.616  12.157
   63SBC   C08H43973   2.555   6.752  12.175
   63SBC   C08G43974   2.493   6.821  12.285
   63SBC   C03V43975   2.413   6.766  12.382
   63SBC   H00943976   2.398   6.660  12.378
   63SBC   C03U43977   2.340   6.834  12.479
   63SBC   C03W43978   2.249   6.780  12.583
   63SBC   H00A43979   2.223   6.676  12.599
   63SBC   C03X43980   2.190   6.866  12.668
   63SBC   H00B43981   2.133   6.831  12.752
   63SBC   O00543982   2.209   7.001  12.669
   63SBC   C03O43983   2.283   7.050  12.569
   63SBC   C03N43984   2.296   7.186  12.554
   63SBC   O00043985   2.220   7.251  12.648
   63SBC   C01943986   2.219   7.385  12.650
   63SBC   C01843987   2.305   7.462  12.560
   63SBC   C01743988   2.386   7.392  12.469
   63SBC   C01643989   2.474   7.464  12.387
   63SBC   C01543990   2.464   7.603  12.396
   63SBC   C01443991   2.556   7.670  12.320
   63SBC   C01343992   2.654   7.613  12.231
   63SBC   C01243993   2.725   7.725  12.173
   63SBC   C01143994   2.672   7.840  12.242
   63SBC   C01043995   2.720   7.965  12.212
   63SBC   C00Z43996   2.656   8.084  12.240
   63SBC   C00Y43997   2.722   8.174  12.153
   63SBC   C01O43998   2.827   8.118  12.082
   63SBC   C01P43999   2.859   8.161  11.955
   63SBC   C02L44000   2.920   8.073  11.871
   63SBC   C02K44001   2.923   7.942  11.908
   63SBC   C01M44002   2.860   7.882  12.025
   63SBC   C02J44003   3.004   7.862  11.819
   63SBC   C02I44004   3.039   7.726  11.837
   63SBC   C02H44005   2.988   7.627  11.915
   63SBC   C01Q44006   2.880   7.632  12.012
   63SBC   C02G44007   2.850   7.496  12.049
   63SBC   C08944008   2.945   7.413  11.990
   63SBC   C08844009   2.901   7.281  11.979
   63SBC   C08744010   2.774   7.290  12.059
   63SBC   C08644011   2.705   7.171  12.094
   63SBC   C03S44012   2.602   7.163  12.191
   63SBC   N00644013   2.576   7.027  12.204
   63SBC   C08F44014   2.647   6.959  12.105
   63SBC   C01J44015   2.537   7.248  12.286
   63SBC   C03R44016   2.450   7.180  12.376
   63SBC   C03Q44017   2.437   7.038  12.386
   63SBC   C08E44018   2.731   7.040  12.037
   63SBC   C08D44019   2.820   6.992  11.935
   63SBC   C08K44020   2.804   6.856  11.905
   63SBC   C08C44021   2.909   7.063  11.858
   63SBC   C09144022   2.991   6.997  11.764
   63SBC   C09244023   2.968   6.864  11.719
   63SBC   C08B44024   2.947   7.195  11.869
   63SBC   C09044025   3.064   7.207  11.781
   63SBC   C09444026   3.141   7.330  11.758
   63SBC   C09544027   3.222   7.355  11.650
   63SBC   C09R44028   3.238   7.490  11.630
   63SBC   C09744029   3.161   7.563  11.720
   63SBC   C09644030   3.109   7.459  11.803
   63SBC   C01I44031   2.749   7.422  12.120
   63SBC   C08A44032   3.022   7.496  11.904
   63SBC   C09L44033   3.129   7.698  11.737
   63SBC   C09K44034   3.158   7.812  11.659
   63SBC   C09J44035   3.239   7.811  11.539
   63SBC   C09I44036   3.215   7.904  11.435
   63SBC   C09O44037   3.146   8.030  11.415
   63SBC   C09N44038   3.068   8.095  11.514
   63SBC   C09M44039   3.033   8.044  11.646
   63SBC   C06O44040   3.021   8.225  11.478
   63SBC   C05M44041   3.044   8.283  11.351
   63SBC   C06P44042   3.113   8.207  11.252
   63SBC   C04244043   2.985   8.398  11.311
   63SBC   C04144044   2.907   8.472  11.403
   63SBC   C04044045   2.857   8.597  11.366
   63SBC   C03Z44046   2.779   8.666  11.453
   63SBC   C03Y44047   2.744   8.611  11.573
   63SBC   C02744048   2.654   8.681  11.656
   63SBC   C02644049   2.617   8.626  11.776
   63SBC   C02844050   2.513   8.678  11.849
   63SBC   C02944051   2.453   8.794  11.805
   63SBC   C02B44052   2.346   8.846  11.873
   63SBC   C02C44053   2.277   8.952  11.825
   63SBC   C02X44054   2.162   8.991  11.890
   63SBC   C03E44055   2.098   9.104  11.842
   63SBC   C03G44056   2.134   9.174  11.736
   63SBC   C04Q44057   2.254   9.139  11.678
   63SBC   C04R44058   2.301   9.207  11.567
   63SBC   C04S44059   2.419   9.164  11.501
   63SBC   C04L44060   2.478   9.045  11.538
   63SBC   C04M44061   2.428   8.975  11.645
   63SBC   C04K44062   2.577   8.984  11.461
   63SBC   C04F44063   2.616   9.042  11.342
   63SBC   C04E44064   2.561   9.168  11.308
   63SBC   C04D44065   2.606   9.224  11.187
   63SBC   C05044066   2.538   9.341  11.145
   63SBC   C05144067   2.575   9.398  11.019
   63SBC   C05Q44068   2.517   9.514  10.975
   63SBC   C05V44069   2.549   9.562  10.848
   63SBC   N00544070   2.494   9.682  10.811
   63SBC   C07V44071   2.400   9.742  10.898
   63SBC   C08244072   2.359   9.870  10.862
   63SBC   C08144073   2.406   9.936  10.749
   63SBC   C07C44074   2.469   9.863  10.650
   63SBC   C07B44075   2.504   9.924  10.528
   63SBC   C08044076   2.481  10.056  10.499
   63SBC   C07Z44077   2.510  10.104  10.375
   63SBC   H00L44078   2.493  10.209  10.355
   63SBC   C07944079   2.550  10.024  10.273
   63SBC   C07844080   2.582   9.891  10.302
   63SBC   C07744081   2.640   9.810  10.205
   63SBC   C07X44082   2.649   9.853  10.072
   63SBC   H00I44083   2.673   9.779   9.998
   63SBC   C07Y44084   2.589   9.977  10.040
   63SBC   H00H44085   2.579   9.997   9.935
   63SBC   C07644086   2.695   9.690  10.246
   63SBC   C06C44087   2.795   9.637  10.169
   63SBC   H00C44088   2.825   9.677  10.073
   63SBC   C06F44089   2.676   9.636  10.377
   63SBC   C06E44090   2.737   9.521  10.426
   63SBC   C06G44091   2.731   9.468  10.543
   63SBC   C06H44092   2.656   9.546  10.631
   63SBC   C06I44093   2.590   9.665  10.595
   63SBC   C06L44094   2.801   9.352  10.581
   63SBC   C06M44095   2.882   9.275  10.486
   63SBC   C06K44096   2.778   9.306  10.712
   63SBC   C05S44097   2.698   9.381  10.801
   63SBC   C05U44098   2.845   9.191  10.753
   63SBC   C05X44099   2.921   9.112  10.661
   63SBC   C05G44100   2.971   8.992  10.728
   63SBC   C05F44101   2.931   8.948  10.853
   63SBC   C05E44102   2.976   8.823  10.890
   63SBC   C04844103   2.940   8.763  11.008
   63SBC   C05644104   2.978   8.633  11.029
   63SBC   C04544105   2.955   8.573  11.154
   63SBC   C04744106   2.867   8.839  11.094
   63SBC   C04944107   2.823   8.964  11.060
   63SBC   C04B44108   2.747   9.036  11.144
   63SBC   C04644109   2.826   8.773  11.208
   63SBC   C04H44110   2.757   8.849  11.296
   63SBC   C05D44111   3.047   8.765  10.778
   63SBC   C04A44112   2.849   9.025  10.934
   63SBC   C05T44113   2.808   9.144  10.885
   63SBC   C05544114   2.726   9.217  10.975
   63SBC   C06D44115   2.822   9.457  10.338
   63SBC   C07W44116   2.606   9.718  10.468
   63SBC   C08544117   2.545  10.063  10.139
   63SBC   H00M44118   2.503  10.158  10.107
   63SBC   C08444119   2.423  10.137  10.599
   63SBC   H00J44120   2.398  10.239  10.571
   63SBC   C07A44121   2.569   9.847  10.431
   63SBC   C08344122   2.385  10.076  10.722
   63SBC   H00K44123   2.334  10.143  10.789
   63SBC   O00K44124   2.265   9.936  10.937
   63SBC   C0GO44125   2.214   9.872  11.047
   63SBC   C0GN44126   2.115   9.935  11.126
   63SBC   H01L44127   2.082  10.034  11.101
   63SBC   C0GM44128   2.062   9.872  11.247
   63SBC   C0GL44129   1.964   9.935  11.312
   63SBC   H01M44130   1.918  10.024  11.271
   63SBC   O00J44131   1.914   9.878  11.427
   63SBC   C0GK44132   1.957   9.751  11.458
   63SBC   H01N44133   1.906   9.723  11.549
   63SBC   C05K44134   2.054   9.687  11.387
   63SBC   C05J44135   2.101   9.555  11.428
   63SBC   C04Y44136   2.049   9.481  11.536
   63SBC   C04X44137   2.111   9.363  11.588
   63SBC   O00644138   1.926   9.514  11.596
   63SBC   C05344139   1.869   9.440  11.703
   63SBC   C04O44140   1.940   9.324  11.757
   63SBC   C03C44141   1.901   9.246  11.873
   63SBC   C03B44142   1.788   9.238  11.962
   63SBC   C05444143   1.668   9.299  11.941
   63SBC   C0GR44144   1.554   9.278  12.024
   63SBC   C03M44145   1.520   9.186  12.138
   63SBC   C03I44146   1.604   9.084  12.193
   63SBC   C03J44147   1.551   9.000  12.293
   63SBC   N00244148   1.623   8.884  12.355
   63SBC   C02U44149   1.573   8.802  12.463
   63SBC   C02T44150   1.652   8.704  12.522
   63SBC   C02Z44151   1.609   8.629  12.628
   63SBC   N00144152   1.687   8.520  12.680
   63SBC   C02R44153   1.645   8.452  12.796
   63SBC   C03244154   1.524   8.492  12.862
   63SBC   C03144155   1.448   8.591  12.798
   63SBC   H00744156   1.356   8.630  12.840
   63SBC   C03344157   1.506   8.443  12.997
   63SBC   H00344158   1.421   8.477  13.053
   63SBC   O00444159   1.584   8.346  13.059
   63SBC   C03444160   1.699   8.308  12.985
   63SBC   C03544161   1.789   8.224  13.053
   63SBC   C03644162   1.906   8.181  12.988
   63SBC   H00544163   1.983   8.128  13.042
   63SBC   C03744164   1.930   8.237  12.863
   63SBC   H00644165   2.024   8.210  12.816
   63SBC   C00D44166   1.846   8.316  12.792
   63SBC   C00C44167   1.882   8.369  12.671
   63SBC   C00B44168   2.000   8.322  12.586
   63SBC   C00A44169   2.120   8.233  12.598
   63SBC   C00944170   2.212   8.291  12.505
   63SBC   C00844171   2.322   8.230  12.437
   63SBC   C00744172   2.348   8.096  12.461
   63SBC   C00644173   2.454   8.035  12.393
   63SBC   C00544174   2.467   7.892  12.406
   63SBC   C00444175   2.369   7.817  12.479
   63SBC   C00344176   2.270   7.882  12.550
   63SBC   C00244177   2.174   7.804  12.614
   63SBC   C01C44178   2.199   7.665  12.637
   63SBC   C01B44179   2.125   7.591  12.732
   63SBC   H00044180   2.057   7.630  12.806
   63SBC   C00144181   2.060   7.867  12.665
   63SBC   C00044182   2.045   8.001  12.643
   63SBC   C01U44183   1.912   8.025  12.670
   63SBC   H00244184   1.846   8.104  12.639
   63SBC   C01T44185   1.851   7.896  12.710
   63SBC   O00244186   1.732   7.870  12.748
   63SBC   O00144187   1.947   7.804  12.712
   63SBC   C01S44188   2.256   8.024  12.538
   63SBC   C00N44189   2.388   8.310  12.346
   63SBC   C00M44190   2.327   8.427  12.297
   63SBC   C00J44191   2.213   8.477  12.352
   63SBC   C00I44192   2.141   8.581  12.300
   63SBC   C00H44193   2.021   8.617  12.351
   63SBC   C00G44194   1.963   8.535  12.444
   63SBC   C00F44195   1.845   8.562  12.508
   63SBC   C01X44196   1.951   8.723  12.314
   63SBC   C01W44197   2.006   8.795  12.214
   63SBC   C01V44198   2.131   8.758  12.160
   63SBC   C02044199   2.181   8.825  12.048
   63SBC   C01Z44200   1.933   8.900  12.161
   63SBC   C02Y44201   1.993   8.966  12.065
   63SBC   C03944202   1.930   9.081  12.019
   63SBC   C02W44203   1.807   8.941  12.209
   63SBC   C01Y44204   1.823   8.753  12.362
   63SBC   C00U44205   2.199   8.647  12.199
   63SBC   C00S44206   2.317   8.607  12.144
   63SBC   C00T44207   2.369   8.676  12.035
   63SBC   C00R44208   2.382   8.497  12.192
   63SBC   C00Q44209   2.497   8.456  12.131
   63SBC   C00V44210   2.541   8.514  12.017
   63SBC   C02444211   2.646   8.459  11.944
   63SBC   C00X44212   2.710   8.347  11.993
   63SBC   C00P44213   2.557   8.337  12.178
   63SBC   C00O44214   2.497   8.258  12.280
   63SBC   C00K44215   2.158   8.405  12.452
   63SBC   N00044216   2.141   8.088  12.588
   63SBC   C00L44217   2.030   8.422  12.497
   63SBC   H00444218   1.772   8.183  13.151
   63SBC   C02Q44219   1.731   8.354  12.854
   63SBC   C00E44220   1.807   8.478  12.615
   63SBC   C03044221   1.485   8.660  12.683
   63SBC   O00344222   1.403   8.757  12.619
   63SBC   C02S44223   1.773   8.677  12.465
   63SBC   C03844224   1.443   8.833  12.508
   63SBC   C03L44225   1.370   8.933  12.445
   63SBC   H00844226   1.275   8.959  12.489
   63SBC   C02V44227   1.753   8.858  12.310
   63SBC   C03K44228   1.418   9.013  12.339
   63SBC   C0BK44229   1.345   9.116  12.273
   63SBC   H00T44230   1.244   9.118  12.310
   63SBC   C03H44231   1.734   9.053  12.153
   63SBC   C0BL44232   1.388   9.210  12.178
   63SBC   C0GU44233   1.300   9.305  12.120
   63SBC   H01O44234   1.197   9.296  12.152
   63SBC   C0GT44235   1.339   9.389  12.024
   63SBC   H01P44236   1.270   9.467  11.994
   63SBC   C0GS44237   1.464   9.379  11.978
   63SBC   C0GV44238   1.520   9.462  11.878
   63SBC   C0GW44239   1.465   9.561  11.795
   63SBC   H01Q44240   1.363   9.590  11.816
   63SBC   C0GX44241   1.551   9.625  11.715
   63SBC   H01R44242   1.501   9.704  11.660
   63SBC   O00L44243   1.683   9.592  11.695
   63SBC   C0GQ44244   1.654   9.412  11.850
   63SBC   C03A44245   1.807   9.131  12.059
   63SBC   C05L44246   1.733   9.473  11.748
   63SBC   C04W44247   2.214   9.507  11.364
   63SBC   C05I44248   2.265   9.567  11.248
   63SBC   C05O44249   2.214   9.690  11.206
   63SBC   C05244250   2.376   9.513  11.181
   63SBC   C04V44251   2.286   9.394  11.409
   63SBC   C04U44252   2.399   9.342  11.345
   63SBC   N00944253   2.114   9.747  11.281
   63SBC   C0GP44254   2.259   9.751  11.089
   63SBC   C05W44255   2.357   9.689  11.014
   63SBC   C07D44256   2.518   9.738  10.685
   63SBC   C06J44257   2.637   9.498  10.760
   63SBC   C05P44258   2.417   9.571  11.058
   63SBC   C05R44259   2.668   9.335  10.932
   63SBC   C04Z44260   2.438   9.396  11.224
   63SBC   C04C44261   2.697   9.161  11.101
   63SBC   C04G44262   2.712   8.976  11.266
   63SBC   C04J44263   2.627   8.855  11.491
   63SBC   C04T44264   2.458   9.226  11.383
   63SBC   N00344265   2.231   9.323  11.522
   63SBC   C04P44266   2.063   9.287  11.693
   63SBC   C03D44267   1.988   9.145  11.911
   63SBC   C02144268   2.110   8.928  11.997
   63SBC   C03F44269   2.320   9.024  11.715
   63SBC   C02244270   2.296   8.785  11.983
   63SBC   C02A44271   2.491   8.853  11.684
   63SBC   C02344272   2.472   8.619  11.968
   63SBC   C02544273   2.682   8.511  11.822
   63SBC   C02D44274   2.775   8.444  11.744
   63SBC   C02E44275   2.831   8.322  11.786
   63SBC   C02N44276   2.914   8.245  11.698
   63SBC   C04N44277   2.592   8.797  11.611
   63SBC   C02P44278   2.801   8.492  11.617
   63SBC   C04I44279   2.721   8.789  11.416
   63SBC   C04444280   2.879   8.645  11.243
   63SBC   C04344281   2.887   8.418  11.533
   63SBC   C05N44282   2.944   8.293  11.572
   63SBC   C09U44283   3.167   8.080  11.284
   63SBC   C09V44284   3.230   8.016  11.178
   63SBC   C09X44285   3.285   7.887  11.198
   63SBC   C09Y44286   3.341   7.804  11.103
   63SBC   C0A144287   3.347   7.855  10.969
   63SBC   C0A244288   3.306   7.982  10.948
   63SBC   C0A444289   3.311   8.034  10.818
   63SBC   C07144290   3.268   8.166  10.789
   63SBC   C0A544291   3.274   8.210  10.660
   63SBC   C0A944292   3.323   8.129  10.559
   63SBC   C0A844293   3.366   8.002  10.592
   63SBC   C0AP44294   3.404   7.920  10.487
   63SBC   C0BY44295   3.434   7.792  10.520
   63SBC   C0BX44296   3.422   7.733  10.641
   63SBC   C0C244297   3.434   7.595  10.660
   63SBC   C0C344298   3.411   7.542  10.784
   63SBC   C0CT44299   3.401   7.633  10.894
   63SBC   C0C144300   3.454   7.513  10.546
   63SBC   C0C044301   3.496   7.576  10.423
   63SBC   C0A744302   3.388   7.818  10.742
   63SBC   C0BZ44303   3.471   7.713  10.414
   63SBC   C0BO44304   3.487   7.753  10.285
   63SBC   C0BN44305   3.444   7.883  10.253
   63SBC   C0BM44306   3.450   7.919  10.123
   63SBC   C0B944307   3.401   8.044  10.092
   63SBC   C0B844308   3.345   8.128  10.188
   63SBC   C0AD44309   3.356   8.090  10.325
   63SBC   C0AF44310   3.304   8.257  10.158
   63SBC   C0AG44311   3.319   8.307  10.027
   63SBC   C0B744312   3.365   8.218   9.931
   63SBC   C0AE44313   3.264   8.333  10.262
   63SBC   C0AB44314   3.266   8.296  10.396
   63SBC   C0AA44315   3.226   8.379  10.494
   63SBC   C0AJ44316   3.219   8.458  10.231
   63SBC   C0AK44317   3.185   8.545  10.335
   63SBC   C06W44318   3.173   8.661  10.278
   63SBC   C0AI44319   3.239   8.519  10.108
   63SBC   C0BP44320   3.516   7.654  10.200
   63SBC   C0BQ44321   3.525   7.694  10.064
   63SBC   C0BW44322   3.399   7.962  10.354
   63SBC   C0AC44323   3.317   8.172  10.428
   63SBC   C0A644324   3.354   7.950  10.718
   63SBC   C0A344325   3.381   7.768  10.869
   63SBC   C09Z44326   3.378   7.671  11.129
   63SBC   C09W44327   3.242   8.062  11.048
   63SBC   C07244328   3.189   8.182  11.015
   63SBC   C09H44329   3.290   7.844  11.328
   63SBC   C09G44330   3.354   7.728  11.362
   63SBC   C09P44331   3.313   7.698  11.492
   63SBC   C02O44332   3.070   7.914  11.699
   63SBC   C02M44333   2.956   8.119  11.736
   63SBC   C02F44334   2.808   8.284  11.917
   63SBC   C00W44335   2.662   8.292  12.107
   63SBC   C01R44336   2.531   8.122  12.306
   63SBC   C01N44337   2.807   7.984  12.106
   63SBC   C01L44338   2.821   7.747  12.064
   63SBC   C01H44339   2.646   7.469  12.213
   63SBC   C01K44340   2.563   7.810  12.326
   63SBC   C01E44341   2.377   7.676  12.476
   63SBC   C01G44342   2.549   7.392  12.294
   63SBC   C01D44343   2.295   7.600  12.559
   63SBC   C01A44344   2.139   7.452  12.739
   63SBC   H00144345   2.063   7.403  12.798
   63SBC   C01F44346   2.379   7.254  12.464
   63SBC   C03P44347   2.355   6.972  12.478
   63SBC   C03T44348   2.498   6.961  12.293
   63SBC   C08I44349   2.638   6.829  12.087
   63SBC   C08J44350   2.718   6.772  11.988
   63SBC   C08L44351   2.878   6.792  11.801
   63SBC   C09344352   3.042   6.821  11.606
   63SBC   C08Z44353   3.076   7.087  11.704
   63SBC   C09T44354   3.319   7.034  11.295
   63SBC   C09S44355   3.273   7.269  11.560
   63SBC   C09Q44356   3.309   7.558  11.523
   63SBC   C09F44357   3.381   7.630  11.257
   63SBC   C09E44358   3.382   7.264  11.236
   63SBC   C0A044359   3.388   7.579  11.023
   63SBC   C0CU44360   3.411   7.399  10.804
   63SBC   C0CR44361   3.417   7.319  10.686
   63SBC   C0CZ44362   3.413   7.178  10.701
   63SBC   C0DA44363   3.363   7.131  11.182
   63SBC   C0D944364   3.574   6.882  11.001
   63SBC   H00V44365   3.658   6.871  11.068
   63SBC   C0CY44366   3.414   7.129  10.834
   63SBC   C0DF44367   3.571   6.824  10.867
   63SBC   C0DE44368   3.642   6.735  10.776
   63SBC   C0GI44369   3.715   6.618  10.796
   63SBC   H01K44370   3.718   6.581  10.897
   63SBC   C0GJ44371   3.768   6.556  10.686
   63SBC   H01J44372   3.818   6.461  10.694
   63SBC   O00I44373   3.762   6.612  10.558
   63SBC   C0GH44374   3.676   6.719  10.532
   63SBC   C0GG44375   3.659   6.780  10.399
   63SBC   O00G44376   3.736   6.705  10.307
   63SBC   C0G844377   3.731   6.730  10.176
   63SBC   C0G944378   3.791   6.630  10.100
   63SBC   H01G44379   3.808   6.535  10.148
   63SBC   C0GA44380   3.810   6.655   9.964
   63SBC   H01H44381   3.860   6.573   9.913
   63SBC   C0GB44382   3.771   6.774   9.904
   63SBC   C0EP44383   3.709   6.875   9.984
   63SBC   C0E844384   3.706   7.013   9.927
   63SBC   C0CK44385   3.673   7.143   9.979
   63SBC   C0CL44386   3.566   7.149  10.068
   63SBC   C0E944387   3.539   7.049  10.164
   63SBC   C0GE44388   3.600   6.922  10.210
   63SBC   C0E744389   3.732   7.035   9.794
   63SBC   C0CJ44390   3.710   7.171   9.755
   63SBC   C0E644391   3.725   7.202   9.619
   63SBC   H00Y44392   3.705   7.294   9.567
   63SBC   C0EO44393   3.779   7.092   9.545
   63SBC   H01144394   3.799   7.104   9.439
   63SBC   C0G644395   3.796   6.959   9.589
   63SBC   C0G544396   3.858   6.852   9.510
   63SBC   H01F44397   3.879   6.865   9.405
   63SBC   C0GD44398   3.880   6.726   9.561
   63SBC   H01I44399   3.909   6.646   9.494
   63SBC   O00H44400   3.847   6.697   9.692
   63SBC   C0EQ44401   3.776   6.926   9.718
   63SBC   C0GC44402   3.800   6.799   9.769
   63SBC   C0G744403   3.684   6.850  10.123
   63SBC   C0DD44404   3.610   6.776  10.644
   63SBC   C0GF44405   3.576   6.880  10.346
   63SBC   C0CO44406   3.438   7.103  10.242
   63SBC   C0D044407   3.422   7.098  10.581
   63SBC   C0C444408   3.433   7.378  10.553
   63SBC   C0CN44409   3.395   7.231  10.195
   63SBC   C0CP44410   3.525   7.539  10.285
   63SBC   C0CM44411   3.467   7.261  10.081
   63SBC   C0CI44412   3.690   7.245   9.876
   63SBC   C0CD44413   3.718   7.646   9.622
   63SBC   C0BR44414   3.574   7.606   9.965
   63SBC   C0CS44415   3.487   7.829  10.030
   63SBC   C0B644416   3.402   8.085   9.962
   63SBC   C0CG44417   3.578   7.835   9.676
   63SBC   C0CF44418   3.651   7.761   9.581
   63SBC   C0E544419   3.833   7.638   9.416
   63SBC   C0DT44420   3.853   7.713   9.156
   63SBC   C0DL44421   3.630   7.976   9.290
   63SBC   C0DM44422   3.584   8.100   9.250
   63SBC   C0DY44423   3.661   8.071   9.026
   63SBC   C0DU44424   3.856   7.759   9.024
   63SBC   C0F044425   3.985   7.752   8.823
   63SBC   C0F444426   4.116   7.911   8.635
   63SBC   C0FG44427   3.796   8.087   8.687
   63SBC   O00B44428   4.116   8.130   8.519
   63SBC   C0FN44429   3.775   8.217   8.645
   63SBC   C0DZ44430   3.687   8.122   8.897
   63SBC   O00C44431   3.592   8.476   8.950
   63SBC   C0FR44432   3.542   8.559   9.040
   63SBC   O00D44433   3.549   8.678   9.001
   63SBC   C0E044434   3.602   8.150   9.123
   63SBC   C0E344435   3.496   8.498   9.163
   63SBC   C0AW44436   3.426   8.571   9.256
   63SBC   C0AV44437   3.395   8.708   9.234
   63SBC   H00Q44438   3.422   8.764   9.145
   63SBC   C0AU44439   3.330   8.784   9.341
   63SBC   H00R44440   3.307   8.884   9.308
   63SBC   C0AT44441   3.298   8.722   9.462
   63SBC   C0AS44442   3.262   8.770   9.586
   63SBC   C0AR44443   3.249   8.912   9.609
   63SBC   C0BE44444   3.323   8.586   9.467
   63SBC   C0DN44445   3.520   8.176   9.345
   63SBC   C0AX44446   3.389   8.505   9.371
   63SBC   C0BB44447   3.439   8.213   9.571
   63SBC   C0BD44448   3.292   8.549   9.590
   63SBC   C0B244449   3.371   8.263   9.799
   63SBC   C0AH44450   3.289   8.445   9.993
   63SBC   C0BF44451   3.265   8.661   9.676
   63SBC   C0AL44452   3.194   8.655  10.135
   63SBC   C07U44453   3.190   8.894   9.860
   63SBC   C0AQ44454   3.188   8.951   9.730
   63SBC   C0BG44455   3.229   9.016   9.512
   63SBC   C0FY44456   3.179   9.366   9.581
   63SBC   C0BJ44457   3.334   9.086   9.441
   63SBC   H00S44458   3.431   9.049   9.412
   63SBC   C0FZ44459   3.292   9.428   9.533
   63SBC   C07S44460   3.142   9.392   9.715
   63SBC   C0G144461   3.317   9.723   9.732
   63SBC   C07K44462   3.167   9.739  10.067
   63SBC   C07H44463   3.104   9.469   9.990
   63SBC   C06B44464   2.858   9.518  10.220
   63SBC   C06N44465   2.893   9.345  10.361
   63SBC   C06644466   3.072   9.213  10.040
   63SBC   C06244467   3.127   8.967  10.226
   63SBC   C05Y44468   2.948   9.157  10.521
   63SBC   C06144469   3.170   8.904  10.340
   63SBC   C05H44470   3.047   8.872  10.685
   63SBC   C06V44471   3.156   8.766  10.367
   63SBC   C06Y44472   3.188   8.505  10.467
   63SBC   C05C44473   3.081   8.626  10.801
   63SBC   C06Z44474   3.227   8.337  10.629
   63SBC   C07044475   3.209   8.242  10.889
   63SBC   C05B44476   3.049   8.567  10.925
   63SBC   C05744477   3.008   8.451  11.180
   63SBC   C05944478   3.127   8.258  11.114
   64SBC   C05844479  11.165   9.086   5.590
   64SBC   C05A44480  11.111   9.131   5.716
   64SBC   C06Q44481  11.092   9.269   5.742
   64SBC   C06R44482  11.029   9.311   5.860
   64SBC   C06S44483  10.993   9.223   5.967
   64SBC   C06T44484  10.923   9.279   6.080
   64SBC   C06U44485  10.835   9.209   6.181
   64SBC   C06X44486  10.812   9.075   6.212
   64SBC   C06044487  10.695   9.061   6.290
   64SBC   C05Z44488  10.665   8.968   6.399
   64SBC   C06844489  10.617   9.054   6.512
   64SBC   C06744490  10.596   9.015   6.651
   64SBC   C06944491  10.605   8.875   6.692
   64SBC   C06A44492  10.613   8.821   6.828
   64SBC   C07344493  10.682   8.880   6.937
   64SBC   C07P44494  10.788   8.809   6.998
   64SBC   C07O44495  10.841   8.689   6.954
   64SBC   H00D44496  10.791   8.652   6.865
   64SBC   C07N44497  10.948   8.624   7.012
   64SBC   H00E44498  10.996   8.536   6.973
   64SBC   C07M44499  11.006   8.684   7.122
   64SBC   H00F44500  11.086   8.639   7.179
   64SBC   C07L44501  10.958   8.814   7.168
   64SBC   C07Q44502  10.998   8.879   7.286
   64SBC   H00G44503  11.077   8.835   7.346
   64SBC   O00F44504  10.959   9.001   7.330
   64SBC   C07J44505  10.843   9.048   7.276
   64SBC   C07I44506  10.793   8.990   7.157
   64SBC   N00444507  10.683   9.051   7.096
   64SBC   C07R44508  10.622   9.168   7.153
   64SBC   C07T44509  10.688   9.225   7.263
   64SBC   C0FX44510  10.656   9.356   7.306
   64SBC   C0FW44511  10.737   9.433   7.382
   64SBC   C0G044512  10.843   9.367   7.445
   64SBC   C0G244513  10.932   9.440   7.525
   64SBC   H01E44514  11.004   9.383   7.582
   64SBC   C0G344515  10.913   9.578   7.537
   64SBC   H01C44516  10.979   9.640   7.596
   64SBC   C0G444517  10.808   9.648   7.467
   64SBC   H01D44518  10.806   9.755   7.483
   64SBC   O00E44519  10.861   9.231   7.429
   64SBC   C0FV44520  10.714   9.573   7.390
   64SBC   C0FU44521  10.594   9.631   7.330
   64SBC   H01B44522  10.552   9.729   7.341
   64SBC   C0FT44523  10.511   9.548   7.254
   64SBC   C0FS44524  10.398   9.564   7.172
   64SBC   C0BI44525  10.344   9.436   7.126
   64SBC   C0BH44526  10.296   9.451   6.993
   64SBC   C07F44527  10.364   9.397   6.877
   64SBC   C07E44528  10.428   9.276   6.866
   64SBC   C07G44529  10.482   9.194   6.966
   64SBC   C07444530  10.553   9.094   6.899
   64SBC   C06544531  10.480   9.230   6.740
   64SBC   C06444532  10.495   9.328   6.640
   64SBC   C06344533  10.569   9.318   6.519
   64SBC   C07544534  10.583   9.451   6.466
   64SBC   C0AM44535  10.509   9.547   6.551
   64SBC   C0AN44536  10.497   9.696   6.532
   64SBC   C0AO44537  10.551   9.792   6.425
   64SBC   C0B144538  10.526   9.935   6.429
   64SBC   C0B044539  10.453   9.990   6.527
   64SBC   C0AZ44540  10.422  10.127   6.532
   64SBC   C0AY44541  10.344  10.176   6.638
   64SBC   N00744542  10.302  10.307   6.640
   64SBC   C0E244543  10.231  10.355   6.753
   64SBC   C0E144544  10.199  10.490   6.760
   64SBC   C0E444545  10.143  10.543   6.879
   64SBC   C0FF44546  10.108  10.682   6.891
   64SBC   C0FJ44547  10.084  10.766   7.006
   64SBC   C0FK44548  10.175  10.773   7.110
   64SBC   H01644549  10.244  10.693   7.136
   64SBC   C0FL44550  10.179  10.909   7.162
   64SBC   H01744551  10.246  10.955   7.233
   64SBC   C0FM44552  10.073  10.982   7.091
   64SBC   C0FH44553  10.065  11.116   7.034
   64SBC   C0FI44554  10.030  11.085   6.899
   64SBC   C0F344555  10.071  11.173   6.797
   64SBC   C0F244556  10.083  11.112   6.677
   64SBC   C0DW44557  10.081  10.969   6.652
   64SBC   C0FE44558  10.048  10.882   6.757
   64SBC   C0DV44559  10.145  10.916   6.542
   64SBC   C0DX44560  10.184  10.779   6.541
   64SBC   C0DK44561  10.254  10.732   6.430
   64SBC   C0DJ44562  10.285  10.819   6.325
   64SBC   C0DI44563  10.371  10.769   6.223
   64SBC   C0DH44564  10.403  10.634   6.220
   64SBC   C0DG44565  10.369  10.549   6.322
   64SBC   C0BV44566  10.428  10.423   6.323
   64SBC   C0BC44567  10.404  10.337   6.430
   64SBC   C0BA44568  10.506  10.375   6.220
   64SBC   C0B444569  10.555  10.242   6.219
   64SBC   C0B344570  10.528  10.159   6.328
   64SBC   C0B544571  10.629  10.196   6.113
   64SBC   C0BU44572  10.652  10.283   6.003
   64SBC   C0BT44573  10.600  10.413   5.997
   64SBC   C0BS44574  10.611  10.493   5.879
   64SBC   C0CC44575  10.578  10.627   5.889
   64SBC   C0CB44576  10.587  10.708   5.777
   64SBC   C0CH44577  10.594  10.847   5.807
   64SBC   C0DO44578  10.540  10.902   5.922
   64SBC   C0DP44579  10.527  11.039   5.934
   64SBC   C0EA44580  10.593  11.130   5.846
   64SBC   H01244581  10.659  11.094   5.769
   64SBC   O00944582  10.586  11.267   5.860
   64SBC   C0EH44583  10.519  11.310   5.974
   64SBC   C0EG44584  10.504  11.446   5.987
   64SBC   C0EJ44585  10.548  11.550   5.897
   64SBC   H01044586  10.597  11.540   5.801
   64SBC   C0EK44587  10.527  11.672   5.968
   64SBC   H00Z44588  10.548  11.771   5.930
   64SBC   C0EL44589  10.477  11.636   6.097
   64SBC   C0EM44590  10.451  11.706   6.224
   64SBC   C0EW44591  10.468  11.844   6.247
   64SBC   H01344592  10.499  11.900   6.160
   64SBC   C0EX44593  10.451  11.900   6.385
   64SBC   H01444594  10.478  12.004   6.403
   64SBC   C0F144595  10.408  11.817   6.496
   64SBC   C0EU44596  10.388  11.679   6.469
   64SBC   C0ET44597  10.340  11.577   6.555
   64SBC   C0ES44598  10.338  11.461   6.465
   64SBC   C0EE44599  10.381  11.490   6.334
   64SBC   C0ED44600  10.410  11.426   6.209
   64SBC   C0EC44601  10.403  11.284   6.190
   64SBC   C0EB44602  10.336  11.190   6.274
   64SBC   C0EN44603  10.284  11.228   6.408
   64SBC   C0ER44604  10.192  11.140   6.461
   64SBC   C0DS44605  10.327  11.052   6.243
   64SBC   C0DR44606  10.398  10.997   6.133
   64SBC   C0EY44607  10.286  11.344   6.502
   64SBC   C0EZ44608  10.212  11.319   6.615
   64SBC   C0F544609  10.192  11.383   6.745
   64SBC   C0F644610  10.241  11.515   6.775
   64SBC   N00844611  10.220  11.556   6.914
   64SBC   C0F744612  10.178  11.461   7.013
   64SBC   C0FQ44613  10.170  11.509   7.145
   64SBC   H01844614  10.126  11.440   7.215
   64SBC   C0FP44615  10.198  11.641   7.180
   64SBC   H01944616  10.178  11.675   7.280
   64SBC   C0FO44617  10.252  11.728   7.086
   64SBC   H01A44618  10.282  11.830   7.108
   64SBC   C0F844619  10.148  11.331   6.966
   64SBC   C0F944620  10.263  11.686   6.955
   64SBC   C0FA44621  10.302  11.787   6.860
   64SBC   H01544622  10.324  11.889   6.889
   64SBC   C0FB44623  10.320  11.748   6.722
   64SBC   C0FD44624  10.301  11.609   6.689
   64SBC   C0FC44625  10.373  11.852   6.629
   64SBC   O00A44626  10.390  11.968   6.668
   64SBC   C0EV44627  10.409  11.627   6.338
   64SBC   C0EF44628  10.455  11.498   6.099
   64SBC   C0EI44629  10.459  11.226   6.072
   64SBC   C0DQ44630  10.462  11.087   6.047
   64SBC   C0CE44631  10.490  10.812   6.020
   64SBC   H00U44632  10.626  10.906   5.723
   64SBC   C0CA44633  10.591  10.649   5.644
   64SBC   C0C944634  10.647  10.516   5.634
   64SBC   C0C844635  10.653  10.450   5.506
   64SBC   C0C744636  10.728  10.342   5.451
   64SBC   C0C644637  10.709  10.317   5.315
   64SBC   C0C544638  10.793  10.264   5.205
   64SBC   C0CQ44639  10.782  10.322   5.076
   64SBC   C0D144640  10.711  10.440   5.065
   64SBC   C0D844641  10.769  10.525   4.974
   64SBC   C0D744642  10.856  10.439   4.895
   64SBC   C0D644643  10.944  10.485   4.793
   64SBC   C0D544644  11.037  10.400   4.723
   64SBC   C0D444645  11.069  10.262   4.737
   64SBC   C0D344646  11.204  10.246   4.698
   64SBC   C0CX44647  11.265  10.132   4.761
   64SBC   C0CW44648  11.182  10.105   4.877
   64SBC   C0CV44649  11.179  10.012   4.987
   64SBC   C0D244650  11.255   9.893   4.999
   64SBC   C09D44651  11.352   9.852   4.902
   64SBC   C09C44652  11.415   9.726   4.913
   64SBC   C09B44653  11.488   9.659   4.812
   64SBC   C09A44654  11.512   9.736   4.698
   64SBC   C09944655  11.490   9.870   4.698
   64SBC   C09844656  11.499   9.913   4.565
   64SBC   C08Y44657  11.528   9.793   4.479
   64SBC   C08X44658  11.524   9.783   4.335
   64SBC   C08W44659  11.501   9.899   4.253
   64SBC   C08U44660  11.469  10.037   4.299
   64SBC   C08V44661  11.428  10.097   4.426
   64SBC   C0DC44662  11.425  10.236   4.404
   64SBC   H00W44663  11.408  10.307   4.482
   64SBC   C0DB44664  11.459  10.258   4.265
   64SBC   H00X44665  11.463  10.350   4.208
   64SBC   C08T44666  11.479  10.136   4.200
   64SBC   C08S44667  11.503  10.118   4.064
   64SBC   H00N44668  11.515  10.202   3.997
   64SBC   C08R44669  11.510   9.980   4.018
   64SBC   C08Q44670  11.525   9.954   3.883
   64SBC   H00O44671  11.517  10.030   3.806
   64SBC   C08P44672  11.532   9.824   3.825
   64SBC   C08O44673  11.528   9.790   3.682
   64SBC   H00P44674  11.525   9.871   3.611
   64SBC   C08N44675  11.509   9.656   3.639
   64SBC   C08M44676  11.484   9.625   3.498
   64SBC   O00844677  11.476   9.713   3.411
   64SBC   O00744678  11.472   9.495   3.460
   64SBC   C08H44679  11.492   9.393   3.547
   64SBC   C08G44680  11.466   9.257   3.511
   64SBC   C03V44681  11.435   9.205   3.383
   64SBC   H00944682  11.438   9.275   3.301
   64SBC   C03U44683  11.405   9.072   3.361
   64SBC   C03W44684  11.366   9.014   3.230
   64SBC   H00A44685  11.345   9.074   3.142
   64SBC   C03X44686  11.356   8.880   3.218
   64SBC   H00B44687  11.329   8.846   3.120
   64SBC   O00544688  11.361   8.789   3.323
   64SBC   C03O44689  11.392   8.846   3.442
   64SBC   C03N44690  11.370   8.755   3.554
   64SBC   O00044691  11.315   8.633   3.522
   64SBC   C01944692  11.291   8.550   3.630
   64SBC   C01844693  11.322   8.585   3.760
   64SBC   C01744694  11.372   8.713   3.788
   64SBC   C01644695  11.405   8.751   3.914
   64SBC   C01544696  11.406   8.650   4.011
   64SBC   C01444697  11.439   8.678   4.144
   64SBC   C01344698  11.470   8.808   4.186
   64SBC   C01244699  11.486   8.788   4.333
   64SBC   C01144700  11.473   8.649   4.356
   64SBC   C01044701  11.493   8.595   4.484
   64SBC   C00Z44702  11.455   8.470   4.526
   64SBC   C00Y44703  11.455   8.485   4.669
   64SBC   C01O44704  11.488   8.611   4.710
   64SBC   C01P44705  11.451   8.664   4.833
   64SBC   C02L44706  11.449   8.799   4.841
   64SBC   C02K44707  11.478   8.871   4.723
   64SBC   C01M44708  11.494   8.821   4.586
   64SBC   C02J44709  11.486   9.011   4.743
   64SBC   C02I44710  11.509   9.109   4.650
   64SBC   C02H44711  11.524   9.108   4.510
   64SBC   C01Q44712  11.520   9.003   4.419
   64SBC   C02G44713  11.530   9.062   4.285
   64SBC   C08944714  11.567   9.198   4.305
   64SBC   C08844715  11.540   9.279   4.192
   64SBC   C08744716  11.517   9.178   4.089
   64SBC   C08644717  11.515   9.202   3.951
   64SBC   C03S44718  11.493   9.111   3.848
   64SBC   N00644719  11.490   9.194   3.736
   64SBC   C08F44720  11.513   9.321   3.768
   64SBC   C01J44721  11.458   8.974   3.838
   64SBC   C03R44722  11.433   8.932   3.705
   64SBC   C03Q44723  11.440   9.021   3.595
   64SBC   C08E44724  11.523   9.338   3.900
   64SBC   C08D44725  11.537   9.469   3.956
   64SBC   C08K44726  11.531   9.583   3.868
   64SBC   C08C44727  11.556   9.509   4.090
   64SBC   C09144728  11.544   9.647   4.138
   64SBC   C09244729  11.526   9.753   4.049
   64SBC   C08B44730  11.560   9.425   4.198
   64SBC   C09044731  11.548   9.514   4.313
   64SBC   C09444732  11.583   9.469   4.449
   64SBC   C09544733  11.572   9.556   4.560
   64SBC   C09R44734  11.554   9.479   4.679
   64SBC   C09744735  11.544   9.345   4.644
   64SBC   C09644736  11.559   9.344   4.505
   64SBC   C01I44737  11.514   9.040   4.145
   64SBC   C08A44738  11.546   9.222   4.440
   64SBC   C09L44739  11.510   9.229   4.716
   64SBC   C09K44740  11.489   9.206   4.853
   64SBC   C09J44741  11.480   9.305   4.957
   64SBC   C09I44742  11.408   9.288   5.080
   64SBC   C09O44743  11.352   9.176   5.150
   64SBC   C09N44744  11.365   9.039   5.119
   64SBC   C09M44745  11.407   8.986   4.989
   64SBC   C06O44746  11.332   8.948   5.222
   64SBC   C05M44747  11.279   8.992   5.347
   64SBC   C06P44748  11.246   9.130   5.369
   64SBC   C04244749  11.223   8.902   5.437
   64SBC   C04144750  11.225   8.766   5.408
   64SBC   C04044751  11.171   8.677   5.504
   64SBC   C03Z44752  11.150   8.542   5.471
   64SBC   C03Y44753  11.193   8.498   5.345
   64SBC   C02744754  11.164   8.369   5.307
   64SBC   C02644755  11.213   8.316   5.186
   64SBC   C02844756  11.176   8.188   5.141
   64SBC   C02944757  11.095   8.112   5.223
   64SBC   C02B44758  11.053   7.987   5.177
   64SBC   C02C44759  10.971   7.911   5.258
   64SBC   C02X44760  10.925   7.791   5.210
   64SBC   C03E44761  10.835   7.715   5.291
   64SBC   C03G44762  10.784   7.759   5.411
   64SBC   C04Q44763  10.831   7.881   5.450
   64SBC   C04R44764  10.782   7.929   5.571
   64SBC   C04S44765  10.821   8.055   5.618
   64SBC   C04L44766  10.915   8.126   5.550
   64SBC   C04M44767  10.966   8.077   5.426
   64SBC   C04K44768  10.958   8.252   5.591
   64SBC   C04F44769  10.912   8.298   5.711
   64SBC   C04E44770  10.830   8.223   5.791
   64SBC   C04D44771  10.777   8.267   5.910
   64SBC   C05044772  10.690   8.191   5.988
   64SBC   C05144773  10.634   8.247   6.105
   64SBC   C05Q44774  10.549   8.167   6.185
   64SBC   C05V44775  10.509   8.217   6.306
   64SBC   N00544776  10.442   8.128   6.395
   64SBC   C07V44777  10.409   8.000   6.349
   64SBC   C08244778  10.328   7.923   6.428
   64SBC   C08144779  10.304   7.952   6.557
   64SBC   C07C44780  10.347   8.075   6.607
   64SBC   C07B44781  10.327   8.102   6.744
   64SBC   C08044782  10.262   8.016   6.828
   64SBC   C07Z44783  10.253   8.051   6.964
   64SBC   H00L44784  10.204   7.977   7.026
   64SBC   C07944785  10.307   8.170   7.020
   64SBC   C07844786  10.366   8.260   6.927
   64SBC   C07744787  10.422   8.379   6.978
   64SBC   C07X44788  10.423   8.402   7.120
   64SBC   H00I44789  10.475   8.485   7.165
   64SBC   C07Y44790  10.363   8.316   7.212
   64SBC   H00H44791  10.356   8.328   7.319
   64SBC   C07644792  10.473   8.471   6.891
   64SBC   C06C44793  10.524   8.602   6.931
   64SBC   H00C44794  10.529   8.633   7.035
   64SBC   C06F44795  10.476   8.441   6.753
   64SBC   C06E44796  10.520   8.535   6.659
   64SBC   C06G44797  10.542   8.509   6.526
   64SBC   C06H44798  10.511   8.380   6.481
   64SBC   C06I44799  10.454   8.288   6.568
   64SBC   C06L44800  10.605   8.603   6.438
   64SBC   C06M44801  10.631   8.739   6.480
   64SBC   C06K44802  10.658   8.556   6.317
   64SBC   C05S44803  10.624   8.428   6.274
   64SBC   C05U44804  10.736   8.635   6.235
   64SBC   C05X44805  10.756   8.773   6.270
   64SBC   C05G44806  10.850   8.839   6.181
   64SBC   C05F44807  10.903   8.772   6.072
   64SBC   C05E44808  10.977   8.854   5.990
   64SBC   C04844809  11.035   8.812   5.871
   64SBC   C05644810  11.085   8.905   5.781
   64SBC   C04544811  11.133   8.859   5.659
   64SBC   C04744812  11.018   8.679   5.838
   64SBC   C04944813  10.933   8.599   5.917
   64SBC   C04B44814  10.897   8.473   5.877
   64SBC   C04644815  11.057   8.633   5.712
   64SBC   C04H44816  11.027   8.503   5.676
   64SBC   C05D44817  10.970   8.983   6.030
   64SBC   C04A44818  10.873   8.641   6.036
   64SBC   C05T44819  10.789   8.572   6.116
   64SBC   C05544820  10.753   8.448   6.075
   64SBC   C06D44821  10.561   8.658   6.701
   64SBC   C07W44822  10.439   8.318   6.705
   64SBC   C08544823  10.310   8.196   7.164
   64SBC   H00M44824  10.271   8.125   7.235
   64SBC   C08444825  10.215   7.899   6.774
   64SBC   H00J44826  10.160   7.827   6.834
   64SBC   C07A44827  10.374   8.228   6.792
   64SBC   C08344828  10.233   7.870   6.642
   64SBC   H00K44829  10.198   7.775   6.605
   64SBC   O00K44830  10.290   7.794   6.387
   64SBC   C0GO44831  10.351   7.734   6.281
   64SBC   C0GN44832  10.331   7.601   6.249
   64SBC   H01L44833  10.276   7.537   6.316
   64SBC   C0GM44834  10.384   7.551   6.124
   64SBC   C0GL44835  10.374   7.418   6.094
   64SBC   H01M44836  10.317   7.358   6.164
   64SBC   O00J44837  10.421   7.368   5.975
   64SBC   C0GK44838  10.471   7.461   5.885
   64SBC   H01N44839  10.510   7.414   5.796
   64SBC   C05K44840  10.483   7.595   5.916
   64SBC   C05J44841  10.546   7.679   5.818
   64SBC   C04Y44842  10.563   7.646   5.679
   64SBC   C04X44843  10.642   7.726   5.600
   64SBC   O00644844  10.486   7.547   5.625
   64SBC   C05344845  10.508   7.515   5.486
   64SBC   C04O44846  10.613   7.573   5.416
   64SBC   C03C44847  10.666   7.540   5.286
   64SBC   C03B44848  10.617   7.457   5.178
   64SBC   C05444849  10.487   7.390   5.184
   64SBC   C0GR44850  10.445   7.313   5.076
   64SBC   C03M44851  10.481   7.295   4.934
   64SBC   C03I44852  10.583   7.372   4.865
   64SBC   C03J44853  10.586   7.350   4.723
   64SBC   N00244854  10.684   7.421   4.646
   64SBC   C02U44855  10.693   7.402   4.504
   64SBC   C02T44856  10.774   7.482   4.422
   64SBC   C02Z44857  10.776   7.461   4.284
   64SBC   N00144858  10.862   7.539   4.200
   64SBC   C02R44859  10.863   7.524   4.058
   64SBC   C03244860  10.775   7.436   4.000
   64SBC   C03144861  10.687   7.362   4.085
   64SBC   H00744862  10.622   7.294   4.031
   64SBC   C03344863  10.797   7.423   3.858
   64SBC   H00344864  10.739   7.342   3.815
   64SBC   O00444865  10.876   7.505   3.780
   64SBC   C03444866  10.945   7.599   3.841
   64SBC   C03544867  11.020   7.685   3.757
   64SBC   C03644868  11.104   7.778   3.813
   64SBC   H00544869  11.173   7.838   3.756
   64SBC   C03744870  11.104   7.790   3.955
   64SBC   H00644871  11.173   7.861   3.996
   64SBC   C00D44872  11.022   7.710   4.036
   64SBC   C00C44873  11.023   7.728   4.173
   64SBC   C00B44874  11.091   7.845   4.239
   64SBC   C00A44875  11.175   7.971   4.216
   64SBC   C00944876  11.214   8.012   4.344
   64SBC   C00844877  11.276   8.134   4.384
   64SBC   C00744878  11.299   8.226   4.286
   64SBC   C00644879  11.360   8.348   4.330
   64SBC   C00544880  11.379   8.443   4.225
   64SBC   C00444881  11.331   8.424   4.091
   64SBC   C00344882  11.256   8.311   4.061
   64SBC   C00244883  11.198   8.295   3.938
   64SBC   C01C44884  11.233   8.379   3.833
   64SBC   C01B44885  11.197   8.339   3.702
   64SBC   H00044886  11.150   8.244   3.683
   64SBC   C00144887  11.102   8.196   3.922
   64SBC   C00044888  11.085   8.100   4.023
   64SBC   C01U44889  10.954   8.054   4.002
   64SBC   H00244890  10.897   7.985   4.062
   64SBC   C01T44891  10.890   8.127   3.891
   64SBC   O00244892  10.774   8.117   3.854
   64SBC   O00144893  10.990   8.211   3.844
   64SBC   C01S44894  11.246   8.210   4.158
   64SBC   C00N44895  11.292   8.149   4.523
   64SBC   C00M44896  11.247   8.053   4.617
   64SBC   C00J44897  11.168   7.955   4.574
   64SBC   C00I44898  11.096   7.866   4.648
   64SBC   C00H44899  11.021   7.766   4.592
   64SBC   C00G44900  11.013   7.745   4.455
   64SBC   C00F44901  10.942   7.650   4.395
   64SBC   C01X44902  10.948   7.682   4.674
   64SBC   C01W44903  10.945   7.702   4.809
   64SBC   C01V44904  11.027   7.807   4.863
   64SBC   C02044905  11.023   7.833   4.999
   64SBC   C01Z44906  10.871   7.619   4.893
   64SBC   C02Y44907  10.875   7.644   5.024
   64SBC   C03944908  10.797   7.565   5.104
   64SBC   C02W44909  10.780   7.524   4.843
   64SBC   C01Y44910  10.860   7.586   4.617
   64SBC   C00U44911  11.104   7.890   4.782
   64SBC   C00S44912  11.171   7.997   4.834
   64SBC   C00T44913  11.161   8.026   4.969
   64SBC   C00R44914  11.248   8.078   4.752
   64SBC   C00Q44915  11.301   8.194   4.803
   64SBC   C00V44916  11.283   8.228   4.936
   64SBC   C02444917  11.325   8.351   4.976
   64SBC   C00X44918  11.389   8.439   4.894
   64SBC   C00P44919  11.352   8.285   4.710
   64SBC   C00O44920  11.351   8.266   4.567
   64SBC   C00K44921  11.160   7.933   4.440
   64SBC   N00044922  11.160   8.092   4.136
   64SBC   C00L44923  11.084   7.834   4.378
   64SBC   H00444924  11.019   7.673   3.650
   64SBC   C02Q44925  10.942   7.612   3.980
   64SBC   C00E44926  10.947   7.643   4.258
   64SBC   C03044927  10.683   7.376   4.224
   64SBC   O00344928  10.602   7.299   4.304
   64SBC   C02S44929  10.855   7.576   4.477
   64SBC   C03844930  10.601   7.323   4.440
   64SBC   C03L44931  10.509   7.255   4.514
   64SBC   H00844932  10.453   7.181   4.460
   64SBC   C02V44933  10.782   7.507   4.701
   64SBC   C03K44934  10.506   7.262   4.653
   64SBC   C0BK44935  10.424   7.181   4.735
   64SBC   H00T44936  10.360   7.105   4.693
   64SBC   C03H44937  10.684   7.456   4.919
   64SBC   C0BL44938  10.398   7.196   4.867
   64SBC   C0GU44939  10.302   7.116   4.936
   64SBC   H01O44940  10.237   7.046   4.886
   64SBC   C0GT44941  10.279   7.130   5.072
   64SBC   H01P44942  10.205   7.071   5.126
   64SBC   C0GS44943  10.345   7.226   5.137
   64SBC   C0GV44944  10.327   7.255   5.278
   64SBC   C0GW44945  10.234   7.200   5.370
   64SBC   H01Q44946  10.152   7.133   5.350
   64SBC   C0GX44947  10.252   7.251   5.495
   64SBC   H01R44948  10.185   7.220   5.574
   64SBC   O00L44949  10.348   7.343   5.535
   64SBC   C0GQ44950  10.418   7.362   5.305
   64SBC   C03A44951  10.691   7.484   5.058
   64SBC   C05L44952  10.425   7.409   5.436
   64SBC   C04W44953  10.587   7.804   5.861
   64SBC   C05I44954  10.547   7.851   5.987
   64SBC   C05O44955  10.467   7.774   6.070
   64SBC   C05244956  10.579   7.984   6.030
   64SBC   C04V44957  10.664   7.887   5.783
   64SBC   C04U44958  10.705   8.015   5.824
   64SBC   N00944959  10.449   7.643   6.042
   64SBC   C0GP44960  10.420   7.817   6.192
   64SBC   C05W44961  10.455   7.953   6.227
   64SBC   C07D44962  10.411   8.168   6.525
   64SBC   C06J44963  10.547   8.341   6.357
   64SBC   C05P44964  10.528   8.034   6.150
   64SBC   C05R44965  10.668   8.374   6.150
   64SBC   C04Z44966  10.660   8.061   5.947
   64SBC   C04C44967  10.806   8.395   5.952
   64SBC   C04G44968  10.943   8.422   5.756
   64SBC   C04J44969  11.040   8.331   5.509
   64SBC   C04T44970  10.786   8.098   5.746
   64SBC   N00344971  10.699   7.847   5.651
   64SBC   C04P44972  10.681   7.685   5.475
   64SBC   C03D44973  10.776   7.607   5.236
   64SBC   C02144974  10.946   7.750   5.080
   64SBC   C03F44975  10.927   7.957   5.381
   64SBC   C02244976  11.079   7.948   5.049
   64SBC   C02A44977  11.050   8.157   5.347
   64SBC   C02344978  11.207   8.146   5.014
   64SBC   C02544979  11.292   8.396   5.103
   64SBC   C02D44980  11.306   8.530   5.137
   64SBC   C02E44981  11.363   8.620   5.045
   64SBC   C02N44982  11.369   8.759   5.071
   64SBC   C04N44983  11.086   8.284   5.388
   64SBC   C02P44984  11.265   8.579   5.259
   64SBC   C04I44985  11.079   8.457   5.554
   64SBC   C04444986  11.126   8.724   5.630
   64SBC   C04344987  11.277   8.717   5.290
   64SBC   C05N44988  11.333   8.808   5.197
   64SBC   C09U44989  11.285   9.221   5.274
   64SBC   C09V44990  11.259   9.359   5.303
   64SBC   C09X44991  11.295   9.458   5.216
   64SBC   C09Y44992  11.259   9.590   5.219
   64SBC   C0A144993  11.189   9.632   5.329
   64SBC   C0A244994  11.165   9.535   5.432
   64SBC   C0A444995  11.111   9.579   5.548
   64SBC   C07144996  11.086   9.494   5.649
   64SBC   C0A544997  11.026   9.538   5.764
   64SBC   C0A944998  10.988   9.674   5.776
   64SBC   C0A844999  11.012   9.757   5.670
   64SBC   C0AP45000  10.976   9.888   5.680
   64SBC   C0BY45001  10.983   9.967   5.568
   64SBC   C0BX45002  11.039   9.926   5.450
   64SBC   C0C245003  11.030  10.010   5.335
   64SBC   C0C345004  11.095   9.966   5.217
   64SBC   C0CT45005  11.163   9.844   5.220
   64SBC   C0C145006  10.947  10.124   5.331
   64SBC   C0C045007  10.908  10.175   5.462
   64SBC   C0A745008  11.086   9.800   5.447
   64SBC   C0BZ45009  10.937  10.096   5.572
   64SBC   C0BO45010  10.873  10.146   5.685
   64SBC   C0BN45011  10.850  10.062   5.793
   64SBC   C0BM45012  10.776  10.106   5.901
   64SBC   C0B945013  10.745  10.023   6.005
   64SBC   C0B845014  10.801   9.895   6.007
   64SBC   C0AD45015  10.878   9.852   5.901
   64SBC   C0AF45016  10.765   9.807   6.109
   64SBC   C0AG45017  10.672   9.838   6.211
   64SBC   C0B745018  10.631   9.975   6.218
   64SBC   C0AE45019  10.817   9.685   6.094
   64SBC   C0AB45020  10.890   9.630   5.986
   64SBC   C0AA45021  10.932   9.497   5.980
   64SBC   C0AJ45022  10.783   9.598   6.198
   64SBC   C0AK45023  10.832   9.468   6.195
   64SBC   C06W45024  10.762   9.406   6.297
   64SBC   C0AI45025  10.693   9.618   6.306
   64SBC   C0BP45026  10.811  10.264   5.654
   64SBC   C0BQ45027  10.733  10.316   5.771
   64SBC   C0BW45028  10.900   9.931   5.789
   64SBC   C0AC45029  10.920   9.720   5.889
   64SBC   C0A645030  11.073   9.711   5.556
   64SBC   C0A345031  11.152   9.761   5.331
   64SBC   C09Z45032  11.293   9.683   5.120
   64SBC   C09W45033  11.196   9.399   5.416
   64SBC   C07245034  11.162   9.311   5.512
   64SBC   C09H45035  11.377   9.418   5.117
   64SBC   C09G45036  11.421   9.513   5.026
   64SBC   C09P45037  11.478   9.443   4.924
   64SBC   C02O45038  11.457   9.068   4.874
   64SBC   C02M45039  11.415   8.847   4.969
   64SBC   C02F45040  11.410   8.568   4.928
   64SBC   C00W45041  11.405   8.395   4.762
   64SBC   C01R45042  11.393   8.356   4.468
   64SBC   C01N45043  11.501   8.680   4.591
   64SBC   C01L45044  11.499   8.878   4.450
   64SBC   C01H45045  11.483   8.916   4.089
   64SBC   C01K45046  11.432   8.579   4.245
   64SBC   C01E45047  11.346   8.522   3.990
   64SBC   C01G45048  11.446   8.886   3.948
   64SBC   C01D45049  11.301   8.497   3.860
   64SBC   C01A45050  11.234   8.427   3.603
   64SBC   H00145051  11.202   8.398   3.504
   64SBC   C01F45052  11.388   8.804   3.687
   64SBC   C03P45053  11.418   8.983   3.465
   64SBC   C03T45054  11.466   9.159   3.610
   64SBC   C08I45055  11.520   9.428   3.683
   64SBC   C08J45056  11.518   9.556   3.730
   64SBC   C08L45057  11.530   9.716   3.913
   64SBC   C09345058  11.517   9.878   4.109
   64SBC   C08Z45059  11.539   9.657   4.273
   64SBC   C09T45060  11.421  10.027   4.556
   64SBC   C09S45061  11.544   9.689   4.572
   64SBC   C09Q45062  11.514   9.519   4.806
   64SBC   C09F45063  11.376   9.647   5.017
   64SBC   C09E45064  11.389   9.919   4.776
   64SBC   C0A045065  11.235   9.808   5.109
   64SBC   C0CU45066  11.092  10.046   5.102
   64SBC   C0CR45067  10.990  10.147   5.096
   64SBC   C0CZ45068  10.979  10.221   4.974
   64SBC   C0DA45069  11.349  10.029   4.692
   64SBC   C0D945070  11.262  10.379   4.689
   64SBC   H00V45071  11.364  10.414   4.696
   64SBC   C0CY45072  11.072  10.195   4.864
   64SBC   C0DF45073  11.151  10.469   4.695
   64SBC   C0DE45074  11.123  10.608   4.716
   64SBC   C0GI45075  11.193  10.724   4.692
   64SBC   H01K45076  11.294  10.717   4.656
   64SBC   C0GJ45077  11.137  10.845   4.725
   64SBC   H01J45078  11.201  10.931   4.717
   64SBC   O00I45079  11.019  10.857   4.798
   64SBC   C0GH45080  10.944  10.743   4.820
   64SBC   C0GG45081  10.825  10.761   4.896
   64SBC   O00G45082  10.786  10.890   4.915
   64SBC   C0G845083  10.685  10.934   4.999
   64SBC   C0G945084  10.642  11.067   4.977
   64SBC   H01G45085  10.664  11.123   4.887
   64SBC   C0GA45086  10.546  11.113   5.067
   64SBC   H01H45087  10.503  11.211   5.047
   64SBC   C0GB45088  10.498  11.039   5.178
   64SBC   C0EP45089  10.558  10.912   5.198
   64SBC   C0E845090  10.542  10.849   5.334
   64SBC   C0CK45091  10.583  10.735   5.398
   64SBC   C0CL45092  10.576  10.619   5.326
   64SBC   C0E945093  10.628  10.615   5.186
   64SBC   C0GE45094  10.680  10.713   5.090
   64SBC   C0E745095  10.452  10.908   5.427
   64SBC   C0CJ45096  10.446  10.834   5.547
   64SBC   C0E645097  10.353  10.873   5.644
   64SBC   H00Y45098  10.330  10.823   5.737
   64SBC   C0EO45099  10.283  10.992   5.612
   64SBC   H01145100  10.203  11.023   5.679
   64SBC   C0G645101  10.291  11.067   5.490
   64SBC   C0G545102  10.214  11.185   5.453
   64SBC   H01F45103  10.138  11.218   5.522
   64SBC   C0GD45104  10.249  11.256   5.345
   64SBC   H01I45105  10.200  11.350   5.325
   64SBC   O00H45106  10.348  11.218   5.257
   64SBC   C0EQ45107  10.385  11.022   5.395
   64SBC   C0GC45108  10.406  11.088   5.276
   64SBC   C0G745109  10.643  10.851   5.103
   64SBC   C0DD45110  10.994  10.618   4.777
   64SBC   C0GF45111  10.754  10.667   4.974
   64SBC   C0CO45112  10.632  10.477   5.163
   64SBC   C0D045113  10.879  10.319   4.976
   64SBC   C0C445114  10.912  10.186   5.213
   64SBC   C0CN45115  10.607  10.402   5.279
   64SBC   C0CP45116  10.840  10.292   5.517
   64SBC   C0CM45117  10.575  10.489   5.386
   64SBC   C0CI45118  10.546  10.736   5.536
   64SBC   C0CD45119  10.520  10.678   6.012
   64SBC   C0BR45120  10.670  10.441   5.760
   64SBC   C0CS45121  10.723  10.238   5.890
   64SBC   C0B645122  10.667  10.061   6.113
   64SBC   C0CG45123  10.531  10.460   6.110
   64SBC   C0CF45124  10.485  10.589   6.114
   64SBC   C0E545125  10.410  10.861   6.121
   64SBC   C0DT45126  10.263  10.958   6.331
   64SBC   C0DL45127  10.291  10.599   6.429
   64SBC   C0DM45128  10.271  10.518   6.538
   64SBC   C0DY45129  10.162  10.698   6.652
   64SBC   C0DU45130  10.194  11.000   6.441
   64SBC   C0F045131  10.163  11.186   6.587
   64SBC   C0F445132  10.130  11.297   6.833
   64SBC   C0FG45133  10.010  10.947   6.879
   64SBC   O00B45134  10.123  11.234   7.068
   64SBC   C0FN45135  10.010  10.886   7.004
   64SBC   C0DZ45136  10.092  10.750   6.768
   64SBC   O00C45137  10.138  10.465   6.990
   64SBC   C0FR45138  10.145  10.330   6.988
   64SBC   O00D45139  10.116  10.269   7.095
   64SBC   C0E045140  10.212  10.569   6.648
   64SBC   C0E345141  10.197  10.275   6.864
   64SBC   C0AW45142  10.224  10.140   6.847
   64SBC   C0AV45143  10.173  10.034   6.935
   64SBC   H00Q45144  10.108  10.050   7.020
   64SBC   C0AU45145  10.196   9.897   6.916
   64SBC   H00R45146  10.152   9.820   6.977
   64SBC   C0AT45147  10.285   9.863   6.811
   64SBC   C0AS45148  10.342   9.739   6.756
   64SBC   C0AR45149  10.343   9.615   6.829
   64SBC   C0BE45150  10.346   9.961   6.739
   64SBC   C0DN45151  10.327  10.390   6.537
   64SBC   C0AX45152  10.302  10.096   6.745
   64SBC   C0BB45153  10.458  10.211   6.434
   64SBC   C0BD45154  10.415   9.907   6.633
   64SBC   C0B245155  10.561  10.021   6.327
   64SBC   C0AH45156  10.634   9.751   6.314
   64SBC   C0BF45157  10.424   9.769   6.636
   64SBC   C0AL45158  10.683   9.493   6.375
   64SBC   C07U45159  10.458   9.466   6.658
   64SBC   C0AQ45160  10.386   9.493   6.776
   64SBC   C0BG45161  10.291   9.593   6.967
   64SBC   C0FY45162  10.444   9.336   7.172
   64SBC   C0BJ45163  10.364   9.665   7.076
   64SBC   H00S45164  10.397   9.767   7.065
   64SBC   C0FZ45165  10.539   9.411   7.247
   64SBC   C07S45166  10.503   9.228   7.100
   64SBC   C0G145167  10.797   9.170   7.322
   64SBC   C07K45168  10.845   8.869   7.109
   64SBC   C07H45169  10.633   9.005   6.974
   64SBC   C06B45170  10.553   8.689   6.830
   64SBC   C06N45171  10.583   8.761   6.612
   64SBC   C06645172  10.546   9.104   6.755
   64SBC   C06245173  10.599   9.186   6.453
   64SBC   C05Y45174  10.688   8.827   6.387
   64SBC   C06145175  10.647   9.190   6.318
   64SBC   C05H45176  10.890   8.976   6.154
   64SBC   C06V45177  10.748   9.269   6.275
   64SBC   C06Y45178  10.906   9.413   6.085
   64SBC   C05C45179  11.023   9.089   5.939
   64SBC   C06Z45180  10.999   9.450   5.869
   64SBC   C07045181  11.119   9.357   5.635
   64SBC   C05B45182  11.076   9.040   5.813
   64SBC   C05745183  11.171   8.949   5.563
   64SBC   C05945184  11.194   9.177   5.489
   65SBC   C05845185   6.571  10.974  14.075
   65SBC   C05A45186   6.687  10.965  14.153
   65SBC   C06Q45187   6.678  10.974  14.292
   65SBC   C06R45188   6.793  10.971  14.370
   65SBC   C06S45189   6.924  10.952  14.308
   65SBC   C06T45190   7.037  10.953  14.392
   65SBC   C06U45191   7.182  10.951  14.359
   65SBC   C06X45192   7.258  10.929  14.241
   65SBC   C06045193   7.396  10.966  14.259
   65SBC   C05Z45194   7.518  10.899  14.209
   65SBC   C06845195   7.613  10.899  14.325
   65SBC   C06745196   7.753  10.851  14.337
   65SBC   C06945197   7.824  10.806  14.215
   65SBC   C06A45198   7.969  10.795  14.205
   65SBC   C07345199   8.078  10.840  14.283
   65SBC   C07P45200   8.187  10.898  14.218
   65SBC   C07O45201   8.183  10.976  14.098
   65SBC   H00D45202   8.085  11.009  14.066
   65SBC   C07N45203   8.290  11.010  14.022
   65SBC   H00E45204   8.294  11.061  13.927
   65SBC   C07M45205   8.413  10.979  14.085
   65SBC   H00F45206   8.508  11.004  14.041
   65SBC   C07L45207   8.424  10.923  14.210
   65SBC   C07Q45208   8.552  10.900  14.279
   65SBC   H00G45209   8.642  10.927  14.226
   65SBC   O00F45210   8.561  10.840  14.407
   65SBC   C07J45211   8.443  10.834  14.478
   65SBC   C07I45212   8.313  10.845  14.415
   65SBC   N00445213   8.200  10.810  14.487
   65SBC   C07R45214   8.217  10.767  14.621
   65SBC   C07T45215   8.345  10.770  14.682
   65SBC   C0FX45216   8.366  10.749  14.817
   65SBC   C0FW45217   8.479  10.772  14.888
   65SBC   C0G045218   8.597  10.795  14.805
   65SBC   C0G245219   8.725  10.823  14.861
   65SBC   H01E45220   8.809  10.839  14.794
   65SBC   C0G345221   8.732  10.825  14.999
   65SBC   H01C45222   8.824  10.849  15.050
   65SBC   C0G445223   8.615  10.806  15.074
   65SBC   H01D45224   8.627  10.796  15.181
   65SBC   O00E45225   8.588  10.787  14.668
   65SBC   C0FV45226   8.487  10.781  15.026
   65SBC   C0FU45227   8.368  10.767  15.097
   65SBC   H01B45228   8.373  10.791  15.202
   65SBC   C0FT45229   8.248  10.733  15.027
   65SBC   C0FS45230   8.108  10.722  15.056
   65SBC   C0BI45231   8.042  10.674  14.939
   65SBC   C0BH45232   7.903  10.714  14.942
   65SBC   C07F45233   7.838  10.778  14.828
   65SBC   C07E45234   7.855  10.768  14.693
   65SBC   C07G45235   7.968  10.748  14.626
   65SBC   C07445236   7.957  10.778  14.493
   65SBC   C06545237   7.774  10.831  14.597
   65SBC   C06445238   7.671  10.904  14.657
   65SBC   C06345239   7.568  10.975  14.592
   65SBC   C07545240   7.478  11.027  14.698
   65SBC   C0AM45241   7.542  11.017  14.824
   65SBC   C0AN45242   7.505  11.072  14.957
   65SBC   C0AO45243   7.373  11.129  14.997
   65SBC   C0B145244   7.360  11.206  15.117
   65SBC   C0B045245   7.465  11.218  15.204
   65SBC   C0AZ45246   7.464  11.297  15.319
   65SBC   C0AY45247   7.575  11.301  15.403
   65SBC   N00745248   7.582  11.380  15.511
   65SBC   C0E245249   7.703  11.397  15.586
   65SBC   C0E145250   7.693  11.492  15.688
   65SBC   C0E445251   7.811  11.517  15.758
   65SBC   C0FF45252   7.818  11.609  15.864
   65SBC   C0FJ45253   7.931  11.674  15.929
   65SBC   C0FK45254   8.055  11.716  15.859
   65SBC   H01645255   8.091  11.676  15.765
   65SBC   C0FL45256   8.102  11.839  15.926
   65SBC   H01745257   8.181  11.907  15.899
   65SBC   C0FM45258   8.018  11.860  16.046
   65SBC   C0FH45259   7.959  11.971  16.122
   65SBC   C0FI45260   7.824  11.923  16.139
   65SBC   C0F345261   7.717  12.018  16.133
   65SBC   C0F245262   7.598  11.965  16.093
   65SBC   C0DW45263   7.582  11.847  16.026
   65SBC   C0FE45264   7.684  11.756  16.010
   65SBC   C0DV45265   7.470  11.824  15.947
   65SBC   C0DX45266   7.462  11.719  15.859
   65SBC   C0DK45267   7.345  11.702  15.785
   65SBC   C0DJ45268   7.242  11.794  15.795
   65SBC   C0DI45269   7.121  11.774  15.726
   65SBC   C0DH45270   7.117  11.669  15.635
   65SBC   C0DG45271   7.232  11.592  15.607
   65SBC   C0BV45272   7.233  11.502  15.502
   65SBC   C0BC45273   7.348  11.433  15.466
   65SBC   C0BA45274   7.116  11.479  15.431
   65SBC   C0B445275   7.116  11.393  15.326
   65SBC   C0B345276   7.233  11.330  15.283
   65SBC   C0B545277   6.999  11.364  15.263
   65SBC   C0BU45278   6.879  11.426  15.300
   65SBC   C0BT45279   6.875  11.523  15.398
   65SBC   C0BS45280   6.757  11.588  15.436
   65SBC   C0CC45281   6.765  11.695  15.525
   65SBC   C0CB45282   6.654  11.769  15.560
   65SBC   C0CH45283   6.684  11.898  15.611
   65SBC   C0DO45284   6.800  11.935  15.678
   65SBC   C0DP45285   6.817  12.055  15.751
   65SBC   C0EA45286   6.708  12.150  15.765
   65SBC   H01245287   6.605  12.139  15.734
   65SBC   O00945288   6.735  12.281  15.794
   65SBC   C0EH45289   6.857  12.308  15.845
   65SBC   C0EG45290   6.879  12.438  15.891
   65SBC   C0EJ45291   6.806  12.558  15.886
   65SBC   H01045292   6.709  12.559  15.838
   65SBC   C0EK45293   6.891  12.664  15.937
   65SBC   H00Z45294   6.874  12.771  15.934
   65SBC   C0EL45295   7.006  12.601  15.984
   65SBC   C0EM45296   7.125  12.655  16.035
   65SBC   C0EW45297   7.147  12.785  16.085
   65SBC   H01345298   7.073  12.863  16.074
   65SBC   C0EX45299   7.273  12.815  16.154
   65SBC   H01445300   7.294  12.907  16.207
   65SBC   C0F145301   7.381  12.718  16.164
   65SBC   C0EU45302   7.358  12.591  16.109
   65SBC   C0ET45303   7.439  12.478  16.116
   65SBC   C0ES45304   7.360  12.377  16.060
   65SBC   C0EE45305   7.231  12.423  16.022
   65SBC   C0ED45306   7.104  12.377  15.975
   65SBC   C0EC45307   7.083  12.246  15.928
   65SBC   C0EB45308   7.181  12.136  15.939
   65SBC   C0EN45309   7.300  12.148  16.020
   65SBC   C0ER45310   7.379  12.037  16.022
   65SBC   C0DS45311   7.156  12.009  15.881
   65SBC   C0DR45312   7.038  11.989  15.808
   65SBC   C0EY45313   7.384  12.251  16.083
   65SBC   C0EZ45314   7.508  12.195  16.123
   65SBC   C0F545315   7.638  12.245  16.160
   65SBC   C0F645316   7.665  12.383  16.179
   65SBC   N00845317   7.798  12.416  16.219
   65SBC   C0F745318   7.905  12.321  16.207
   65SBC   C0FQ45319   8.035  12.363  16.243
   65SBC   H01845320   8.119  12.295  16.233
   65SBC   C0FP45321   8.060  12.488  16.300
   65SBC   H01945322   8.158  12.506  16.341
   65SBC   C0FO45323   7.954  12.577  16.301
   65SBC   H01A45324   7.971  12.680  16.328
   65SBC   C0F845325   7.875  12.192  16.170
   65SBC   C0F945326   7.827  12.547  16.257
   65SBC   C0FA45327   7.730  12.653  16.257
   65SBC   H01545328   7.752  12.753  16.289
   65SBC   C0FB45329   7.596  12.621  16.217
   65SBC   C0FD45330   7.569  12.491  16.179
   65SBC   C0FC45331   7.510  12.735  16.222
   65SBC   O00A45332   7.541  12.843  16.278
   65SBC   C0EV45333   7.233  12.555  16.055
   65SBC   C0EF45334   6.998  12.467  15.948
   65SBC   C0EI45335   6.963  12.214  15.863
   65SBC   C0DQ45336   6.938  12.083  15.813
   65SBC   C0CE45337   6.899  11.842  15.672
   65SBC   H00U45338   6.600  11.966  15.615
   65SBC   C0CA45339   6.528  11.713  15.537
   65SBC   C0C945340   6.512  11.602  15.441
   65SBC   C0C845341   6.376  11.547  15.427
   65SBC   C0C745342   6.313  11.466  15.322
   65SBC   C0C645343   6.176  11.441  15.330
   65SBC   C0C545344   6.063  11.428  15.244
   65SBC   C0CQ45345   5.938  11.457  15.298
   65SBC   C0D145346   5.929  11.542  15.408
   65SBC   C0D845347   5.837  11.639  15.399
   65SBC   C0D745348   5.751  11.582  15.299
   65SBC   C0D645349   5.638  11.652  15.248
   65SBC   C0D545350   5.555  11.599  15.144
   65SBC   C0D445351   5.577  11.501  15.042
   65SBC   C0D345352   5.519  11.538  14.920
   65SBC   C0CX45353   5.596  11.478  14.812
   65SBC   C0CW45354   5.718  11.417  14.867
   65SBC   C0CV45355   5.834  11.340  14.814
   65SBC   C0D245356   5.829  11.283  14.681
   65SBC   C09D45357   5.718  11.277  14.593
   65SBC   C09C45358   5.727  11.209  14.472
   65SBC   C09B45359   5.621  11.199  14.375
   65SBC   C09A45360   5.500  11.266  14.410
   65SBC   C09945361   5.477  11.314  14.532
   65SBC   C09845362   5.372  11.411  14.521
   65SBC   C08Y45363   5.343  11.437  14.387
   65SBC   C08X45364   5.264  11.540  14.325
   65SBC   C08W45365   5.190  11.634  14.405
   65SBC   C08U45366   5.197  11.656  14.551
   65SBC   C08V45367   5.284  11.599  14.651
   65SBC   C0DC45368   5.226  11.632  14.778
   65SBC   H00W45369   5.277  11.589  14.863
   65SBC   C0DB45370   5.108  11.707  14.762
   65SBC   H00X45371   5.043  11.744  14.840
   65SBC   C08T45372   5.088  11.717  14.623
   65SBC   C08S45373   4.991  11.786  14.560
   65SBC   H00N45374   4.925  11.843  14.623
   65SBC   C08R45375   4.983  11.789  14.422
   65SBC   C08Q45376   4.888  11.864  14.347
   65SBC   H00O45377   4.814  11.925  14.396
   65SBC   C08P45378   4.883  11.873  14.204
   65SBC   C08O45379   4.790  11.952  14.134
   65SBC   H00P45380   4.716  12.012  14.184
   65SBC   C08N45381   4.783  11.948  13.989
   65SBC   C08M45382   4.687  12.024  13.914
   65SBC   O00845383   4.590  12.091  13.951
   65SBC   O00745384   4.699  12.030  13.783
   65SBC   C08H45385   4.790  11.952  13.713
   65SBC   C08G45386   4.803  11.957  13.572
   65SBC   C03V45387   4.732  12.033  13.480
   65SBC   H00945388   4.659  12.106  13.513
   65SBC   C03U45389   4.763  12.034  13.338
   65SBC   C03W45390   4.708  12.128  13.242
   65SBC   H00A45391   4.637  12.206  13.264
   65SBC   C03X45392   4.734  12.116  13.112
   65SBC   H00B45393   4.692  12.173  13.030
   65SBC   O00545394   4.822  12.018  13.064
   65SBC   C03O45395   4.892  11.943  13.156
   65SBC   C03N45396   4.992  11.871  13.101
   65SBC   O00045397   5.005  11.879  12.961
   65SBC   C01945398   5.102  11.803  12.906
   65SBC   C01845399   5.185  11.724  12.990
   65SBC   C01745400   5.164  11.714  13.130
   65SBC   C01645401   5.245  11.638  13.209
   65SBC   C01545402   5.348  11.575  13.143
   65SBC   C01445403   5.433  11.496  13.217
   65SBC   C01345404   5.414  11.469  13.356
   65SBC   C01245405   5.523  11.376  13.390
   65SBC   C01145406   5.582  11.349  13.268
   65SBC   C01045407   5.668  11.245  13.261
   65SBC   C00Z45408   5.751  11.214  13.152
   65SBC   C00Y45409   5.846  11.123  13.211
   65SBC   C01O45410   5.818  11.088  13.339
   65SBC   C01P45411   5.926  11.070  13.435
   65SBC   C02L45412   5.898  11.086  13.567
   65SBC   C02K45413   5.782  11.156  13.597
   65SBC   C01M45414   5.684  11.217  13.503
   65SBC   C02J45415   5.761  11.169  13.738
   65SBC   C02I45416   5.648  11.215  13.799
   65SBC   C02H45417   5.539  11.283  13.753
   65SBC   C01Q45418   5.503  11.337  13.629
   65SBC   C02G45419   5.392  11.421  13.640
   65SBC   C08945420   5.342  11.399  13.766
   65SBC   C08845421   5.266  11.504  13.813
   65SBC   C08745422   5.225  11.565  13.687
   65SBC   C08645423   5.120  11.647  13.665
   65SBC   C03S45424   5.072  11.701  13.543
   65SBC   N00645425   4.966  11.786  13.585
   65SBC   C08F45426   4.961  11.787  13.720
   65SBC   C01J45427   5.110  11.700  13.406
   65SBC   C03R45428   5.032  11.783  13.324
   65SBC   C03Q45429   4.932  11.871  13.379
   65SBC   C08E45430   5.043  11.700  13.773
   65SBC   C08D45431   5.054  11.694  13.916
   65SBC   C08K45432   4.966  11.778  13.995
   65SBC   C08C45433   5.139  11.616  13.993
   65SBC   C09145434   5.144  11.631  14.133
   65SBC   C09245435   5.057  11.712  14.206
   65SBC   C08B45436   5.232  11.522  13.957
   65SBC   C09045437   5.289  11.469  14.076
   65SBC   C09445438   5.379  11.361  14.080
   65SBC   C09545439   5.439  11.304  14.189
   65SBC   C09R45440   5.544  11.228  14.156
   65SBC   C09745441   5.555  11.226  14.020
   65SBC   C09645442   5.456  11.308  13.974
   65SBC   C01I45443   5.307  11.509  13.574
   65SBC   C08A45444   5.443  11.330  13.839
   65SBC   C09L45445   5.660  11.179  13.935
   65SBC   C09K45446   5.778  11.105  13.956
   65SBC   C09J45447   5.833  11.080  14.086
   65SBC   C09I45448   5.972  11.065  14.111
   65SBC   C09O45449   6.092  11.045  14.036
   65SBC   C09N45450   6.093  11.040  13.893
   65SBC   C09M45451   5.988  11.068  13.797
   65SBC   C06O45452   6.221  11.020  13.836
   65SBC   C05M45453   6.339  11.007  13.917
   65SBC   C06P45454   6.334  11.020  14.053
   65SBC   C04245455   6.465  10.978  13.858
   65SBC   C04145456   6.472  10.967  13.720
   65SBC   C04045457   6.600  10.948  13.658
   65SBC   C03Z45458   6.622  10.944  13.521
   65SBC   C03Y45459   6.509  10.953  13.443
   65SBC   C02745460   6.527  10.965  13.304
   65SBC   C02645461   6.421  10.985  13.222
   65SBC   C02845462   6.440  10.997  13.085
   65SBC   C02945463   6.564  10.987  13.025
   65SBC   C02B45464   6.582  11.006  12.889
   65SBC   C02C45465   6.707  10.995  12.836
   65SBC   C02X45466   6.721  11.011  12.701
   65SBC   C03E45467   6.851  11.001  12.650
   65SBC   C03G45468   6.967  10.997  12.726
   65SBC   C04Q45469   6.949  10.980  12.861
   65SBC   C04R45470   7.060  10.964  12.944
   65SBC   C04S45471   7.042  10.950  13.079
   65SBC   C04L45472   6.909  10.942  13.130
   65SBC   C04M45473   6.802  10.958  13.051
   65SBC   C04K45474   6.889  10.929  13.268
   65SBC   C04F45475   7.005  10.921  13.348
   65SBC   C04E45476   7.134  10.926  13.296
   65SBC   C04D45477   7.247  10.919  13.380
   65SBC   C05045478   7.375  10.916  13.327
   65SBC   C05145479   7.482  10.901  13.412
   65SBC   C05Q45480   7.603  10.876  13.351
   65SBC   C05V45481   7.710  10.836  13.436
   65SBC   N00545482   7.829  10.803  13.378
   65SBC   C07V45483   7.844  10.814  13.242
   65SBC   C08245484   7.962  10.770  13.178
   65SBC   C08145485   8.066  10.707  13.252
   65SBC   C07C45486   8.055  10.700  13.388
   65SBC   C07B45487   8.159  10.654  13.472
   65SBC   C08045488   8.276  10.604  13.411
   65SBC   C07Z45489   8.375  10.557  13.496
   65SBC   H00L45490   8.474  10.540  13.456
   65SBC   C07945491   8.369  10.555  13.637
   65SBC   C07845492   8.251  10.605  13.693
   65SBC   C07745493   8.241  10.609  13.831
   65SBC   C07X45494   8.345  10.558  13.913
   65SBC   H00I45495   8.350  10.549  14.021
   65SBC   C07Y45496   8.463  10.506  13.861
   65SBC   H00H45497   8.544  10.470  13.923
   65SBC   C07645498   8.127  10.657  13.888
   65SBC   C06C45499   8.125  10.692  14.028
   65SBC   H00C45500   8.208  10.680  14.095
   65SBC   C06F45501   8.014  10.696  13.812
   65SBC   C06E45502   7.894  10.730  13.864
   65SBC   C06G45503   7.782  10.771  13.794
   65SBC   C06H45504   7.801  10.775  13.655
   65SBC   C06I45505   7.919  10.737  13.594
   65SBC   C06L45506   7.661  10.804  13.858
   65SBC   C06M45507   7.653  10.821  14.007
   65SBC   C06K45508   7.557  10.845  13.773
   65SBC   C05S45509   7.575  10.851  13.630
   65SBC   C05U45510   7.427  10.864  13.827
   65SBC   C05X45511   7.411  10.865  13.973
   65SBC   C05G45512   7.268  10.877  14.006
   65SBC   C05F45513   7.169  10.886  13.913
   65SBC   C05E45514   7.043  10.899  13.970
   65SBC   C04845515   6.932  10.905  13.892
   65SBC   C05645516   6.816  10.921  13.959
   65SBC   C04545517   6.699  10.935  13.876
   65SBC   C04745518   6.953  10.909  13.759
   65SBC   C04945519   7.080  10.900  13.700
   65SBC   C04B45520   7.098  10.911  13.568
   65SBC   C04645521   6.841  10.925  13.680
   65SBC   C04H45522   6.857  10.925  13.544
   65SBC   C05D45523   7.052  10.921  14.105
   65SBC   C04A45524   7.194  10.885  13.778
   65SBC   C05T45525   7.323  10.883  13.739
   65SBC   C05545526   7.338  10.892  13.601
   65SBC   C06D45527   7.888  10.749  14.004
   65SBC   C07W45528   8.024  10.692  13.670
   65SBC   C08545529   8.472  10.506  13.720
   65SBC   H00M45530   8.559  10.462  13.672
   65SBC   C08445531   8.289  10.617  13.271
   65SBC   H00J45532   8.385  10.584  13.234
   65SBC   C07A45533   8.145  10.656  13.612
   65SBC   C08345534   8.186  10.666  13.194
   65SBC   H00K45535   8.207  10.672  13.088
   65SBC   O00K45536   7.988  10.789  13.046
   65SBC   C0GO45537   7.893  10.851  12.971
   65SBC   C0GN45538   7.920  10.886  12.835
   65SBC   H01L45539   8.016  10.862  12.792
   65SBC   C0GM45540   7.820  10.950  12.756
   65SBC   C0GL45541   7.847  10.996  12.629
   65SBC   H01M45542   7.947  10.975  12.592
   65SBC   O00J45543   7.749  11.046  12.551
   65SBC   C0GK45544   7.621  11.045  12.604
   65SBC   H01N45545   7.542  11.088  12.544
   65SBC   C05K45546   7.589  10.993  12.724
   65SBC   C05J45547   7.451  10.983  12.769
   65SBC   C04Y45548   7.330  10.999  12.694
   65SBC   C04X45549   7.200  10.989  12.746
   65SBC   O00645550   7.342  11.025  12.558
   65SBC   C05345551   7.234  11.054  12.478
   65SBC   C04O45552   7.101  11.037  12.526
   65SBC   C03C45553   6.975  11.060  12.454
   65SBC   C03B45554   6.934  11.115  12.326
   65SBC   C05445555   7.024  11.178  12.241
   65SBC   C0GR45556   6.984  11.211  12.109
   65SBC   C03M45557   6.853  11.243  12.033
   65SBC   C03I45558   6.724  11.236  12.096
   65SBC   C03J45559   6.608  11.271  12.015
   65SBC   N00245560   6.479  11.278  12.072
   65SBC   C02U45561   6.365  11.314  11.996
   65SBC   C02T45562   6.240  11.338  12.066
   65SBC   C02Z45563   6.132  11.388  11.995
   65SBC   N00145564   6.010  11.418  12.053
   65SBC   C02R45565   5.903  11.468  11.977
   65SBC   C03245566   5.904  11.477  11.836
   65SBC   C03145567   6.027  11.435  11.773
   65SBC   H00745568   6.019  11.429  11.665
   65SBC   C03345569   5.782  11.522  11.772
   65SBC   H00345570   5.782  11.544  11.667
   65SBC   O00445571   5.670  11.563  11.836
   65SBC   C03445572   5.677  11.567  11.974
   65SBC   C03545573   5.572  11.626  12.040
   65SBC   C03645574   5.580  11.640  12.179
   65SBC   H00545575   5.500  11.690  12.233
   65SBC   C03745576   5.695  11.602  12.252
   65SBC   H00645577   5.699  11.619  12.358
   65SBC   C00D45578   5.783  11.521  12.185
   65SBC   C00C45579   5.872  11.449  12.262
   65SBC   C00B45580   5.855  11.419  12.407
   65SBC   C00A45581   5.769  11.425  12.537
   65SBC   C00945582   5.848  11.363  12.641
   65SBC   C00845583   5.826  11.340  12.775
   65SBC   C00745584   5.708  11.387  12.830
   65SBC   C00645585   5.686  11.363  12.967
   65SBC   C00545586   5.571  11.428  13.021
   65SBC   C00445587   5.484  11.508  12.942
   65SBC   C00345588   5.508  11.517  12.802
   65SBC   C00245589   5.411  11.583  12.724
   65SBC   C01C45590   5.308  11.664  12.786
   65SBC   C01B45591   5.226  11.744  12.704
   65SBC   H00045592   5.253  11.763  12.601
   65SBC   C00145593   5.418  11.568  12.583
   65SBC   C00045594   5.523  11.493  12.523
   65SBC   C01U45595   5.476  11.460  12.392
   65SBC   H00245596   5.516  11.389  12.320
   65SBC   C01T45597   5.342  11.530  12.371
   65SBC   O00245598   5.267  11.539  12.275
   65SBC   O00145599   5.312  11.584  12.492
   65SBC   C01S45600   5.614  11.449  12.746
   65SBC   C00N45601   5.922  11.266  12.842
   65SBC   C00M45602   6.036  11.217  12.783
   65SBC   C00J45603   6.057  11.239  12.654
   65SBC   C00I45604   6.174  11.218  12.590
   65SBC   C00H45605   6.190  11.260  12.460
   65SBC   C00G45606   6.092  11.323  12.388
   65SBC   C00F45607   6.101  11.352  12.257
   65SBC   C01X45608   6.307  11.230  12.394
   65SBC   C01W45609   6.411  11.169  12.467
   65SBC   C01V45610   6.395  11.142  12.602
   65SBC   C02045611   6.495  11.087  12.679
   65SBC   C01Z45612   6.535  11.148  12.409
   65SBC   C02Y45613   6.628  11.088  12.494
   65SBC   C03945614   6.750  11.070  12.438
   65SBC   C02W45615   6.567  11.194  12.278
   65SBC   C01Y45616   6.330  11.261  12.263
   65SBC   C00U45617   6.279  11.165  12.663
   65SBC   C00S45618   6.260  11.132  12.794
   65SBC   C00T45619   6.358  11.071  12.871
   65SBC   C00R45620   6.138  11.153  12.855
   65SBC   C00Q45621   6.119  11.134  12.988
   65SBC   C00V45622   6.216  11.071  13.060
   65SBC   C02445623   6.191  11.038  13.191
   65SBC   C00X45624   6.068  11.053  13.248
   65SBC   C00P45625   5.996  11.157  13.040
   65SBC   C00O45626   5.898  11.231  12.971
   65SBC   C00K45627   5.964  11.315  12.588
   65SBC   N00045628   5.637  11.459  12.599
   65SBC   C00L45629   5.969  11.349  12.452
   65SBC   H00445630   5.492  11.676  11.986
   65SBC   C02Q45631   5.787  11.516  12.047
   65SBC   C00E45632   5.990  11.404  12.194
   65SBC   C03045633   6.138  11.398  11.850
   65SBC   O00345634   6.255  11.362  11.787
   65SBC   C02S45635   6.225  11.318  12.197
   65SBC   C03845636   6.374  11.331  11.857
   65SBC   C03L45637   6.501  11.331  11.807
   65SBC   H00845638   6.514  11.359  11.703
   65SBC   C02V45639   6.458  11.244  12.205
   65SBC   C03K45640   6.618  11.303  11.884
   65SBC   C0BK45641   6.751  11.309  11.835
   65SBC   H00T45642   6.763  11.344  11.734
   65SBC   C03H45643   6.697  11.184  12.225
   65SBC   C0BL45644   6.875  11.277  11.898
   65SBC   C0GU45645   7.002  11.290  11.837
   65SBC   H01O45646   7.005  11.338  11.740
   65SBC   C0GT45647   7.117  11.257  11.900
   65SBC   H01P45648   7.207  11.267  11.840
   65SBC   C0GS45649   7.107  11.220  12.034
   65SBC   C0GV45650   7.215  11.191  12.118
   65SBC   C0GW45651   7.358  11.200  12.088
   65SBC   H01Q45652   7.381  11.243  11.991
   65SBC   C0GX45653   7.435  11.167  12.195
   65SBC   H01R45654   7.539  11.189  12.180
   65SBC   O00L45655   7.398  11.119  12.326
   65SBC   C0GQ45656   7.167  11.159  12.248
   65SBC   C03A45657   6.795  11.123  12.317
   65SBC   C05L45658   7.261  11.110  12.348
   65SBC   C04W45659   7.430  10.961  12.909
   65SBC   C05I45660   7.535  10.943  12.995
   65SBC   C05O45661   7.665  10.924  12.948
   65SBC   C05245662   7.516  10.932  13.131
   65SBC   C04V45663   7.303  10.966  12.964
   65SBC   C04U45664   7.280  10.948  13.103
   65SBC   N00945665   7.693  10.951  12.812
   65SBC   C0GP45666   7.765  10.872  13.028
   65SBC   C05W45667   7.744  10.861  13.162
   65SBC   C07D45668   7.938  10.743  13.455
   65SBC   C06J45669   7.697  10.817  13.573
   65SBC   C05P45670   7.621  10.891  13.214
   65SBC   C05R45671   7.465  10.879  13.547
   65SBC   C04Z45672   7.392  10.935  13.187
   65SBC   C04C45673   7.230  10.905  13.519
   65SBC   C04G45674   6.987  10.919  13.488
   65SBC   C04J45675   6.766  10.941  13.324
   65SBC   C04T45676   7.152  10.946  13.161
   65SBC   N00345677   7.188  10.968  12.885
   65SBC   C04P45678   7.089  11.008  12.662
   65SBC   C03D45679   6.857  11.025  12.516
   65SBC   C02145680   6.612  11.062  12.629
   65SBC   C03F45681   6.819  10.982  12.918
   65SBC   C02245682   6.480  11.051  12.815
   65SBC   C02A45683   6.676  10.967  13.104
   65SBC   C02345684   6.340  11.051  13.008
   65SBC   C02545685   6.300  11.009  13.275
   65SBC   C02D45686   6.277  10.993  13.413
   65SBC   C02E45687   6.149  11.011  13.468
   65SBC   C02N45688   6.128  11.019  13.610
   65SBC   C04N45689   6.656  10.957  13.246
   65SBC   C02P45690   6.382  10.974  13.498
   65SBC   C04I45691   6.749  10.938  13.463
   65SBC   C04445692   6.712  10.938  13.738
   65SBC   C04345693   6.365  10.980  13.639
   65SBC   C05N45694   6.237  11.005  13.694
   65SBC   C09U45695   6.209  11.043  14.118
   65SBC   C09V45696   6.212  11.064  14.257
   65SBC   C09X45697   6.097  11.096  14.323
   65SBC   C09Y45698   6.080  11.130  14.454
   65SBC   C0A145699   6.196  11.126  14.529
   65SBC   C0A245700   6.317  11.091  14.469
   65SBC   C0A445701   6.429  11.074  14.549
   65SBC   C07145702   6.548  11.040  14.489
   65SBC   C0A545703   6.658  11.034  14.567
   65SBC   C0A945704   6.651  11.075  14.699
   65SBC   C0A845705   6.532  11.116  14.754
   65SBC   C0AP45706   6.531  11.166  14.881
   65SBC   C0BY45707   6.412  11.208  14.930
   65SBC   C0BX45708   6.290  11.211  14.866
   65SBC   C0C245709   6.179  11.274  14.928
   65SBC   C0C345710   6.057  11.267  14.854
   65SBC   C0CT45711   6.065  11.221  14.720
   65SBC   C0C145712   6.184  11.339  15.047
   65SBC   C0C045713   6.315  11.367  15.097
   65SBC   C0A745714   6.294  11.164  14.735
   65SBC   C0BZ45715   6.416  11.285  15.039
   65SBC   C0BO45716   6.537  11.312  15.106
   65SBC   C0BN45717   6.655  11.254  15.067
   65SBC   C0BM45718   6.765  11.298  15.134
   65SBC   C0B945719   6.881  11.250  15.081
   65SBC   C0B845720   6.883  11.172  14.967
   65SBC   C0AD45721   6.767  11.138  14.897
   65SBC   C0AF45722   7.006  11.131  14.919
   65SBC   C0AG45723   7.126  11.161  14.980
   65SBC   C0B745724   7.121  11.230  15.098
   65SBC   C0AE45725   6.997  11.067  14.795
   65SBC   C0AB45726   6.886  11.050  14.718
   65SBC   C0AA45727   6.892  11.003  14.588
   65SBC   C0AJ45728   7.122  11.025  14.745
   65SBC   C0AK45729   7.125  10.980  14.617
   65SBC   C06W45730   7.256  10.986  14.584
   65SBC   C0AI45731   7.247  11.061  14.799
   65SBC   C0BP45732   6.519  11.403  15.207
   65SBC   C0BQ45733   6.639  11.444  15.283
   65SBC   C0BW45734   6.651  11.180  14.950
   65SBC   C0AC45735   6.766  11.077  14.776
   65SBC   C0A645736   6.412  11.110  14.679
   65SBC   C0A345737   6.183  11.167  14.662
   65SBC   C09Z45738   5.958  11.173  14.509
   65SBC   C09W45739   6.326  11.060  14.335
   65SBC   C07245740   6.443  11.020  14.273
   65SBC   C09H45741   5.983  11.083  14.251
   65SBC   C09G45742   5.859  11.110  14.305
   65SBC   C09P45743   5.766  11.116  14.207
   65SBC   C02O45744   5.851  11.105  13.834
   65SBC   C02M45745   6.002  11.057  13.658
   65SBC   C02F45746   6.045  11.032  13.381
   65SBC   C00W45747   5.977  11.103  13.162
   65SBC   C01R45748   5.779  11.277  13.029
   65SBC   C01N45749   5.719  11.181  13.372
   65SBC   C01L45750   5.575  11.313  13.516
   65SBC   C01H45751   5.310  11.541  13.431
   65SBC   C01K45752   5.536  11.419  13.159
   65SBC   C01E45753   5.376  11.578  13.004
   65SBC   C01G45754   5.219  11.627  13.353
   65SBC   C01D45755   5.296  11.657  12.930
   65SBC   C01A45756   5.126  11.815  12.768
   65SBC   H00145757   5.053  11.874  12.714
   65SBC   C01F45758   5.064  11.790  13.187
   65SBC   C03P45759   4.865  11.950  13.292
   65SBC   C03T45760   4.896  11.873  13.512
   65SBC   C08I45761   4.873  11.871  13.788
   65SBC   C08J45762   4.871  11.861  13.926
   65SBC   C08L45763   4.969  11.787  14.135
   65SBC   C09345764   5.079  11.714  14.346
   65SBC   C08Z45765   5.240  11.540  14.190
   65SBC   C09T45766   5.395  11.503  14.629
   65SBC   C09S45767   5.418  11.336  14.320
   65SBC   C09Q45768   5.639  11.170  14.241
   65SBC   C09F45769   5.844  11.157  14.436
   65SBC   C09E45770   5.587  11.348  14.611
   65SBC   C0A045771   5.948  11.220  14.640
   65SBC   C0CU45772   5.938  11.324  14.908
   65SBC   C0CR45773   5.945  11.380  15.036
   65SBC   C0CZ45774   5.826  11.444  15.091
   65SBC   C0DA45775   5.529  11.449  14.686
   65SBC   C0D945776   5.489  11.677  14.933
   65SBC   H00V45777   5.471  11.751  14.856
   65SBC   C0CY45778   5.712  11.458  15.006
   65SBC   C0DF45779   5.484  11.706  15.081
   65SBC   C0DE45780   5.508  11.819  15.162
   65SBC   C0GI45781   5.450  11.946  15.155
   65SBC   H01K45782   5.372  11.970  15.084
   65SBC   C0GJ45783   5.491  12.041  15.241
   65SBC   H01J45784   5.437  12.134  15.240
   65SBC   O00I45785   5.583  12.016  15.340
   65SBC   C0GH45786   5.648  11.891  15.355
   65SBC   C0GG45787   5.753  11.875  15.450
   65SBC   O00G45788   5.773  11.981  15.534
   65SBC   C0G845789   5.870  11.988  15.625
   65SBC   C0G945790   5.858  12.088  15.725
   65SBC   H01G45791   5.765  12.142  15.726
   65SBC   C0GA45792   5.956  12.106  15.823
   65SBC   H01H45793   5.953  12.175  15.906
   65SBC   C0GB45794   6.075  12.031  15.816
   65SBC   C0EP45795   6.093  11.930  15.712
   65SBC   C0E845796   6.225  11.875  15.687
   65SBC   C0CK45797   6.284  11.793  15.585
   65SBC   C0CL45798   6.209  11.686  15.542
   65SBC   C0E945799   6.066  11.684  15.531
   65SBC   C0GE45800   5.958  11.785  15.547
   65SBC   C0E745801   6.328  11.902  15.777
   65SBC   C0CJ45802   6.439  11.828  15.747
   65SBC   C0E645803   6.541  11.829  15.845
   65SBC   H00Y45804   6.627  11.764  15.839
   65SBC   C0EO45805   6.532  11.914  15.955
   65SBC   H01145806   6.613  11.918  16.027
   65SBC   C0G645807   6.403  11.980  15.984
   65SBC   C0G545808   6.377  12.064  16.095
   65SBC   H01F45809   6.455  12.070  16.170
   65SBC   C0GD45810   6.258  12.121  16.115
   65SBC   H01I45811   6.235  12.185  16.199
   65SBC   O00H45812   6.157  12.118  16.027
   65SBC   C0EQ45813   6.298  11.976  15.892
   65SBC   C0GC45814   6.176  12.044  15.913
   65SBC   C0G745815   5.983  11.901  15.622
   65SBC   C0DD45816   5.604  11.792  15.266
   65SBC   C0GF45817   5.839  11.762  15.463
   65SBC   C0CO45818   6.043  11.565  15.475
   65SBC   C0D045819   5.830  11.494  15.223
   65SBC   C0C445820   6.064  11.389  15.107
   65SBC   C0CN45821   6.153  11.483  15.467
   65SBC   C0CP45822   6.380  11.434  15.205
   65SBC   C0CM45823   6.259  11.562  15.510
   65SBC   C0CI45824   6.424  11.778  15.611
   65SBC   C0CD45825   6.888  11.731  15.586
   65SBC   C0BR45826   6.633  11.543  15.381
   65SBC   C0CS45827   6.762  11.388  15.240
   65SBC   C0B645828   7.001  11.280  15.145
   65SBC   C0CG45829   6.996  11.553  15.463
   65SBC   C0CF45830   7.003  11.648  15.564
   65SBC   C0E545831   7.020  11.866  15.733
   65SBC   C0DT45832   7.254  11.908  15.875
   65SBC   C0DL45833   7.344  11.607  15.685
   65SBC   C0DM45834   7.459  11.535  15.656
   65SBC   C0DY45835   7.575  11.644  15.831
   65SBC   C0DU45836   7.369  11.915  15.951
   65SBC   C0F045837   7.497  12.061  16.088
   65SBC   C0F445838   7.740  12.148  16.160
   65SBC   C0FG45839   7.807  11.794  16.075
   65SBC   O00B45840   7.987  12.106  16.144
   65SBC   C0FN45841   7.923  11.755  16.040
   65SBC   C0DZ45842   7.694  11.663  15.908
   65SBC   O00C45843   7.930  11.459  15.718
   65SBC   C0FR45844   7.949  11.377  15.613
   65SBC   O00D45845   8.068  11.346  15.593
   65SBC   C0E045846   7.576  11.558  15.724
   65SBC   C0E345847   7.825  11.340  15.544
   65SBC   C0AW45848   7.817  11.257  15.435
   65SBC   C0AV45849   7.930  11.189  15.387
   65SBC   H00Q45850   8.026  11.197  15.435
   65SBC   C0AU45851   7.920  11.112  15.264
   65SBC   H00R45852   8.004  11.059  15.220
   65SBC   C0AT45853   7.796  11.095  15.198
   65SBC   C0AS45854   7.738  11.025  15.084
   65SBC   C0AR45855   7.794  10.902  15.021
   65SBC   C0BE45856   7.691  11.163  15.255
   65SBC   C0DN45857   7.459  11.452  15.547
   65SBC   C0AX45858   7.693  11.244  15.376
   65SBC   C0BB45859   7.346  11.358  15.354
   65SBC   C0BD45860   7.580  11.155  15.168
   65SBC   C0B245861   7.240  11.257  15.161
   65SBC   C0AH45862   7.250  11.112  14.928
   65SBC   C0BF45863   7.606  11.082  15.057
   65SBC   C0AL45864   7.337  11.019  14.696
   65SBC   C07U45865   7.657  10.929  14.797
   65SBC   C0AQ45866   7.754  10.877  14.883
   65SBC   C0BG45867   7.883  10.795  15.061
   65SBC   C0FY45868   8.126  10.698  14.830
   65SBC   C0BJ45869   8.015  10.807  15.123
   65SBC   H00S45870   8.034  10.871  15.208
   65SBC   C0FZ45871   8.254  10.718  14.886
   65SBC   C07S45872   8.101  10.725  14.690
   65SBC   C0G145873   8.463  10.804  14.609
   65SBC   C07K45874   8.307  10.891  14.282
   65SBC   C07H45875   8.074  10.804  14.418
   65SBC   C06B45876   8.002  10.737  14.079
   65SBC   C06N45877   7.782  10.795  14.075
   65SBC   C06645878   7.822  10.823  14.462
   65SBC   C06245879   7.543  10.959  14.442
   65SBC   C05Y45880   7.529  10.865  14.062
   65SBC   C06145881   7.414  10.995  14.390
   65SBC   C05H45882   7.195  10.902  14.123
   65SBC   C06V45883   7.286  10.970  14.453
   65SBC   C06Y45884   7.013  10.978  14.529
   65SBC   C05C45885   6.926  10.941  14.174
   65SBC   C06Z45886   6.779  11.001  14.509
   65SBC   C07045887   6.553  11.004  14.351
   65SBC   C05B45888   6.813  10.942  14.095
   65SBC   C05745889   6.578  10.964  13.937
   65SBC   C05945890   6.449  11.004  14.132
   66SBC   C05845891   3.599   3.688  12.406
   66SBC   C05A45892   3.730   3.637  12.389
   66SBC   C06Q45893   3.784   3.549  12.481
   66SBC   C06R45894   3.910   3.493  12.458
   66SBC   C06S45895   3.984   3.521  12.340
   66SBC   C06T45896   4.108   3.451  12.321
   66SBC   C06U45897   4.207   3.456  12.210
   66SBC   C06X45898   4.217   3.539  12.094
   66SBC   C06045899   4.322   3.494  12.013
   66SBC   C05Z45900   4.423   3.578  11.956
   66SBC   C06845901   4.554   3.512  11.989
   66SBC   C06745902   4.693   3.545  11.951
   66SBC   C06945903   4.727   3.675  11.902
   66SBC   C06A45904   4.859   3.738  11.894
   66SBC   C07345905   4.984   3.710  11.953
   66SBC   C07P45906   5.067   3.817  11.987
   66SBC   C07O45907   5.023   3.941  12.042
   66SBC   H00D45908   4.925   3.971  12.077
   66SBC   C07N45909   5.111   4.045  12.060
   66SBC   H00E45910   5.083   4.140  12.103
   66SBC   C07M45911   5.248   4.028  12.035
   66SBC   H00F45912   5.312   4.114  12.051
   66SBC   C07L45913   5.295   3.911  11.974
   66SBC   C07Q45914   5.430   3.879  11.939
   66SBC   H00G45915   5.505   3.955  11.955
   66SBC   O00F45916   5.478   3.758  11.889
   66SBC   C07J45917   5.391   3.655  11.886
   66SBC   C07I45918   5.253   3.672  11.919
   66SBC   N00445919   5.167   3.560  11.912
   66SBC   C07R45920   5.225   3.432  11.893
   66SBC   C07T45921   5.357   3.419  11.868
   66SBC   C0FX45922   5.426   3.299  11.888
   66SBC   C0FW45923   5.563   3.281  11.910
   66SBC   C0G045924   5.636   3.396  11.877
   66SBC   C0G245925   5.770   3.395  11.886
   66SBC   H01E45926   5.836   3.477  11.858
   66SBC   C0G345927   5.833   3.280  11.933
   66SBC   H01C45928   5.940   3.275  11.949
   66SBC   C0G445929   5.757   3.172  11.981
   66SBC   H01D45930   5.817   3.089  12.012
   66SBC   O00E45931   5.577   3.512  11.835
   66SBC   C0FV45932   5.618   3.159  11.958
   66SBC   C0FU45933   5.536   3.050  11.983
   66SBC   H01B45934   5.569   2.952  12.015
   66SBC   C0FT45935   5.398   3.066  11.953
   66SBC   C0FS45936   5.281   2.989  11.972
   66SBC   C0BI45937   5.171   3.059  11.912
   66SBC   C0BH45938   5.043   3.019  11.959
   66SBC   C07F45939   4.945   3.108  12.009
   66SBC   C07E45940   4.916   3.239  11.964
   66SBC   C07G45941   5.002   3.331  11.902
   66SBC   C07445942   4.947   3.459  11.921
   66SBC   C06545943   4.808   3.312  12.002
   66SBC   C06445944   4.734   3.252  12.104
   66SBC   C06345945   4.617   3.308  12.161
   66SBC   C07545946   4.585   3.212  12.267
   66SBC   C0AM45947   4.684   3.108  12.283
   66SBC   C0AN45948   4.692   2.997  12.384
   66SBC   C0AO45949   4.611   2.977  12.510
   66SBC   C0B145950   4.638   2.864  12.600
   66SBC   C0B045951   4.737   2.776  12.577
   66SBC   C0AZ45952   4.764   2.664  12.652
   66SBC   C0AY45953   4.858   2.572  12.604
   66SBC   N00745954   4.888   2.462  12.681
   66SBC   C0E245955   4.999   2.373  12.642
   66SBC   C0E145956   5.044   2.284  12.736
   66SBC   C0E445957   5.152   2.197  12.700
   66SBC   C0FF45958   5.223   2.119  12.798
   66SBC   C0FJ45959   5.337   2.026  12.790
   66SBC   C0FK45960   5.377   1.930  12.684
   66SBC   H01645961   5.342   1.934  12.582
   66SBC   C0FL45962   5.457   1.830  12.756
   66SBC   H01745963   5.499   1.734  12.728
   66SBC   C0FM45964   5.452   1.858  12.900
   66SBC   C0FH45965   5.458   1.807  13.042
   66SBC   C0FI45966   5.405   1.917  13.110
   66SBC   C0F345967   5.340   1.903  13.230
   66SBC   C0F245968   5.259   2.004  13.261
   66SBC   C0DW45969   5.202   2.092  13.170
   66SBC   C0FE45970   5.244   2.083  13.044
   66SBC   C0DV45971   5.082   2.157  13.195
   66SBC   C0DX45972   5.014   2.214  13.089
   66SBC   C0DK45973   4.890   2.278  13.123
   66SBC   C0DJ45974   4.843   2.280  13.256
   66SBC   C0DI45975   4.722   2.344  13.285
   66SBC   C0DH45976   4.655   2.418  13.189
   66SBC   C0DG45977   4.712   2.424  13.059
   66SBC   C0BV45978   4.664   2.519  12.968
   66SBC   C0BC45979   4.730   2.536  12.847
   66SBC   C0BA45980   4.554   2.599  13.004
   66SBC   C0B445981   4.525   2.710  12.927
   66SBC   C0B345982   4.596   2.730  12.806
   66SBC   C0B545983   4.414   2.789  12.958
   66SBC   C0BU45984   4.339   2.754  13.074
   66SBC   C0BT45985   4.381   2.659  13.164
   66SBC   C0BS45986   4.309   2.635  13.286
   66SBC   C0CC45987   4.373   2.560  13.383
   66SBC   C0CB45988   4.319   2.551  13.515
   66SBC   C0CH45989   4.421   2.519  13.614
   66SBC   C0DO45990   4.526   2.431  13.579
   66SBC   C0DP45991   4.596   2.353  13.680
   66SBC   C0EA45992   4.550   2.357  13.823
   66SBC   H01245993   4.480   2.434  13.852
   66SBC   O00945994   4.592   2.267  13.919
   66SBC   C0EH45995   4.685   2.175  13.870
   66SBC   C0EG45996   4.726   2.076  13.961
   66SBC   C0EJ45997   4.683   2.037  14.095
   66SBC   H01045998   4.602   2.086  14.147
   66SBC   C0EK45999   4.745   1.910  14.134
   66SBC   H00Z46000   4.720   1.851  14.221
   66SBC   C0EL46001   4.833   1.882  14.027
   66SBC   C0EM46002   4.925   1.779  13.997
   66SBC   C0EW46003   4.963   1.672  14.080
   66SBC   H01346004   4.914   1.668  14.177
   66SBC   C0EX46005   5.069   1.575  14.045
   66SBC   H01446006   5.104   1.501  14.115
   66SBC   C0F146007   5.127   1.580  13.911
   66SBC   C0EU46008   5.085   1.684  13.829
   66SBC   C0ET46009   5.145   1.715  13.704
   66SBC   C0ES46010   5.087   1.840  13.677
   66SBC   C0EE46011   4.991   1.879  13.772
   66SBC   C0ED46012   4.897   1.983  13.800
   66SBC   C0EC46013   4.859   2.090  13.710
   66SBC   C0EB46014   4.922   2.111  13.582
   66SBC   C0EN46015   5.040   2.043  13.540
   66SBC   C0ER46016   5.096   2.078  13.417
   66SBC   C0DS46017   4.864   2.197  13.485
   66SBC   C0DR46018   4.745   2.265  13.514
   66SBC   C0EY46019   5.125   1.935  13.580
   66SBC   C0EZ46020   5.224   1.898  13.482
   66SBC   C0F546021   5.303   1.779  13.435
   66SBC   C0F646022   5.311   1.662  13.517
   66SBC   N00846023   5.385   1.558  13.453
   66SBC   C0F746024   5.435   1.562  13.318
   66SBC   C0FQ46025   5.485   1.438  13.266
   66SBC   H01846026   5.505   1.436  13.159
   66SBC   C0FP46027   5.512   1.321  13.339
   66SBC   H01946028   5.549   1.226  13.304
   66SBC   C0FO46029   5.478   1.337  13.470
   66SBC   H01A46030   5.487   1.253  13.537
   66SBC   C0F846031   5.421   1.681  13.245
   66SBC   C0F946032   5.415   1.445  13.530
   66SBC   C0FA46033   5.368   1.422  13.666
   66SBC   H01546034   5.397   1.335  13.723
   66SBC   C0FB46035   5.281   1.522  13.722
   66SBC   C0FD46036   5.248   1.631  13.642
   66SBC   C0FC46037   5.223   1.498  13.856
   66SBC   O00A46038   5.257   1.394  13.916
   66SBC   C0EV46039   4.985   1.773  13.865
   66SBC   C0EF46040   4.825   1.987  13.927
   66SBC   C0EI46041   4.748   2.178  13.740
   66SBC   C0DQ46042   4.695   2.265  13.645
   66SBC   C0CE46043   4.562   2.417  13.445
   66SBC   H00U46044   4.395   2.532  13.718
   66SBC   C0CA46045   4.179   2.577  13.539
   66SBC   C0C946046   4.108   2.648  13.435
   66SBC   C0C846047   3.965   2.667  13.450
   66SBC   C0C746048   3.874   2.761  13.388
   66SBC   C0C646049   3.736   2.747  13.427
   66SBC   C0C546050   3.617   2.830  13.441
   66SBC   C0CQ46051   3.525   2.793  13.540
   66SBC   C0D146052   3.568   2.703  13.640
   66SBC   C0D846053   3.525   2.745  13.764
   66SBC   C0D746054   3.421   2.839  13.747
   66SBC   C0D646055   3.347   2.906  13.840
   66SBC   C0D546056   3.275   3.025  13.810
   66SBC   C0D446057   3.222   3.092  13.695
   66SBC   C0D346058   3.191   3.229  13.720
   66SBC   C0CX46059   3.199   3.305  13.596
   66SBC   C0CW46060   3.278   3.217  13.504
   66SBC   C0CV46061   3.326   3.224  13.372
   66SBC   C0D246062   3.273   3.317  13.279
   66SBC   C09D46063   3.144   3.381  13.288
   66SBC   C09C46064   3.082   3.441  13.176
   66SBC   C09B46065   2.961   3.515  13.179
   66SBC   C09A46066   2.901   3.528  13.307
   66SBC   C09946067   2.950   3.467  13.410
   66SBC   C09846068   2.899   3.519  13.527
   66SBC   C08Y46069   2.822   3.642  13.498
   66SBC   C08X46070   2.785   3.755  13.577
   66SBC   C08W46071   2.803   3.740  13.723
   66SBC   C08U46072   2.870   3.640  13.802
   66SBC   C08V46073   2.960   3.525  13.767
   66SBC   C0DC46074   2.970   3.457  13.887
   66SBC   H00W46075   3.025   3.366  13.905
   66SBC   C0DB46076   2.907   3.518  13.994
   66SBC   H00X46077   2.893   3.479  14.093
   66SBC   C08T46078   2.861   3.639  13.943
   66SBC   C08S46079   2.795   3.735  14.014
   66SBC   H00N46080   2.788   3.724  14.121
   66SBC   C08R46081   2.742   3.846  13.947
   66SBC   C08Q46082   2.688   3.962  14.008
   66SBC   H00O46083   2.674   3.950  14.114
   66SBC   C08P46084   2.654   4.083  13.948
   66SBC   C08O46085   2.608   4.196  14.023
   66SBC   H00P46086   2.602   4.187  14.131
   66SBC   C08N46087   2.585   4.315  13.952
   66SBC   C08M46088   2.554   4.435  14.023
   66SBC   O00846089   2.560   4.445  14.143
   66SBC   O00746090   2.536   4.552  13.953
   66SBC   C08H46091   2.515   4.551  13.817
   66SBC   C08G46092   2.464   4.663  13.741
   66SBC   C03V46093   2.437   4.791  13.789
   66SBC   H00946094   2.451   4.798  13.896
   66SBC   C03U46095   2.390   4.891  13.705
   66SBC   C03W46096   2.356   5.026  13.757
   66SBC   H00A46097   2.375   5.052  13.861
   66SBC   C03X46098   2.308   5.114  13.670
   66SBC   H00B46099   2.298   5.216  13.705
   66SBC   O00546100   2.295   5.100  13.532
   66SBC   C03O46101   2.333   4.974  13.484
   66SBC   C03N46102   2.313   4.948  13.347
   66SBC   O00046103   2.266   5.049  13.267
   66SBC   C01946104   2.283   5.043  13.131
   66SBC   C01846105   2.344   4.931  13.072
   66SBC   C01746106   2.377   4.819  13.154
   66SBC   C01646107   2.427   4.705  13.093
   66SBC   C01546108   2.450   4.713  12.957
   66SBC   C01446109   2.514   4.605  12.899
   66SBC   C01346110   2.531   4.481  12.964
   66SBC   C01246111   2.596   4.401  12.862
   66SBC   C01146112   2.594   4.484  12.745
   66SBC   C01046113   2.638   4.428  12.629
   66SBC   C00Z46114   2.650   4.490  12.510
   66SBC   C00Y46115   2.727   4.403  12.435
   66SBC   C01O46116   2.759   4.298  12.507
   66SBC   C01P46117   2.859   4.206  12.479
   66SBC   C02L46118   2.888   4.112  12.568
   66SBC   C02K46119   2.826   4.130  12.693
   66SBC   C01M46120   2.740   4.236  12.735
   66SBC   C02J46121   2.849   4.018  12.773
   66SBC   C02I46122   2.784   3.984  12.891
   66SBC   C02H46123   2.693   4.055  12.964
   66SBC   C01Q46124   2.647   4.185  12.961
   66SBC   C02G46125   2.582   4.215  13.087
   66SBC   C08946126   2.580   4.099  13.162
   66SBC   C08846127   2.585   4.135  13.292
   66SBC   C08746128   2.537   4.278  13.293
   66SBC   C08646129   2.510   4.356  13.410
   66SBC   C03S46130   2.476   4.496  13.410
   66SBC   N00646131   2.469   4.532  13.543
   66SBC   C08F46132   2.510   4.429  13.621
   66SBC   C01J46133   2.450   4.599  13.316
   66SBC   C03R46134   2.415   4.723  13.373
   66SBC   C03Q46135   2.412   4.749  13.510
   66SBC   C08E46136   2.545   4.320  13.546
   66SBC   C08D46137   2.599   4.197  13.604
   66SBC   C08K46138   2.621   4.200  13.741
   66SBC   C08C46139   2.639   4.078  13.533
   66SBC   C09146140   2.702   3.972  13.607
   66SBC   C09246141   2.708   3.968  13.746
   66SBC   C08B46142   2.628   4.041  13.397
   66SBC   C09046143   2.696   3.910  13.388
   66SBC   C09446144   2.697   3.827  13.271
   66SBC   C09546145   2.773   3.712  13.256
   66SBC   C09R46146   2.819   3.696  13.122
   66SBC   C09746147   2.793   3.814  13.058
   66SBC   C09646148   2.709   3.883  13.142
   66SBC   C01I46149   2.544   4.336  13.157
   66SBC   C08A46150   2.664   4.007  13.097
   66SBC   C09L46151   2.836   3.860  12.931
   66SBC   C09K46152   2.920   3.809  12.834
   66SBC   C09J46153   2.988   3.687  12.842
   66SBC   C09I46154   3.107   3.665  12.767
   66SBC   C09O46155   3.179   3.718  12.658
   66SBC   C09N46156   3.135   3.827  12.584
   66SBC   C09M46157   3.026   3.917  12.616
   66SBC   C06O46158   3.218   3.860  12.474
   66SBC   C05M46159   3.343   3.801  12.447
   66SBC   C06P46160   3.390   3.697  12.527
   66SBC   C04246161   3.418   3.841  12.339
   66SBC   C04146162   3.377   3.937  12.246
   66SBC   C04046163   3.457   3.978  12.144
   66SBC   C03Z46164   3.411   4.076  12.054
   66SBC   C03Y46165   3.289   4.138  12.073
   66SBC   C02746166   3.257   4.245  11.990
   66SBC   C02646167   3.140   4.321  12.020
   66SBC   C02846168   3.110   4.436  11.947
   66SBC   C02946169   3.187   4.473  11.841
   66SBC   C02B46170   3.168   4.591  11.778
   66SBC   C02C46171   3.255   4.636  11.683
   66SBC   C02X46172   3.242   4.766  11.636
   66SBC   C03E46173   3.340   4.811  11.552
   66SBC   C03G46174   3.447   4.745  11.505
   66SBC   C04Q46175   3.467   4.614  11.553
   66SBC   C04R46176   3.581   4.545  11.527
   66SBC   C04S46177   3.606   4.427  11.590
   66SBC   C04L46178   3.515   4.380  11.689
   66SBC   C04M46179   3.392   4.441  11.706
   66SBC   C04K46180   3.552   4.277  11.778
   66SBC   C04F46181   3.681   4.222  11.760
   66SBC   C04E46182   3.763   4.263  11.656
   66SBC   C04D46183   3.888   4.199  11.641
   66SBC   C05046184   3.983   4.245  11.557
   66SBC   C05146185   4.108   4.194  11.549
   66SBC   C05Q46186   4.200   4.247  11.457
   66SBC   C05V46187   4.334   4.207  11.470
   66SBC   N00546188   4.429   4.271  11.390
   66SBC   C07V46189   4.388   4.351  11.280
   66SBC   C08246190   4.481   4.402  11.196
   66SBC   C08146191   4.621   4.391  11.215
   66SBC   C07C46192   4.660   4.315  11.324
   66SBC   C07B46193   4.797   4.310  11.359
   66SBC   C08046194   4.892   4.382  11.290
   66SBC   C07Z46195   5.024   4.379  11.333
   66SBC   H00L46196   5.097   4.441  11.283
   66SBC   C07946197   5.065   4.298  11.441
   66SBC   C07846198   4.966   4.219  11.504
   66SBC   C07746199   5.002   4.131  11.605
   66SBC   C07X46200   5.143   4.125  11.650
   66SBC   H00I46201   5.175   4.056  11.726
   66SBC   C07Y46202   5.240   4.204  11.594
   66SBC   H00H46203   5.338   4.188  11.635
   66SBC   C07646204   4.905   4.042  11.663
   66SBC   C06C46205   4.945   3.940  11.755
   66SBC   H00C46206   5.049   3.927  11.781
   66SBC   C06F46207   4.774   4.054  11.630
   66SBC   C06E46208   4.672   3.983  11.693
   66SBC   C06G46209   4.538   3.987  11.670
   66SBC   C06H46210   4.504   4.081  11.579
   66SBC   C06I46211   4.604   4.157  11.507
   66SBC   C06L46212   4.450   3.902  11.740
   66SBC   C06M46213   4.491   3.786  11.820
   66SBC   C06K46214   4.312   3.931  11.718
   66SBC   C05S46215   4.275   4.036  11.636
   66SBC   C05U46216   4.215   3.868  11.788
   66SBC   C05X46217   4.255   3.756  11.874
   66SBC   C05G46218   4.141   3.721  11.956
   66SBC   C05F46219   4.014   3.777  11.942
   66SBC   C05E46220   3.938   3.743  12.055
   66SBC   C04846221   3.813   3.800  12.076
   66SBC   C05646222   3.750   3.771  12.192
   66SBC   C04546223   3.628   3.834  12.219
   66SBC   C04746224   3.780   3.902  11.994
   66SBC   C04946225   3.863   3.943  11.891
   66SBC   C04B46226   3.833   4.052  11.818
   66SBC   C04646227   3.657   3.963  12.016
   66SBC   C04H46228   3.623   4.065  11.936
   66SBC   C05D46229   4.003   3.654  12.136
   66SBC   C04A46230   3.975   3.880  11.862
   66SBC   C05T46231   4.080   3.924  11.789
   66SBC   C05546232   4.048   4.032  11.715
   66SBC   C06D46233   4.721   3.877  11.777
   66SBC   C07W46234   4.738   4.145  11.529
   66SBC   C08546235   5.198   4.288  11.490
   66SBC   H00M46236   5.279   4.344  11.446
   66SBC   C08446237   4.855   4.456  11.178
   66SBC   H00J46238   4.925   4.512  11.119
   66SBC   C07A46239   4.833   4.223  11.465
   66SBC   C08346240   4.716   4.453  11.141
   66SBC   H00K46241   4.684   4.505  11.053
   66SBC   O00K46242   4.441   4.489  11.092
   66SBC   C0GO46243   4.311   4.532  11.094
   66SBC   C0GN46244   4.275   4.635  11.004
   66SBC   H01L46245   4.346   4.661  10.927
   66SBC   C0GM46246   4.151   4.702  11.023
   66SBC   C0GL46247   4.116   4.804  10.939
   66SBC   H01M46248   4.191   4.837  10.868
   66SBC   O00J46249   4.003   4.878  10.952
   66SBC   C0GK46250   3.918   4.840  11.060
   66SBC   H01N46251   3.817   4.877  11.057
   66SBC   C05K46252   3.948   4.737  11.141
   66SBC   C05J46253   3.864   4.706  11.254
   66SBC   C04Y46254   3.754   4.784  11.302
   66SBC   C04X46255   3.656   4.736  11.388
   66SBC   O00646256   3.739   4.919  11.263
   66SBC   C05346257   3.642   5.004  11.310
   66SBC   C04O46258   3.537   4.951  11.390
   66SBC   C03C46259   3.432   5.019  11.454
   66SBC   C03B46260   3.386   5.157  11.457
   66SBC   C05446261   3.467   5.265  11.415
   66SBC   C0GR46262   3.428   5.402  11.434
   66SBC   C03M46263   3.324   5.475  11.508
   66SBC   C03I46264   3.221   5.408  11.588
   66SBC   C03J46265   3.130   5.498  11.656
   66SBC   N00246266   3.034   5.450  11.751
   66SBC   C02U46267   2.952   5.534  11.831
   66SBC   C02T46268   2.867   5.487  11.927
   66SBC   C02Z46269   2.806   5.573  12.017
   66SBC   N00146270   2.735   5.529  12.127
   66SBC   C02R46271   2.693   5.617  12.227
   66SBC   C03246272   2.709   5.755  12.211
   66SBC   C03146273   2.757   5.805  12.092
   66SBC   H00746274   2.768   5.912  12.079
   66SBC   C03346275   2.668   5.837  12.325
   66SBC   H00346276   2.673   5.945  12.324
   66SBC   O00446277   2.621   5.787  12.441
   66SBC   C03446278   2.619   5.645  12.453
   66SBC   C03546279   2.606   5.594  12.587
   66SBC   C03646280   2.632   5.458  12.607
   66SBC   H00546281   2.631   5.417  12.707
   66SBC   C03746282   2.642   5.372  12.494
   66SBC   H00646283   2.673   5.273  12.523
   66SBC   C00D46284   2.643   5.423  12.359
   66SBC   C00C46285   2.648   5.339  12.248
   66SBC   C00B46286   2.602   5.196  12.247
   66SBC   C00A46287   2.552   5.094  12.340
   66SBC   C00946288   2.578   4.973  12.275
   66SBC   C00846289   2.581   4.843  12.335
   66SBC   C00746290   2.544   4.838  12.467
   66SBC   C00646291   2.553   4.717  12.535
   66SBC   C00546292   2.519   4.713  12.668
   66SBC   C00446293   2.458   4.825  12.730
   66SBC   C00346294   2.442   4.944  12.658
   66SBC   C00246295   2.387   5.056  12.722
   66SBC   C01C46296   2.348   5.053  12.854
   66SBC   C01B46297   2.284   5.164  12.920
   66SBC   H00046298   2.263   5.261  12.878
   66SBC   C00146299   2.365   5.173  12.650
   66SBC   C00046300   2.416   5.180  12.517
   66SBC   C01U46301   2.369   5.299  12.460
   66SBC   H00246302   2.372   5.331  12.357
   66SBC   C01T46303   2.314   5.372  12.567
   66SBC   O00246304   2.266   5.489  12.570
   66SBC   O00146305   2.315   5.295  12.679
   66SBC   C01S46306   2.495   4.956  12.532
   66SBC   C00N46307   2.643   4.743  12.258
   66SBC   C00M46308   2.702   4.768  12.130
   66SBC   C00J46309   2.696   4.890  12.071
   66SBC   C00I46310   2.781   4.942  11.973
   66SBC   C00H46311   2.796   5.083  11.956
   66SBC   C00G46312   2.732   5.175  12.029
   66SBC   C00F46313   2.755   5.309  12.031
   66SBC   C01X46314   2.886   5.129  11.864
   66SBC   C01W46315   2.972   5.035  11.802
   66SBC   C01V46316   2.966   4.898  11.832
   66SBC   C02046317   3.057   4.806  11.785
   66SBC   C01Z46318   3.074   5.090  11.724
   66SBC   C02Y46319   3.148   4.991  11.665
   66SBC   C03946320   3.251   5.039  11.588
   66SBC   C02W46321   3.098   5.227  11.699
   66SBC   C01Y46322   2.915   5.264  11.854
   66SBC   C00U46323   2.870   4.852  11.918
   66SBC   C00S46324   2.874   4.718  11.959
   66SBC   C00T46325   2.974   4.632  11.915
   66SBC   C00R46326   2.792   4.681  12.064
   66SBC   C00Q46327   2.818   4.562  12.132
   66SBC   C00V46328   2.917   4.475  12.089
   66SBC   C02446329   2.954   4.367  12.163
   66SBC   C00X46330   2.886   4.338  12.277
   66SBC   C00P46331   2.748   4.537  12.253
   66SBC   C00O46332   2.660   4.626  12.320
   66SBC   C00K46333   2.632   4.991  12.148
   66SBC   N00046334   2.489   5.082  12.462
   66SBC   C00L46335   2.647   5.126  12.130
   66SBC   H00446336   2.570   5.662  12.663
   66SBC   C02Q46337   2.649   5.561  12.344
   66SBC   C00E46338   2.706   5.391  12.133
   66SBC   C03046339   2.825   5.713  12.007
   66SBC   O00346340   2.897   5.759  11.898
   66SBC   C02S46341   2.842   5.353  11.931
   66SBC   C03846342   2.962   5.674  11.816
   66SBC   C03L46343   3.057   5.718  11.728
   66SBC   H00846344   3.070   5.825  11.729
   66SBC   C02V46345   3.019   5.311  11.768
   66SBC   C03K46346   3.144   5.635  11.654
   66SBC   C0BK46347   3.241   5.686  11.567
   66SBC   H00T46348   3.244   5.794  11.565
   66SBC   C03H46349   3.197   5.271  11.613
   66SBC   C0BL46350   3.328   5.611  11.490
   66SBC   C0GU46351   3.413   5.676  11.391
   66SBC   H01O46352   3.396   5.781  11.374
   66SBC   C0GT46353   3.505   5.609  11.321
   66SBC   H01P46354   3.572   5.661  11.254
   66SBC   C0GS46355   3.516   5.474  11.348
   66SBC   C0GV46356   3.609   5.385  11.279
   66SBC   C0GW46357   3.717   5.406  11.190
   66SBC   H01Q46358   3.754   5.501  11.154
   66SBC   C0GX46359   3.789   5.293  11.156
   66SBC   H01R46360   3.883   5.300  11.103
   66SBC   O00L46361   3.759   5.164  11.198
   66SBC   C0GQ46362   3.574   5.254  11.322
   66SBC   C03A46363   3.282   5.170  11.552
   66SBC   C05L46364   3.650   5.141  11.279
   66SBC   C04W46365   3.884   4.582  11.317
   66SBC   C05I46366   4.001   4.513  11.301
   66SBC   C05O46367   4.094   4.551  11.208
   66SBC   C05246368   4.038   4.403  11.382
   66SBC   C04V46369   3.794   4.531  11.410
   66SBC   C04U46370   3.825   4.417  11.488
   66SBC   N00946371   4.068   4.662  11.127
   66SBC   C0GP46372   4.219   4.493  11.196
   66SBC   C05W46373   4.253   4.390  11.279
   66SBC   C07D46374   4.567   4.243  11.407
   66SBC   C06J46375   4.371   4.108  11.560
   66SBC   C05P46376   4.164   4.346  11.375
   66SBC   C05R46377   4.139   4.082  11.632
   66SBC   C04Z46378   3.951   4.357  11.480
   66SBC   C04C46379   3.923   4.095  11.726
   66SBC   C04G46380   3.714   4.116  11.844
   66SBC   C04J46381   3.465   4.234  11.877
   66SBC   C04T46382   3.729   4.363  11.575
   66SBC   N00346383   3.673   4.604  11.433
   66SBC   C04P46384   3.543   4.812  11.427
   66SBC   C03D46385   3.334   4.949  11.525
   66SBC   C02146386   3.149   4.853  11.691
   66SBC   C03F46387   3.369   4.560  11.643
   66SBC   C02246388   3.063   4.675  11.816
   66SBC   C02A46389   3.303   4.402  11.814
   66SBC   C02346390   2.996   4.511  11.981
   66SBC   C02546391   3.065   4.289  12.130
   66SBC   C02D46392   3.093   4.177  12.206
   66SBC   C02E46393   3.026   4.149  12.326
   66SBC   C02N46394   3.062   4.044  12.415
   66SBC   C04N46395   3.340   4.292  11.892
   66SBC   C02P46396   3.209   4.103  12.178
   66SBC   C04I46397   3.497   4.123  11.956
   66SBC   C04446398   3.579   3.921  12.127
   66SBC   C04346399   3.252   4.001  12.269
   66SBC   C05N46400   3.175   3.963  12.382
   66SBC   C09U46401   3.308   3.655  12.634
   66SBC   C09V46402   3.360   3.554  12.719
   66SBC   C09X46403   3.291   3.504  12.821
   66SBC   C09Y46404   3.342   3.422  12.925
   66SBC   C0A146405   3.477   3.386  12.920
   66SBC   C0A246406   3.549   3.426  12.807
   66SBC   C0A446407   3.680   3.382  12.794
   66SBC   C07146408   3.755   3.420  12.683
   66SBC   C0A546409   3.881   3.368  12.666
   66SBC   C0A946410   3.932   3.279  12.759
   66SBC   C0A846411   3.862   3.258  12.877
   66SBC   C0AP46412   3.914   3.170  12.973
   66SBC   C0BY46413   3.834   3.134  13.081
   66SBC   C0BX46414   3.709   3.177  13.103
   66SBC   C0C246415   3.633   3.122  13.208
   66SBC   C0C346416   3.508   3.174  13.226
   66SBC   C0CT46417   3.457   3.272  13.133
   66SBC   C0C146418   3.675   3.013  13.287
   66SBC   C0C046419   3.816   2.976  13.270
   66SBC   C0A746420   3.657   3.266  13.007
   66SBC   C0BZ46421   3.888   3.043  13.168
   66SBC   C0BO46422   4.007   2.982  13.146
   66SBC   C0BN46423   4.091   3.020  13.041
   66SBC   C0BM46424   4.197   2.933  13.018
   66SBC   C0B946425   4.278   2.965  12.906
   66SBC   C0B846426   4.234   3.071  12.822
   66SBC   C0AD46427   4.112   3.141  12.845
   66SBC   C0AF46428   4.305   3.100  12.706
   66SBC   C0AG46429   4.426   3.026  12.672
   66SBC   C0B746430   4.463   2.923  12.757
   66SBC   C0AE46431   4.251   3.187  12.619
   66SBC   C0AB46432   4.129   3.251  12.634
   66SBC   C0AA46433   4.080   3.339  12.536
   66SBC   C0AJ46434   4.320   3.208  12.507
   66SBC   C0AK46435   4.272   3.299  12.414
   66SBC   C06W46436   4.365   3.305  12.319
   66SBC   C0AI46437   4.441   3.154  12.465
   66SBC   C0BP46438   4.032   2.876  13.238
   66SBC   C0BQ46439   4.151   2.793  13.219
   66SBC   C0BW46440   4.039   3.112  12.956
   66SBC   C0AC46441   4.058   3.224  12.748
   66SBC   C0A646442   3.730   3.301  12.892
   66SBC   C0A346443   3.528   3.303  13.020
   66SBC   C09Z46444   3.276   3.396  13.046
   66SBC   C09W46445   3.491   3.505  12.706
   66SBC   C07246446   3.569   3.547  12.601
   66SBC   C09H46447   3.166   3.552  12.834
   66SBC   C09G46448   3.089   3.507  12.941
   66SBC   C09P46449   2.986   3.598  12.955
   66SBC   C02O46450   2.939   3.907  12.733
   66SBC   C02M46451   2.993   4.025  12.534
   66SBC   C02F46452   2.922   4.230  12.357
   66SBC   C00W46453   2.784   4.425  12.314
   66SBC   C01R46454   2.618   4.615  12.455
   66SBC   C01N46455   2.713   4.314  12.627
   66SBC   C01L46456   2.670   4.274  12.858
   66SBC   C01H46457   2.507   4.466  13.103
   66SBC   C01K46458   2.546   4.606  12.761
   66SBC   C01E46459   2.425   4.823  12.870
   66SBC   C01G46460   2.464   4.589  13.171
   66SBC   C01D46461   2.373   4.935  12.931
   66SBC   C01A46462   2.248   5.157  13.052
   66SBC   H00146463   2.203   5.242  13.100
   66SBC   C01F46464   2.365   4.828  13.290
   66SBC   C03P46465   2.378   4.873  13.565
   66SBC   C03T46466   2.447   4.652  13.600
   66SBC   C08I46467   2.538   4.431  13.751
   66SBC   C08J46468   2.586   4.317  13.816
   66SBC   C08L46469   2.667   4.087  13.808
   66SBC   C09346470   2.752   3.846  13.807
   66SBC   C08Z46471   2.736   3.871  13.524
   66SBC   C09T46472   2.994   3.481  13.628
   66SBC   C09S46473   2.828   3.631  13.355
   66SBC   C09Q46474   2.918   3.606  13.077
   66SBC   C09F46475   3.147   3.437  13.056
   66SBC   C09E46476   3.076   3.413  13.413
   66SBC   C0A046477   3.331   3.326  13.151
   66SBC   C0CU46478   3.433   3.136  13.335
   66SBC   C0CR46479   3.471   3.025  13.417
   66SBC   C0CZ46480   3.397   2.995  13.535
   66SBC   C0DA46481   3.097   3.401  13.556
   66SBC   C0D946482   3.244   3.256  13.852
   66SBC   H00V46483   3.264   3.356  13.887
   66SBC   C0CY46484   3.297   3.094  13.574
   66SBC   C0DF46485   3.292   3.125  13.905
   66SBC   C0DE46486   3.352   3.056  14.019
   66SBC   C0GI46487   3.369   3.095  14.155
   66SBC   H01K46488   3.327   3.186  14.195
   66SBC   C0GJ46489   3.436   3.008  14.234
   66SBC   H01J46490   3.447   3.035  14.338
   66SBC   O00I46491   3.493   2.885  14.194
   66SBC   C0GH46492   3.477   2.846  14.068
   66SBC   C0GG46493   3.559   2.740  14.027
   66SBC   O00G46494   3.624   2.674  14.130
   66SBC   C0G846495   3.719   2.579  14.110
   66SBC   C0G946496   3.747   2.497  14.219
   66SBC   H01G46497   3.680   2.491  14.303
   66SBC   C0GA46498   3.850   2.410  14.206
   66SBC   H01H46499   3.852   2.339  14.288
   66SBC   C0GB46500   3.933   2.400  14.086
   66SBC   C0EP46501   3.895   2.482  13.974
   66SBC   C0E846502   3.991   2.485  13.860
   66SBC   C0CK46503   4.008   2.566  13.746
   66SBC   C0CL46504   3.891   2.595  13.674
   66SBC   C0E946505   3.761   2.616  13.735
   66SBC   C0GE46506   3.717   2.637  13.875
   66SBC   C0E746507   4.098   2.397  13.857
   66SBC   C0CJ46508   4.171   2.410  13.743
   66SBC   C0E646509   4.255   2.301  13.719
   66SBC   H00Y46510   4.304   2.291  13.623
   66SBC   C0EO46511   4.283   2.210  13.824
   66SBC   H01146512   4.357   2.132  13.805
   66SBC   C0G646513   4.216   2.213  13.944
   66SBC   C0G546514   4.247   2.126  14.060
   66SBC   H01F46515   4.331   2.058  14.064
   66SBC   C0GD46516   4.166   2.131  14.161
   66SBC   H01I46517   4.196   2.069  14.244
   66SBC   O00H46518   4.058   2.211  14.180
   66SBC   C0EQ46519   4.113   2.306  13.961
   66SBC   C0GC46520   4.037   2.305  14.078
   66SBC   C0G746521   3.784   2.573  13.981
   66SBC   C0DD46522   3.401   2.928  13.975
   66SBC   C0GF46523   3.591   2.702  13.888
   66SBC   C0CO46524   3.682   2.636  13.623
   66SBC   C0D046525   3.444   2.886  13.608
   66SBC   C0C446526   3.593   2.957  13.387
   66SBC   C0CN46527   3.743   2.629  13.498
   66SBC   C0CP46528   3.915   2.877  13.320
   66SBC   C0CM46529   3.881   2.586  13.528
   66SBC   C0CI46530   4.126   2.526  13.670
   66SBC   C0CD46531   4.486   2.491  13.349
   66SBC   C0BR46532   4.185   2.700  13.315
   66SBC   C0CS46533   4.229   2.828  13.103
   66SBC   C0B646534   4.385   2.893  12.870
   66SBC   C0CG46535   4.492   2.582  13.129
   66SBC   C0CF46536   4.544   2.495  13.224
   66SBC   C0E546537   4.674   2.340  13.413
   66SBC   C0DT46538   4.911   2.207  13.355
   66SBC   C0DL46539   4.823   2.347  13.025
   66SBC   C0DM46540   4.876   2.348  12.894
   66SBC   C0DY46541   5.058   2.207  12.961
   66SBC   C0DU46542   5.031   2.149  13.320
   66SBC   C0F046543   5.201   1.999  13.389
   66SBC   C0F446544   5.356   1.791  13.307
   66SBC   C0FG46545   5.364   2.014  13.019
   66SBC   O00B46546   5.456   1.690  13.110
   66SBC   C0FN46547   5.419   1.992  12.901
   66SBC   C0DZ46548   5.178   2.136  12.929
   66SBC   O00C46549   5.188   2.192  12.569
   66SBC   C0FR46550   5.162   2.293  12.484
   66SBC   O00D46551   5.222   2.284  12.377
   66SBC   C0E046552   4.988   2.275  12.864
   66SBC   C0E346553   5.069   2.392  12.525
   66SBC   C0AW46554   5.039   2.506  12.448
   66SBC   C0AV46555   5.110   2.544  12.331
   66SBC   H00Q46556   5.203   2.504  12.293
   66SBC   C0AU46557   5.078   2.657  12.256
   66SBC   H00R46558   5.131   2.697  12.171
   66SBC   C0AT46559   4.974   2.740  12.306
   66SBC   C0AS46560   4.915   2.872  12.273
   66SBC   C0AR46561   4.961   2.950  12.165
   66SBC   C0BE46562   4.911   2.705  12.423
   66SBC   C0DN46563   4.824   2.441  12.806
   66SBC   C0AX46564   4.934   2.589  12.495
   66SBC   C0BB46565   4.692   2.643  12.769
   66SBC   C0BD46566   4.817   2.799  12.460
   66SBC   C0B246567   4.569   2.842  12.722
   66SBC   C0AH46568   4.496   3.049  12.550
   66SBC   C0BF46569   4.800   2.902  12.367
   66SBC   C0AL46570   4.467   3.214  12.343
   66SBC   C07U46571   4.765   3.129  12.168
   66SBC   C0AQ46572   4.881   3.059  12.121
   66SBC   C0BG46573   5.072   2.927  12.064
   66SBC   C0FY46574   5.210   3.188  11.895
   66SBC   C0BJ46575   5.220   2.911  12.084
   66SBC   H00S46576   5.266   2.883  12.178
   66SBC   C0FZ46577   5.348   3.186  11.907
   66SBC   C07S46578   5.142   3.312  11.893
   66SBC   C0G146579   5.445   3.530  11.863
   66SBC   C07K46580   5.206   3.799  11.968
   66SBC   C07H46581   5.027   3.579  11.935
   66SBC   C06B46582   4.851   3.854  11.810
   66SBC   C06N46583   4.637   3.777  11.836
   66SBC   C06646584   4.810   3.447  11.954
   66SBC   C06246585   4.529   3.396  12.079
   66SBC   C05Y46586   4.389   3.706  11.884
   66SBC   C06146587   4.385   3.387  12.078
   66SBC   C05H46588   4.126   3.641  12.066
   66SBC   C06V46589   4.326   3.384  12.212
   66SBC   C06Y46590   4.149   3.365  12.422
   66SBC   C05C46591   3.928   3.616  12.256
   66SBC   C06Z46592   3.960   3.403  12.555
   66SBC   C07046593   3.702   3.506  12.585
   66SBC   C05B46594   3.805   3.675  12.275
   66SBC   C05746595   3.549   3.789  12.324
   66SBC   C05946596   3.519   3.642  12.512
   67SBC   C05846597   6.160   1.646  10.460
   67SBC   C05A46598   6.265   1.584  10.388
   67SBC   C06Q46599   6.252   1.456  10.337
   67SBC   C06R46600   6.353   1.397  10.258
   67SBC   C06S46601   6.477   1.460  10.238
   67SBC   C06T46602   6.576   1.394  10.157
   67SBC   C06U46603   6.712   1.442  10.123
   67SBC   C06X46604   6.791   1.553  10.157
   67SBC   C06046605   6.925   1.532  10.115
   67SBC   C05Z46606   7.023   1.623  10.051
   67SBC   C06846607   7.105   1.527   9.963
   67SBC   C06746608   7.247   1.541   9.922
   67SBC   C06946609   7.321   1.661   9.949
   67SBC   C06A46610   7.466   1.685   9.942
   67SBC   C07346611   7.575   1.592   9.963
   67SBC   C07P46612   7.688   1.637  10.033
   67SBC   C07O46613   7.688   1.732  10.134
   67SBC   H00D46614   7.598   1.787  10.157
   67SBC   C07N46615   7.802   1.763  10.212
   67SBC   H00E46616   7.791   1.830  10.296
   67SBC   C07M46617   7.922   1.701  10.170
   67SBC   H00F46618   8.011   1.723  10.227
   67SBC   C07L46619   7.928   1.613  10.062
   67SBC   C07Q46620   8.055   1.564  10.010
   67SBC   H00G46621   8.148   1.605  10.044
   67SBC   O00F46622   8.057   1.462   9.922
   67SBC   C07J46623   7.941   1.423   9.862
   67SBC   C07I46624   7.815   1.481   9.902
   67SBC   N00446625   7.696   1.429   9.845
   67SBC   C07R46626   7.711   1.332   9.744
   67SBC   C07T46627   7.835   1.268   9.719
   67SBC   C0FX46628   7.842   1.155   9.647
   67SBC   C0FW46629   7.954   1.071   9.632
   67SBC   C0G046630   8.070   1.123   9.687
   67SBC   C0G246631   8.189   1.046   9.673
   67SBC   H01E46632   8.286   1.082   9.704
   67SBC   C0G346633   8.197   0.927   9.603
   67SBC   H01C46634   8.289   0.871   9.595
   67SBC   C0G446635   8.080   0.885   9.545
   67SBC   H01D46636   8.093   0.791   9.493
   67SBC   O00E46637   8.071   1.243   9.759
   67SBC   C0FV46638   7.949   0.952   9.557
   67SBC   C0FU46639   7.823   0.912   9.502
   67SBC   H01B46640   7.816   0.819   9.449
   67SBC   C0FT46641   7.719   1.000   9.502
   67SBC   C0FS46642   7.578   1.001   9.465
   67SBC   C0BI46643   7.536   1.137   9.481
   67SBC   C0BH46644   7.394   1.156   9.467
   67SBC   C07F46645   7.318   1.197   9.577
   67SBC   C07E46646   7.349   1.296   9.671
   67SBC   C07G46647   7.472   1.341   9.708
   67SBC   C07446648   7.455   1.425   9.819
   67SBC   C06546649   7.257   1.331   9.770
   67SBC   C06446650   7.133   1.265   9.764
   67SBC   C06346651   7.026   1.288   9.845
   67SBC   C07546652   6.932   1.174   9.820
   67SBC   C0AM46653   6.980   1.078   9.717
   67SBC   C0AN46654   6.917   0.960   9.654
   67SBC   C0AO46655   6.788   0.886   9.686
   67SBC   C0B146656   6.737   0.778   9.607
   67SBC   C0B046657   6.817   0.717   9.509
   67SBC   C0AZ46658   6.782   0.602   9.439
   67SBC   C0AY46659   6.868   0.557   9.338
   67SBC   N00746660   6.834   0.452   9.255
   67SBC   C0E246661   6.924   0.409   9.154
   67SBC   C0E146662   6.879   0.299   9.081
   67SBC   C0E446663   6.951   0.264   8.959
   67SBC   C0FF46664   6.922   0.153   8.880
   67SBC   C0FJ46665   6.975   0.111   8.751
   67SBC   C0FK46666   7.023   0.192   8.642
   67SBC   H01646667   7.058   0.292   8.659
   67SBC   C0FL46668   6.992   0.119   8.516
   67SBC   H01746669   7.001   0.151   8.413
   67SBC   C0FM46670   6.920  -0.004   8.555
   67SBC   C0FH46671   6.828  -0.112   8.519
   67SBC   C0FI46672   6.790  -0.163   8.647
   67SBC   C0F346673   6.660  -0.220   8.664
   67SBC   C0F246674   6.610  -0.197   8.788
   67SBC   C0DW46675   6.655  -0.108   8.886
   67SBC   C0FE46676   6.777  -0.048   8.867
   67SBC   C0DV46677   6.576  -0.060   8.989
   67SBC   C0DX46678   6.611   0.046   9.067
   67SBC   C0DK46679   6.530   0.088   9.169
   67SBC   C0DJ46680   6.404   0.032   9.186
   67SBC   C0DI46681   6.314   0.080   9.277
   67SBC   C0DH46682   6.348   0.193   9.352
   67SBC   C0DG46683   6.474   0.255   9.332
   67SBC   C0BV46684   6.511   0.368   9.412
   67SBC   C0BC46685   6.628   0.433   9.392
   67SBC   C0BA46686   6.417   0.424   9.497
   67SBC   C0B446687   6.452   0.539   9.573
   67SBC   C0B346688   6.578   0.601   9.556
   67SBC   C0B546689   6.356   0.597   9.658
   67SBC   C0BU46690   6.229   0.539   9.670
   67SBC   C0BT46691   6.192   0.429   9.594
   67SBC   C0BS46692   6.063   0.375   9.604
   67SBC   C0CC46693   6.034   0.256   9.533
   67SBC   C0CB46694   5.909   0.195   9.538
   67SBC   C0CH46695   5.901   0.062   9.504
   67SBC   C0DO46696   5.980   0.009   9.405
   67SBC   C0DP46697   5.940  -0.094   9.320
   67SBC   C0EA46698   5.803  -0.142   9.329
   67SBC   H01246699   5.730  -0.112   9.403
   67SBC   O00946700   5.758  -0.234   9.241
   67SBC   C0EH46701   5.837  -0.264   9.134
   67SBC   C0EG46702   5.776  -0.330   9.033
   67SBC   C0EJ46703   5.644  -0.369   9.013
   67SBC   H01046704   5.559  -0.348   9.076
   67SBC   C0EK46705   5.644  -0.440   8.889
   67SBC   H00Z46706   5.557  -0.489   8.848
   67SBC   C0EL46707   5.778  -0.440   8.841
   67SBC   C0EM46708   5.835  -0.486   8.718
   67SBC   C0EW46709   5.763  -0.553   8.615
   67SBC   H01346710   5.659  -0.580   8.623
   67SBC   C0EX46711   5.834  -0.583   8.492
   67SBC   H01446712   5.788  -0.646   8.417
   67SBC   C0F146713   5.975  -0.534   8.475
   67SBC   C0EU46714   6.038  -0.479   8.584
   67SBC   C0ET46715   6.173  -0.429   8.592
   67SBC   C0ES46716   6.176  -0.378   8.724
   67SBC   C0EE46717   6.054  -0.385   8.793
   67SBC   C0ED46718   5.995  -0.353   8.918
   67SBC   C0EC46719   6.058  -0.270   9.016
   67SBC   C0EB46720   6.194  -0.233   9.017
   67SBC   C0EN46721   6.286  -0.263   8.912
   67SBC   C0ER46722   6.412  -0.210   8.923
   67SBC   C0DS46723   6.241  -0.135   9.111
   67SBC   C0DR46724   6.156  -0.087   9.209
   67SBC   C0EY46725   6.292  -0.339   8.794
   67SBC   C0EZ46726   6.412  -0.319   8.716
   67SBC   C0F546727   6.461  -0.323   8.578
   67SBC   C0F646728   6.384  -0.363   8.466
   67SBC   N00846729   6.442  -0.344   8.334
   67SBC   C0F746730   6.565  -0.269   8.313
   67SBC   C0FQ46731   6.595  -0.241   8.181
   67SBC   H01846732   6.697  -0.207   8.175
   67SBC   C0FP46733   6.514  -0.262   8.069
   67SBC   H01946734   6.544  -0.231   7.970
   67SBC   C0FO46735   6.398  -0.332   8.092
   67SBC   H01A46736   6.339  -0.359   8.006
   67SBC   C0F846737   6.641  -0.241   8.427
   67SBC   C0F946738   6.363  -0.381   8.220
   67SBC   C0FA46739   6.245  -0.458   8.230
   67SBC   H01546740   6.191  -0.490   8.141
   67SBC   C0FB46741   6.192  -0.484   8.361
   67SBC   C0FD46742   6.256  -0.427   8.470
   67SBC   C0FC46743   6.058  -0.548   8.358
   67SBC   O00A46744   6.009  -0.589   8.252
   67SBC   C0EV46745   5.971  -0.453   8.700
   67SBC   C0EF46746   5.859  -0.377   8.938
   67SBC   C0EI46747   5.975  -0.223   9.123
   67SBC   C0DQ46748   6.024  -0.142   9.223
   67SBC   C0CE46749   6.105   0.072   9.385
   67SBC   H00U46750   5.807   0.020   9.538
   67SBC   C0CA46751   5.794   0.280   9.574
   67SBC   C0C946752   5.822   0.379   9.677
   67SBC   C0C846753   5.727   0.403   9.779
   67SBC   C0C746754   5.716   0.482   9.894
   67SBC   C0C646755   5.599   0.458   9.968
   67SBC   C0C546756   5.504   0.539  10.051
   67SBC   C0CQ46757   5.372   0.500  10.049
   67SBC   C0D146758   5.334   0.402   9.957
   67SBC   C0D846759   5.203   0.418   9.924
   67SBC   C0D746760   5.149   0.510  10.020
   67SBC   C0D646761   5.017   0.564  10.031
   67SBC   C0D546762   4.973   0.667  10.119
   67SBC   C0D446763   5.039   0.741  10.217
   67SBC   C0D346764   4.976   0.861  10.228
   67SBC   C0CX46765   5.065   0.964  10.283
   67SBC   C0CW46766   5.200   0.904  10.270
   67SBC   C0CV46767   5.340   0.932  10.301
   67SBC   C0D246768   5.366   1.035  10.398
   67SBC   C09D46769   5.274   1.101  10.482
   67SBC   C09C46770   5.320   1.195  10.578
   67SBC   C09B46771   5.237   1.281  10.654
   67SBC   C09A46772   5.099   1.240  10.655
   67SBC   C09946773   5.051   1.127  10.600
   67SBC   C09846774   4.911   1.137  10.585
   67SBC   C08Y46775   4.873   1.267  10.634
   67SBC   C08X46776   4.747   1.336  10.617
   67SBC   C08W46777   4.640   1.282  10.541
   67SBC   C08U46778   4.645   1.163  10.453
   67SBC   C08V46779   4.754   1.081  10.407
   67SBC   C0DC46780   4.682   0.960  10.366
   67SBC   H00W46781   4.735   0.870  10.339
   67SBC   C0DB46782   4.543   0.986  10.357
   67SBC   H00X46783   4.470   0.913  10.324
   67SBC   C08T46784   4.525   1.104  10.419
   67SBC   C08S46785   4.401   1.160  10.444
   67SBC   H00N46786   4.312   1.101  10.429
   67SBC   C08R46787   4.387   1.273  10.520
   67SBC   C08Q46788   4.262   1.332  10.558
   67SBC   H00O46789   4.172   1.286  10.520
   67SBC   C08P46790   4.243   1.456  10.615
   67SBC   C08O46791   4.115   1.524  10.636
   67SBC   H00P46792   4.021   1.482  10.603
   67SBC   C08N46793   4.116   1.657  10.692
   67SBC   C08M46794   3.990   1.731  10.712
   67SBC   O00846795   3.883   1.682  10.683
   67SBC   O00746796   3.994   1.863  10.742
   67SBC   C08H46797   4.113   1.923  10.771
   67SBC   C08G46798   4.116   2.062  10.795
   67SBC   C03V46799   4.015   2.153  10.785
   67SBC   H00946800   3.918   2.118  10.753
   67SBC   C03U46801   4.037   2.294  10.779
   67SBC   C03W46802   3.942   2.398  10.737
   67SBC   H00A46803   3.846   2.362  10.703
   67SBC   C03X46804   3.982   2.528  10.731
   67SBC   H00B46805   3.904   2.593  10.693
   67SBC   O00546806   4.096   2.575  10.786
   67SBC   C03O46807   4.191   2.481  10.820
   67SBC   C03N46808   4.315   2.523  10.849
   67SBC   O00046809   4.330   2.657  10.845
   67SBC   C01946810   4.455   2.708  10.839
   67SBC   C01846811   4.569   2.628  10.861
   67SBC   C01746812   4.552   2.490  10.878
   67SBC   C01646813   4.663   2.408  10.882
   67SBC   C01546814   4.787   2.475  10.889
   67SBC   C01446815   4.904   2.398  10.891
   67SBC   C01346816   4.901   2.255  10.882
   67SBC   C01246817   5.047   2.220  10.877
   67SBC   C01146818   5.108   2.345  10.891
   67SBC   C01046819   5.243   2.352  10.912
   67SBC   C00Z46820   5.323   2.465  10.913
   67SBC   C00Y46821   5.451   2.409  10.916
   67SBC   C01O46822   5.450   2.275  10.922
   67SBC   C01P46823   5.551   2.192  10.875
   67SBC   C02L46824   5.524   2.058  10.852
   67SBC   C02K46825   5.389   2.019  10.854
   67SBC   C01M46826   5.277   2.111  10.878
   67SBC   C02J46827   5.366   1.881  10.835
   67SBC   C02I46828   5.248   1.811  10.843
   67SBC   C02H46829   5.116   1.852  10.863
   67SBC   C01Q46830   5.057   1.981  10.875
   67SBC   C02G46831   4.911   1.965  10.871
   67SBC   C08946832   4.884   1.829  10.881
   67SBC   C08846833   4.757   1.800  10.837
   67SBC   C08746834   4.695   1.938  10.833
   67SBC   C08646835   4.556   1.956  10.822
   67SBC   C03S46836   4.488   2.075  10.839
   67SBC   N00646837   4.353   2.043  10.826
   67SBC   C08F46838   4.340   1.911  10.804
   67SBC   C01J46839   4.517   2.211  10.852
   67SBC   C03R46840   4.407   2.300  10.852
   67SBC   C03Q46841   4.276   2.253  10.827
   67SBC   C08E46842   4.461   1.850  10.795
   67SBC   C08D46843   4.476   1.717  10.745
   67SBC   C08K46844   4.357   1.651  10.712
   67SBC   C08C46845   4.591   1.644  10.731
   67SBC   C09146846   4.599   1.524  10.663
   67SBC   C09246847   4.483   1.459  10.621
   67SBC   C08B46848   4.721   1.679  10.775
   67SBC   C09046849   4.809   1.562  10.738
   67SBC   C09446850   4.943   1.540  10.786
   67SBC   C09546851   5.028   1.435  10.750
   67SBC   C09R46852   5.162   1.465  10.772
   67SBC   C09746853   5.168   1.595  10.810
   67SBC   C09646854   5.033   1.638  10.827
   67SBC   C01I46855   4.791   2.043  10.853
   67SBC   C08A46856   5.009   1.767  10.863
   67SBC   C09L46857   5.273   1.685  10.808
   67SBC   C09K46858   5.417   1.667  10.791
   67SBC   C09J46859   5.479   1.550  10.753
   67SBC   C09I46860   5.607   1.544  10.692
   67SBC   C09O46861   5.724   1.628  10.670
   67SBC   C09N46862   5.721   1.767  10.708
   67SBC   C09M46863   5.613   1.843  10.767
   67SBC   C06O46864   5.846   1.835  10.680
   67SBC   C05M46865   5.950   1.772  10.605
   67SBC   C06P46866   5.941   1.640  10.567
   67SBC   C04246867   6.066   1.843  10.570
   67SBC   C04146868   6.076   1.983  10.594
   67SBC   C04046869   6.187   2.058  10.552
   67SBC   C03Z46870   6.200   2.194  10.579
   67SBC   C03Y46871   6.099   2.259  10.644
   67SBC   C02746872   6.107   2.396  10.659
   67SBC   C02646873   6.004   2.462  10.723
   67SBC   C02846874   6.010   2.601  10.731
   67SBC   C02946875   6.124   2.669  10.697
   67SBC   C02B46876   6.124   2.809  10.711
   67SBC   C02C46877   6.230   2.880  10.654
   67SBC   C02X46878   6.228   3.019  10.650
   67SBC   C03E46879   6.339   3.082  10.613
   67SBC   C03G46880   6.454   3.025  10.555
   67SBC   C04Q46881   6.450   2.884  10.552
   67SBC   C04R46882   6.549   2.818  10.483
   67SBC   C04S46883   6.549   2.678  10.469
   67SBC   C04L46884   6.440   2.607  10.529
   67SBC   C04M46885   6.339   2.675  10.593
   67SBC   C04K46886   6.433   2.469  10.512
   67SBC   C04F46887   6.540   2.399  10.456
   67SBC   C04E46888   6.653   2.469  10.405
   67SBC   C04D46889   6.752   2.401  10.329
   67SBC   C05046890   6.856   2.474  10.272
   67SBC   C05146891   6.949   2.404  10.201
   67SBC   C05Q46892   7.051   2.479  10.144
   67SBC   C05V46893   7.148   2.409  10.076
   67SBC   N00546894   7.249   2.484  10.011
   67SBC   C07V46895   7.247   2.622  10.009
   67SBC   C08246896   7.340   2.692   9.941
   67SBC   C08146897   7.457   2.635   9.894
   67SBC   C07C46898   7.461   2.501   9.897
   67SBC   C07B46899   7.582   2.439   9.852
   67SBC   C08046900   7.690   2.510   9.798
   67SBC   C07Z46901   7.785   2.438   9.727
   67SBC   H00L46902   7.842   2.502   9.661
   67SBC   C07946903   7.797   2.297   9.725
   67SBC   C07846904   7.694   2.230   9.791
   67SBC   C07746905   7.694   2.091   9.791
   67SBC   C07X46906   7.800   2.026   9.723
   67SBC   H00I46907   7.811   1.918   9.722
   67SBC   C07Y46908   7.904   2.089   9.658
   67SBC   H00H46909   7.981   2.029   9.612
   67SBC   C07646910   7.600   2.024   9.860
   67SBC   C06C46911   7.610   1.886   9.871
   67SBC   H00C46912   7.696   1.824   9.848
   67SBC   C06F46913   7.484   2.089   9.898
   67SBC   C06E46914   7.373   2.023   9.953
   67SBC   C06G46915   7.255   2.072   9.999
   67SBC   C06H46916   7.258   2.212  10.005
   67SBC   C06I46917   7.359   2.288   9.948
   67SBC   C06L46918   7.150   1.985  10.039
   67SBC   C06M46919   7.147   1.842  10.026
   67SBC   C06K46920   7.045   2.054  10.105
   67SBC   C05S46921   7.044   2.199  10.115
   67SBC   C05U46922   6.935   1.984  10.162
   67SBC   C05X46923   6.929   1.838  10.145
   67SBC   C05G46924   6.810   1.786  10.213
   67SBC   C05F46925   6.713   1.868  10.272
   67SBC   C05E46926   6.599   1.800  10.306
   67SBC   C04846927   6.490   1.865  10.364
   67SBC   C05646928   6.382   1.789  10.397
   67SBC   C04546929   6.281   1.855  10.463
   67SBC   C04746930   6.508   1.999  10.388
   67SBC   C04946931   6.621   2.067  10.349
   67SBC   C04B46932   6.636   2.202  10.371
   67SBC   C04646933   6.410   2.061  10.461
   67SBC   C04H46934   6.420   2.194  10.484
   67SBC   C05D46935   6.610   1.667  10.281
   67SBC   C04A46936   6.725   2.005  10.284
   67SBC   C05T46937   6.839   2.061  10.233
   67SBC   C05546938   6.845   2.194  10.247
   67SBC   C06D46939   7.379   1.883   9.945
   67SBC   C07W46940   7.473   2.224   9.900
   67SBC   C08546941   7.898   2.227   9.657
   67SBC   H00M46942   7.973   2.288   9.608
   67SBC   C08446943   7.679   2.650   9.800
   67SBC   H00J46944   7.755   2.707   9.750
   67SBC   C07A46945   7.587   2.297   9.854
   67SBC   C08346946   7.570   2.716   9.855
   67SBC   H00K46947   7.560   2.823   9.859
   67SBC   O00K46948   7.331   2.827   9.915
   67SBC   C0GO46949   7.229   2.895   9.976
   67SBC   C0GN46950   7.221   3.032   9.959
   67SBC   H01L46951   7.295   3.089   9.905
   67SBC   C0GM46952   7.115   3.103  10.026
   67SBC   C0GL46953   7.096   3.237   9.993
   67SBC   H01M46954   7.166   3.284   9.926
   67SBC   O00J46955   6.984   3.307  10.037
   67SBC   C0GK46956   6.901   3.234  10.121
   67SBC   H01N46957   6.812   3.282  10.160
   67SBC   C05K46958   6.925   3.101  10.160
   67SBC   C05J46959   6.844   3.039  10.261
   67SBC   C04Y46960   6.739   3.100  10.341
   67SBC   C04X46961   6.646   3.029  10.422
   67SBC   O00646962   6.744   3.234  10.356
   67SBC   C05346963   6.632   3.303  10.388
   67SBC   C04O46964   6.530   3.240  10.468
   67SBC   C03C46965   6.411   3.299  10.519
   67SBC   C03B46966   6.341   3.428  10.507
   67SBC   C05446967   6.372   3.510  10.393
   67SBC   C0GR46968   6.294   3.633  10.367
   67SBC   C03M46969   6.157   3.679  10.387
   67SBC   C03I46970   6.062   3.604  10.462
   67SBC   C03J46971   5.932   3.658  10.458
   67SBC   N00246972   5.818   3.594  10.521
   67SBC   C02U46973   5.682   3.635  10.505
   67SBC   C02T46974   5.575   3.567  10.566
   67SBC   C02Z46975   5.448   3.607  10.540
   67SBC   N00146976   5.333   3.542  10.603
   67SBC   C02R46977   5.200   3.578  10.571
   67SBC   C03246978   5.181   3.677  10.476
   67SBC   C03146979   5.292   3.739  10.411
   67SBC   H00746980   5.271   3.808  10.330
   67SBC   C03346981   5.042   3.700  10.452
   67SBC   H00346982   5.017   3.783  10.388
   67SBC   O00446983   4.933   3.640  10.507
   67SBC   C03446984   4.962   3.553  10.608
   67SBC   C03546985   4.859   3.512  10.690
   67SBC   C03646986   4.882   3.417  10.795
   67SBC   H00546987   4.808   3.376  10.862
   67SBC   C03746988   5.009   3.373  10.816
   67SBC   H00646989   5.024   3.300  10.894
   67SBC   C00D46990   5.118   3.417  10.733
   67SBC   C00C46991   5.242   3.355  10.734
   67SBC   C00B46992   5.271   3.223  10.792
   67SBC   C00A46993   5.203   3.097  10.841
   67SBC   C00946994   5.307   3.010  10.875
   67SBC   C00846995   5.303   2.871  10.886
   67SBC   C00746996   5.182   2.810  10.885
   67SBC   C00646997   5.181   2.667  10.895
   67SBC   C00546998   5.051   2.606  10.892
   67SBC   C00446999   4.934   2.679  10.879
   67SBC   C00347000   4.948   2.819  10.847
   67SBC   C00247001   4.834   2.888  10.810
   67SBC   C01C47002   4.711   2.827  10.828
   67SBC   C01B47003   4.590   2.906  10.809
   67SBC   H00047004   4.587   3.012  10.784
   67SBC   C00147005   4.848   3.011  10.751
   67SBC   C00047006   4.978   3.058  10.732
   67SBC   C01U47007   4.967   3.150  10.625
   67SBC   H00247008   5.041   3.208  10.572
   67SBC   C01T47009   4.818   3.177  10.613
   67SBC   O00247010   4.768   3.278  10.565
   67SBC   O00147011   4.753   3.077  10.679
   67SBC   C01S47012   5.071   2.886  10.856
   67SBC   C00N47013   5.424   2.806  10.879
   67SBC   C00M47014   5.543   2.875  10.863
   67SBC   C00J47015   5.551   3.011  10.851
   67SBC   C00I47016   5.658   3.085  10.810
   67SBC   C00H47017   5.640   3.215  10.768
   67SBC   C00G47018   5.517   3.271  10.757
   67SBC   C00F47019   5.488   3.392  10.698
   67SBC   C01X47020   5.749   3.285  10.715
   67SBC   C01W47021   5.873   3.223  10.713
   67SBC   C01V47022   5.884   3.087  10.748
   67SBC   C02047023   6.002   3.012  10.725
   67SBC   C01Z47024   5.980   3.288  10.653
   67SBC   C02Y47025   6.101   3.219  10.655
   67SBC   C03947026   6.208   3.285  10.608
   67SBC   C02W47027   5.970   3.418  10.599
   67SBC   C01Y47028   5.728   3.403  10.650
   67SBC   C00U47029   5.776   3.018  10.796
   67SBC   C00S47030   5.781   2.878  10.817
   67SBC   C00T47031   5.894   2.807  10.781
   67SBC   C00R47032   5.664   2.812  10.846
   67SBC   C00Q47033   5.667   2.678  10.851
   67SBC   C00V47034   5.785   2.609  10.817
   67SBC   C02447035   5.786   2.472  10.812
   67SBC   C00X47036   5.675   2.400  10.854
   67SBC   C00P47037   5.551   2.612  10.871
   67SBC   C00O47038   5.428   2.670  10.880
   67SBC   C00K47039   5.428   3.074  10.861
   67SBC   N00047040   5.086   3.020  10.802
   67SBC   C00L47041   5.408   3.197  10.806
   67SBC   H00447042   4.757   3.543  10.672
   67SBC   C02Q47043   5.095   3.515  10.639
   67SBC   C00E47044   5.355   3.432  10.685
   67SBC   C03047045   5.424   3.706  10.440
   67SBC   O00347046   5.525   3.778  10.381
   67SBC   C02S47047   5.599   3.459  10.642
   67SBC   C03847048   5.658   3.744  10.418
   67SBC   C03L47049   5.767   3.811  10.370
   67SBC   H00847050   5.745   3.902  10.315
   67SBC   C02V47051   5.836   3.467  10.593
   67SBC   C03K47052   5.897   3.772  10.385
   67SBC   C0BK47053   5.999   3.846  10.329
   67SBC   H00T47054   5.983   3.935  10.270
   67SBC   C03H47055   6.079   3.484  10.536
   67SBC   C0BL47056   6.132   3.804  10.326
   67SBC   C0GU47057   6.232   3.884  10.269
   67SBC   H01O47058   6.206   3.982  10.232
   67SBC   C0GT47059   6.361   3.843  10.253
   67SBC   H01P47060   6.420   3.904  10.187
   67SBC   C0GS47061   6.393   3.717  10.301
   67SBC   C0GV47062   6.514   3.644  10.270
   67SBC   C0GW47063   6.627   3.690  10.200
   67SBC   H01Q47064   6.629   3.792  10.163
   67SBC   C0GX47065   6.728   3.602  10.203
   67SBC   H01R47066   6.821   3.637  10.161
   67SBC   O00L47067   6.723   3.470  10.246
   67SBC   C0GQ47068   6.502   3.519  10.336
   67SBC   C03A47069   6.207   3.412  10.547
   67SBC   C05L47070   6.613   3.430  10.328
   67SBC   C04W47071   6.848   2.896  10.270
   67SBC   C05I47072   6.940   2.831  10.196
   67SBC   C05O47073   7.034   2.898  10.116
   67SBC   C05247074   6.944   2.689  10.205
   67SBC   C04V47075   6.750   2.820  10.341
   67SBC   C04U47076   6.754   2.678  10.347
   67SBC   N00947077   7.029   3.036  10.101
   67SBC   C0GP47078   7.133   2.826  10.053
   67SBC   C05W47079   7.141   2.688  10.069
   67SBC   C07D47080   7.358   2.423   9.946
   67SBC   C06J47081   7.147   2.274  10.064
   67SBC   C05P47082   7.046   2.615  10.140
   67SBC   C05R47083   6.944   2.266  10.190
   67SBC   C04Z47084   6.854   2.614  10.277
   67SBC   C04C47085   6.747   2.265  10.323
   67SBC   C04G47086   6.534   2.266  10.444
   67SBC   C04J47087   6.325   2.403  10.556
   67SBC   C04T47088   6.647   2.609  10.403
   67SBC   N00347089   6.656   2.893  10.420
   67SBC   C04P47090   6.547   3.098  10.487
   67SBC   C03D47091   6.327   3.223  10.592
   67SBC   C02147092   6.108   3.086  10.681
   67SBC   C03F47093   6.340   2.814  10.602
   67SBC   C02247094   6.009   2.877  10.746
   67SBC   C02A47095   6.225   2.607  10.635
   67SBC   C02347096   5.897   2.672  10.781
   67SBC   C02547097   5.890   2.392  10.765
   67SBC   C02D47098   5.880   2.253  10.744
   67SBC   C02E47099   5.767   2.181  10.788
   67SBC   C02N47100   5.749   2.044  10.762
   67SBC   C04N47101   6.218   2.468  10.615
   67SBC   C02P47102   5.982   2.185  10.686
   67SBC   C04I47103   6.313   2.266  10.537
   67SBC   C04447104   6.296   1.989  10.494
   67SBC   C04347105   5.971   2.050  10.660
   67SBC   C05N47106   5.854   1.977  10.700
   67SBC   C09U47107   5.829   1.566  10.596
   67SBC   C09V47108   5.817   1.441  10.537
   67SBC   C09X47109   5.711   1.361  10.557
   67SBC   C09Y47110   5.671   1.242  10.487
   67SBC   C0A147111   5.761   1.196  10.402
   67SBC   C0A247112   5.884   1.263  10.389
   67SBC   C0A447113   5.979   1.211  10.305
   67SBC   C07147114   6.104   1.272  10.297
   67SBC   C0A547115   6.206   1.213  10.220
   67SBC   C0A947116   6.179   1.095  10.157
   67SBC   C0A847117   6.053   1.033  10.168
   67SBC   C0AP47118   6.033   0.913  10.099
   67SBC   C0BY47119   5.905   0.861  10.110
   67SBC   C0BX47120   5.803   0.913  10.174
   67SBC   C0C247121   5.674   0.856  10.171
   67SBC   C0C347122   5.570   0.911  10.246
   67SBC   C0CT47123   5.603   1.018  10.332
   67SBC   C0C147124   5.650   0.732  10.102
   67SBC   C0C047125   5.762   0.691  10.018
   67SBC   C0A747126   5.829   1.031  10.249
   67SBC   C0BZ47127   5.883   0.749  10.035
   67SBC   C0BO47128   5.983   0.689   9.955
   67SBC   C0BN47129   6.103   0.746   9.936
   67SBC   C0BM47130   6.184   0.693   9.845
   67SBC   C0B947131   6.310   0.753   9.840
   67SBC   C0B847132   6.339   0.867   9.908
   67SBC   C0AD47133   6.246   0.923   9.995
   67SBC   C0AF47134   6.461   0.926   9.891
   67SBC   C0AG47135   6.561   0.872   9.804
   67SBC   C0B747136   6.522   0.766   9.723
   67SBC   C0AE47137   6.480   1.039   9.962
   67SBC   C0AB47138   6.390   1.099  10.044
   67SBC   C0AA47139   6.416   1.218  10.110
   67SBC   C0AJ47140   6.606   1.098   9.945
   67SBC   C0AK47141   6.629   1.217  10.009
   67SBC   C06W47142   6.760   1.246   9.990
   67SBC   C0AI47143   6.712   1.054   9.863
   67SBC   C0BP47144   5.921   0.600   9.868
   67SBC   C0BQ47145   6.009   0.540   9.770
   67SBC   C0BW47146   6.127   0.857  10.016
   67SBC   C0AC47147   6.268   1.040  10.062
   67SBC   C0A647148   5.954   1.092  10.242
   67SBC   C0A347149   5.728   1.085  10.327
   67SBC   C09Z47150   5.547   1.174  10.499
   67SBC   C09W47151   5.911   1.385  10.458
   67SBC   C07247152   6.032   1.453  10.439
   67SBC   C09H47153   5.610   1.410  10.638
   67SBC   C09G47154   5.491   1.341  10.650
   67SBC   C09P47155   5.412   1.427  10.726
   67SBC   C02O47156   5.478   1.793  10.803
   67SBC   C02M47157   5.627   1.981  10.798
   67SBC   C02F47158   5.669   2.260  10.845
   67SBC   C00W47159   5.565   2.476  10.888
   67SBC   C01R47160   5.308   2.601  10.896
   67SBC   C01N47161   5.323   2.243  10.907
   67SBC   C01L47162   5.130   2.098  10.875
   67SBC   C01H47163   4.776   2.184  10.869
   67SBC   C01K47164   5.029   2.457  10.893
   67SBC   C01E47165   4.810   2.615  10.870
   67SBC   C01G47166   4.650   2.265  10.871
   67SBC   C01D47167   4.693   2.688  10.852
   67SBC   C01A47168   4.464   2.847  10.812
   67SBC   H00147169   4.372   2.901  10.793
   67SBC   C01F47170   4.425   2.434  10.864
   67SBC   C03P47171   4.168   2.340  10.812
   67SBC   C03T47172   4.242   2.122  10.826
   67SBC   C08I47173   4.227   1.845  10.771
   67SBC   C08J47174   4.232   1.720  10.728
   67SBC   C08L47175   4.360   1.522  10.648
   67SBC   C09347176   4.508   1.341  10.552
   67SBC   C08Z47177   4.726   1.465  10.665
   67SBC   C09T47178   4.891   1.080  10.453
   67SBC   C09S47179   4.991   1.318  10.693
   67SBC   C09Q47180   5.274   1.397  10.726
   67SBC   C09F47181   5.455   1.228  10.582
   67SBC   C09E47182   5.128   1.085  10.487
   67SBC   C0A047183   5.503   1.071  10.413
   67SBC   C0CU47184   5.441   0.862  10.237
   67SBC   C0CR47185   5.413   0.741  10.165
   67SBC   C0CZ47186   5.283   0.694  10.163
   67SBC   C0DA47187   5.024   1.036  10.398
   67SBC   C0D947188   4.875   0.876  10.125
   67SBC   H00V47189   4.826   0.966  10.091
   67SBC   C0CY47190   5.180   0.781  10.206
   67SBC   C0DF47191   4.872   0.743  10.064
   67SBC   C0DE47192   4.832   0.668   9.944
   67SBC   C0GI47193   4.719   0.676   9.854
   67SBC   H01K47194   4.639   0.747   9.870
   67SBC   C0GJ47195   4.715   0.595   9.749
   67SBC   H01J47196   4.630   0.594   9.683
   67SBC   O00I47197   4.805   0.493   9.718
   67SBC   C0GH47198   4.914   0.473   9.805
   67SBC   C0GG47199   5.013   0.385   9.751
   67SBC   O00G47200   4.975   0.320   9.636
   67SBC   C0G847201   5.065   0.257   9.553
   67SBC   C0G947202   5.006   0.195   9.442
   67SBC   H01G47203   4.899   0.195   9.430
   67SBC   C0GA47204   5.090   0.126   9.349
   67SBC   H01H47205   5.038   0.083   9.265
   67SBC   C0GB47206   5.228   0.126   9.362
   67SBC   C0EP47207   5.286   0.192   9.477
   67SBC   C0E847208   5.432   0.216   9.475
   67SBC   C0CK47209   5.534   0.271   9.558
   67SBC   C0CL47210   5.517   0.279   9.694
   67SBC   C0E947211   5.385   0.301   9.753
   67SBC   C0GE47212   5.244   0.305   9.705
   67SBC   C0E747213   5.508   0.159   9.372
   67SBC   C0CJ47214   5.648   0.182   9.381
   67SBC   C0E647215   5.732   0.143   9.275
   67SBC   H00Y47216   5.838   0.160   9.275
   67SBC   C0EO47217   5.672   0.077   9.168
   67SBC   H01147218   5.735   0.041   9.088
   67SBC   C0G647219   5.535   0.043   9.161
   67SBC   C0G547220   5.467  -0.034   9.063
   67SBC   H01F47221   5.523  -0.077   8.982
   67SBC   C0GD47222   5.331  -0.051   9.071
   67SBC   H01I47223   5.286  -0.110   8.992
   67SBC   O00H47224   5.254  -0.001   9.163
   67SBC   C0EQ47225   5.449   0.084   9.269
   67SBC   C0GC47226   5.311   0.072   9.265
   67SBC   C0G747227   5.206   0.249   9.585
   67SBC   C0DD47228   4.924   0.557   9.922
   67SBC   C0GF47229   5.145   0.369   9.796
   67SBC   C0CO47230   5.422   0.336   9.884
   67SBC   C0D047231   5.262   0.569  10.092
   67SBC   C0C447232   5.521   0.670  10.104
   67SBC   C0CN47233   5.555   0.338   9.912
   67SBC   C0CP47234   5.786   0.593   9.913
   67SBC   C0CM47235   5.621   0.304   9.793
   67SBC   C0CI47236   5.666   0.245   9.516
   67SBC   C0CD47237   6.134   0.190   9.456
   67SBC   C0BR47238   5.965   0.436   9.683
   67SBC   C0CS47239   6.137   0.594   9.758
   67SBC   C0B647240   6.398   0.703   9.745
   67SBC   C0CG47241   6.289   0.367   9.511
   67SBC   C0CF47242   6.260   0.249   9.448
   67SBC   C0E547243   6.193   0.019   9.297
   67SBC   C0DT47244   6.366  -0.076   9.105
   67SBC   C0DL47245   6.563   0.202   9.241
   67SBC   C0DM47246   6.683   0.273   9.215
   67SBC   C0DY47247   6.732   0.112   9.040
   67SBC   C0DU47248   6.457  -0.115   9.013
   67SBC   C0F047249   6.484  -0.245   8.809
   67SBC   C0F447250   6.590  -0.269   8.560
   67SBC   C0FG47251   6.848  -0.088   8.750
   67SBC   O00B47252   6.748  -0.150   8.415
   67SBC   C0FN47253   6.942  -0.011   8.695
   67SBC   C0DZ47254   6.816   0.072   8.930
   67SBC   O00C47255   7.064   0.335   8.923
   67SBC   C0FR47256   7.115   0.434   8.998
   67SBC   O00D47257   7.204   0.501   8.946
   67SBC   C0E047258   6.763   0.230   9.111
   67SBC   C0E347259   7.041   0.471   9.121
   67SBC   C0AW47260   7.078   0.579   9.205
   67SBC   C0AV47261   7.198   0.658   9.194
   67SBC   H00Q47262   7.269   0.638   9.115
   67SBC   C0AU47263   7.227   0.774   9.271
   67SBC   H00R47264   7.316   0.831   9.248
   67SBC   C0AT47265   7.139   0.812   9.376
   67SBC   C0AS47266   7.122   0.906   9.480
   67SBC   C0AR47267   7.220   1.005   9.508
   67SBC   C0BE47268   7.025   0.730   9.384
   67SBC   C0DN47269   6.712   0.380   9.287
   67SBC   C0AX47270   6.991   0.614   9.308
   67SBC   C0BB47271   6.665   0.547   9.468
   67SBC   C0BD47272   6.943   0.776   9.485
   67SBC   C0B247273   6.615   0.715   9.635
   67SBC   C0AH47274   6.690   0.933   9.781
   67SBC   C0BF47275   6.990   0.895   9.547
   67SBC   C0AL47276   6.812   1.154   9.894
   67SBC   C07U47277   7.105   1.148   9.684
   67SBC   C0AQ47278   7.207   1.116   9.595
   67SBC   C0BG47279   7.349   1.022   9.435
   67SBC   C0FY47280   7.622   1.202   9.565
   67SBC   C0BJ47281   7.458   0.923   9.438
   67SBC   H00S47282   7.452   0.816   9.446
   67SBC   C0FZ47283   7.731   1.119   9.574
   67SBC   C07S47284   7.601   1.299   9.665
   67SBC   C0G147285   7.952   1.316   9.776
   67SBC   C07K47286   7.810   1.582   9.996
   67SBC   C07H47287   7.571   1.483   9.881
   67SBC   C06B47288   7.496   1.820   9.910
   67SBC   C06N47289   7.273   1.797   9.985
   67SBC   C06647290   7.314   1.438   9.846
   67SBC   C06247291   7.028   1.400   9.949
   67SBC   C05Y47292   7.034   1.770  10.068
   67SBC   C06147293   6.934   1.402  10.055
   67SBC   C05H47294   6.744   1.659  10.226
   67SBC   C06V47295   6.803   1.360  10.053
   67SBC   C06Y47296   6.536   1.277  10.099
   67SBC   C05C47297   6.485   1.590  10.288
   67SBC   C06Z47298   6.329   1.271  10.196
   67SBC   C07047299   6.128   1.394  10.359
   67SBC   C05B47300   6.377   1.654  10.360
   67SBC   C05747301   6.166   1.784  10.496
   67SBC   C05947302   6.047   1.580  10.495
   68SBC   C05847303   1.546   0.980  10.242
   68SBC   C05A47304   1.592   0.862  10.180
   68SBC   C06Q47305   1.517   0.743  10.175
   68SBC   C06R47306   1.564   0.619  10.114
   68SBC   C06S47307   1.696   0.615  10.068
   68SBC   C06T47308   1.736   0.492  10.004
   68SBC   C06U47309   1.870   0.461   9.940
   68SBC   C06X47310   1.988   0.541   9.904
   68SBC   C06047311   2.087   0.460   9.836
   68SBC   C05Z47312   2.164   0.490   9.720
   68SBC   C06847313   2.182   0.345   9.664
   68SBC   C06747314   2.284   0.298   9.562
   68SBC   C06947315   2.352   0.395   9.480
   68SBC   C06A47316   2.442   0.368   9.366
   68SBC   C07347317   2.542   0.269   9.362
   68SBC   C07P47318   2.675   0.315   9.321
   68SBC   C07O47319   2.730   0.439   9.344
   68SBC   H00D47320   2.672   0.504   9.407
   68SBC   C07N47321   2.852   0.479   9.294
   68SBC   H00E47322   2.884   0.580   9.315
   68SBC   C07M47323   2.923   0.395   9.206
   68SBC   H00F47324   3.001   0.428   9.138
   68SBC   C07L47325   2.882   0.260   9.190
   68SBC   C07Q47326   2.938   0.165   9.101
   68SBC   H00G47327   3.030   0.183   9.047
   68SBC   O00F47328   2.888   0.038   9.072
   68SBC   C07J47329   2.783   0.001   9.149
   68SBC   C07I47330   2.716   0.091   9.243
   68SBC   N00447331   2.602   0.047   9.317
   68SBC   C07R47332   2.572  -0.093   9.316
   68SBC   C07T47333   2.626  -0.166   9.207
   68SBC   C0FX47334   2.582  -0.289   9.167
   68SBC   C0FW47335   2.608  -0.360   9.049
   68SBC   C0G047336   2.716  -0.306   8.977
   68SBC   C0G247337   2.758  -0.377   8.866
   68SBC   H01E47338   2.848  -0.348   8.814
   68SBC   C0G347339   2.689  -0.493   8.823
   68SBC   H01C47340   2.714  -0.540   8.728
   68SBC   C0G447341   2.575  -0.536   8.893
   68SBC   H01D47342   2.531  -0.630   8.862
   68SBC   O00E47343   2.777  -0.186   9.012
   68SBC   C0FV47344   2.531  -0.473   9.007
   68SBC   C0FU47345   2.428  -0.513   9.100
   68SBC   H01B47346   2.376  -0.605   9.074
   68SBC   C0FT47347   2.403  -0.450   9.218
   68SBC   C0FS47348   2.304  -0.448   9.320
   68SBC   C0BI47349   2.351  -0.368   9.428
   68SBC   C0BH47350   2.244  -0.340   9.512
   68SBC   C07F47351   2.208  -0.204   9.539
   68SBC   C07E47352   2.285  -0.083   9.550
   68SBC   C07G47353   2.401  -0.057   9.480
   68SBC   C07447354   2.414   0.082   9.470
   68SBC   C06547355   2.225   0.037   9.580
   68SBC   C06447356   2.090   0.028   9.620
   68SBC   C06347357   2.014   0.127   9.681
   68SBC   C07547358   1.882   0.065   9.705
   68SBC   C0AM47359   1.867  -0.070   9.651
   68SBC   C0AN47360   1.746  -0.155   9.637
   68SBC   C0AO47361   1.600  -0.132   9.683
   68SBC   C0B147362   1.491  -0.212   9.633
   68SBC   C0B047363   1.518  -0.326   9.560
   68SBC   C0AZ47364   1.424  -0.410   9.503
   68SBC   C0AY47365   1.458  -0.514   9.416
   68SBC   N00747366   1.359  -0.595   9.359
   68SBC   C0E247367   1.403  -0.705   9.282
   68SBC   C0E147368   1.299  -0.782   9.225
   68SBC   C0E447369   1.337  -0.898   9.153
   68SBC   C0FF47370   1.248  -0.986   9.084
   68SBC   C0FJ47371   1.263  -1.119   9.018
   68SBC   C0FK47372   1.375  -1.201   9.035
   68SBC   H01647373   1.470  -1.169   9.076
   68SBC   C0FL47374   1.311  -1.333   9.023
   68SBC   H01747375   1.345  -1.431   9.053
   68SBC   C0FM47376   1.174  -1.317   8.980
   68SBC   C0FH47377   1.038  -1.371   8.989
   68SBC   C0FI47378   0.954  -1.257   8.972
   68SBC   C0F347379   0.832  -1.255   9.041
   68SBC   C0F247380   0.793  -1.129   9.082
   68SBC   C0DW47381   0.882  -1.022   9.101
   68SBC   C0FE47382   1.005  -1.024   9.043
   68SBC   C0DV47383   0.844  -0.915   9.180
   68SBC   C0DX47384   0.939  -0.824   9.222
   68SBC   C0DK47385   0.901  -0.716   9.305
   68SBC   C0DJ47386   0.770  -0.711   9.354
   68SBC   C0DI47387   0.735  -0.605   9.441
   68SBC   C0DH47388   0.830  -0.512   9.483
   68SBC   C0DG47389   0.963  -0.527   9.440
   68SBC   C0BV47390   1.059  -0.440   9.490
   68SBC   C0BC47391   1.189  -0.461   9.461
   68SBC   C0BA47392   1.021  -0.332   9.569
   68SBC   C0B447393   1.122  -0.252   9.630
   68SBC   C0B347394   1.254  -0.276   9.607
   68SBC   C0B547395   1.082  -0.152   9.716
   68SBC   C0BU47396   0.947  -0.129   9.736
   68SBC   C0BT47397   0.848  -0.203   9.678
   68SBC   C0BS47398   0.712  -0.174   9.692
   68SBC   C0CC47399   0.616  -0.266   9.648
   68SBC   C0CB47400   0.485  -0.243   9.662
   68SBC   C0CH47401   0.403  -0.360   9.669
   68SBC   C0DO47402   0.444  -0.488   9.614
   68SBC   C0DP47403   0.364  -0.599   9.609
   68SBC   C0EA47404   0.239  -0.605   9.685
   68SBC   H01247405   0.202  -0.528   9.751
   68SBC   O00947406   0.147  -0.707   9.662
   68SBC   C0EH47407   0.187  -0.818   9.605
   68SBC   C0EG47408   0.113  -0.939   9.618
   68SBC   C0EJ47409  -0.016  -0.973   9.671
   68SBC   H01047410  -0.067  -0.897   9.729
   68SBC   C0EK47411  -0.047  -1.110   9.646
   68SBC   H00Z47412  -0.139  -1.163   9.667
   68SBC   C0EL47413   0.066  -1.160   9.575
   68SBC   C0EM47414   0.098  -1.291   9.528
   68SBC   C0EW47415   0.024  -1.414   9.534
   68SBC   H01347416  -0.075  -1.415   9.578
   68SBC   C0EX47417   0.075  -1.541   9.476
   68SBC   H01447418   0.021  -1.633   9.487
   68SBC   C0F147419   0.204  -1.537   9.409
   68SBC   C0EU47420   0.278  -1.418   9.407
   68SBC   C0ET47421   0.405  -1.399   9.346
   68SBC   C0ES47422   0.421  -1.261   9.362
   68SBC   C0EE47423   0.316  -1.204   9.437
   68SBC   C0ED47424   0.278  -1.071   9.485
   68SBC   C0EC47425   0.356  -0.952   9.464
   68SBC   C0EB47426   0.478  -0.944   9.392
   68SBC   C0EN47427   0.519  -1.047   9.295
   68SBC   C0ER47428   0.631  -1.013   9.216
   68SBC   C0DS47429   0.554  -0.822   9.391
   68SBC   C0DR47430   0.518  -0.712   9.470
   68SBC   C0EY47431   0.498  -1.186   9.272
   68SBC   C0EZ47432   0.600  -1.239   9.184
   68SBC   C0F547433   0.654  -1.372   9.156
   68SBC   C0F647434   0.589  -1.490   9.203
   68SBC   N00847435   0.662  -1.614   9.177
   68SBC   C0F747436   0.799  -1.614   9.125
   68SBC   C0FQ47437   0.868  -1.738   9.125
   68SBC   H01847438   0.975  -1.746   9.108
   68SBC   C0FP47439   0.804  -1.860   9.148
   68SBC   H01947440   0.858  -1.953   9.154
   68SBC   C0FO47441   0.669  -1.859   9.180
   68SBC   H01A47442   0.616  -1.949   9.207
   68SBC   C0F847443   0.855  -1.489   9.081
   68SBC   C0F947444   0.596  -1.737   9.200
   68SBC   C0FA47445   0.463  -1.747   9.236
   68SBC   H01547446   0.414  -1.843   9.233
   68SBC   C0FB47447   0.397  -1.629   9.284
   68SBC   C0FD47448   0.469  -1.506   9.276
   68SBC   C0FC47449   0.265  -1.648   9.349
   68SBC   O00A47450   0.215  -1.763   9.362
   68SBC   C0EV47451   0.222  -1.300   9.458
   68SBC   C0EF47452   0.155  -1.053   9.557
   68SBC   C0EI47453   0.316  -0.834   9.534
   68SBC   C0DQ47454   0.400  -0.716   9.537
   68SBC   C0CE47455   0.570  -0.493   9.567
   68SBC   H00U47456   0.311  -0.337   9.720
   68SBC   C0CA47457   0.445  -0.107   9.657
   68SBC   C0C947458   0.539  -0.008   9.712
   68SBC   C0C847459   0.496   0.128   9.723
   68SBC   C0C747460   0.540   0.239   9.798
   68SBC   C0C647461   0.470   0.362   9.781
   68SBC   C0C547462   0.446   0.483   9.852
   68SBC   C0CQ47463   0.325   0.559   9.817
   68SBC   C0D147464   0.226   0.485   9.746
   68SBC   C0D847465   0.102   0.497   9.797
   68SBC   C0D747466   0.111   0.609   9.881
   68SBC   C0D647467   0.009   0.665   9.963
   68SBC   C0D547468   0.025   0.782  10.043
   68SBC   C0D447469   0.141   0.857  10.079
   68SBC   C0D347470   0.118   0.913  10.207
   68SBC   C0CX47471   0.246   0.945  10.270
   68SBC   C0CW47472   0.347   0.858  10.208
   68SBC   C0CV47473   0.486   0.828  10.222
   68SBC   C0D247474   0.571   0.890  10.320
   68SBC   C09D47475   0.532   0.989  10.416
   68SBC   C09C47476   0.631   1.060  10.496
   68SBC   C09B47477   0.614   1.175  10.571
   68SBC   C09A47478   0.479   1.224  10.576
   68SBC   C09947479   0.378   1.156  10.517
   68SBC   C09847480   0.265   1.240  10.511
   68SBC   C08Y47481   0.308   1.376  10.539
   68SBC   C08X47482   0.251   1.505  10.511
   68SBC   C08W47483   0.137   1.516  10.421
   68SBC   C08U47484   0.076   1.404  10.344
   68SBC   C08V47485   0.103   1.263  10.321
   68SBC   C0DC47486   0.002   1.214  10.238
   68SBC   H00W47487  -0.004   1.112  10.204
   68SBC   C0DB47488  -0.095   1.314  10.210
   68SBC   H00X47489  -0.186   1.311  10.152
   68SBC   C08T47490  -0.038   1.431  10.264
   68SBC   C08S47491  -0.094   1.557  10.258
   68SBC   H00N47492  -0.182   1.575  10.198
   68SBC   C08R47493  -0.040   1.669  10.325
   68SBC   C08Q47494  -0.088   1.800  10.309
   68SBC   H00O47495  -0.167   1.815  10.237
   68SBC   C08P47496  -0.033   1.916  10.357
   68SBC   C08O47497  -0.088   2.050  10.339
   68SBC   H00P47498  -0.175   2.072  10.279
   68SBC   C08N47499  -0.019   2.157  10.391
   68SBC   C08M47500  -0.078   2.290  10.378
   68SBC   O00847501  -0.185   2.316  10.320
   68SBC   O00747502   0.005   2.391  10.417
   68SBC   C08H47503   0.132   2.377  10.468
   68SBC   C08G47504   0.215   2.486  10.497
   68SBC   C03V47505   0.185   2.622  10.483
   68SBC   H00947506   0.081   2.635  10.455
   68SBC   C03U47507   0.268   2.733  10.519
   68SBC   C03W47508   0.234   2.871  10.523
   68SBC   H00A47509   0.134   2.899  10.494
   68SBC   C03X47510   0.325   2.961  10.570
   68SBC   H00B47511   0.284   3.060  10.571
   68SBC   O00547512   0.456   2.932  10.615
   68SBC   C03O47513   0.485   2.796  10.619
   68SBC   C03N47514   0.612   2.760  10.668
   68SBC   O00047515   0.698   2.866  10.692
   68SBC   C01947516   0.828   2.830  10.719
   68SBC   C01847517   0.873   2.694  10.711
   68SBC   C01747518   0.782   2.589  10.690
   68SBC   C01647519   0.823   2.458  10.692
   68SBC   C01547520   0.960   2.444  10.708
   68SBC   C01447521   1.011   2.314  10.736
   68SBC   C01347522   0.926   2.200  10.724
   68SBC   C01247523   1.021   2.088  10.741
   68SBC   C01147524   1.149   2.150  10.760
   68SBC   C01047525   1.257   2.076  10.781
   68SBC   C00Z47526   1.389   2.118  10.764
   68SBC   C00Y47527   1.457   1.999  10.738
   68SBC   C01O47528   1.379   1.886  10.736
   68SBC   C01P47529   1.398   1.780  10.652
   68SBC   C02L47530   1.300   1.692  10.631
   68SBC   C02K47531   1.172   1.735  10.667
   68SBC   C01M47532   1.138   1.865  10.720
   68SBC   C02J47533   1.076   1.635  10.658
   68SBC   C02I47534   0.944   1.634  10.694
   68SBC   C02H47535   0.861   1.743  10.715
   68SBC   C01Q47536   0.889   1.881  10.719
   68SBC   C02G47537   0.769   1.957  10.718
   68SBC   C08947538   0.670   1.860  10.723
   68SBC   C08847539   0.542   1.908  10.686
   68SBC   C08747540   0.569   2.049  10.676
   68SBC   C08647541   0.484   2.149  10.620
   68SBC   C03S47542   0.501   2.293  10.622
   68SBC   N00647543   0.381   2.342  10.570
   68SBC   C08F47544   0.301   2.238  10.532
   68SBC   C01J47545   0.600   2.387  10.649
   68SBC   C03R47546   0.563   2.522  10.634
   68SBC   C03Q47547   0.431   2.560  10.593
   68SBC   C08E47548   0.354   2.117  10.571
   68SBC   C08D47549   0.280   1.991  10.544
   68SBC   C08K47550   0.159   2.008  10.473
   68SBC   C08C47551   0.317   1.862  10.582
   68SBC   C09147552   0.241   1.747  10.534
   68SBC   C09247553   0.122   1.765  10.458
   68SBC   C08B47554   0.428   1.816  10.649
   68SBC   C09047555   0.424   1.667  10.648
   68SBC   C09447556   0.528   1.576  10.694
   68SBC   C09547557   0.531   1.436  10.662
   68SBC   C09R47558   0.665   1.384  10.664
   68SBC   C09747559   0.742   1.498  10.690
   68SBC   C09647560   0.658   1.608  10.711
   68SBC   C01I47561   0.709   2.087  10.702
   68SBC   C08A47562   0.721   1.731  10.723
   68SBC   C09L47563   0.887   1.507  10.685
   68SBC   C09K47564   0.994   1.418  10.648
   68SBC   C09J47565   0.972   1.283  10.613
   68SBC   C09I47566   1.064   1.204  10.538
   68SBC   C09O47567   1.201   1.217  10.486
   68SBC   C09N47568   1.278   1.334  10.496
   68SBC   C09M47569   1.239   1.463  10.551
   68SBC   C06O47570   1.411   1.327  10.440
   68SBC   C05M47571   1.457   1.210  10.377
   68SBC   C06P47572   1.376   1.097  10.364
   68SBC   C04247573   1.585   1.210  10.317
   68SBC   C04147574   1.659   1.324  10.315
   68SBC   C04047575   1.780   1.326  10.243
   68SBC   C03Z47576   1.864   1.441  10.240
   68SBC   C03Y47577   1.832   1.548  10.316
   68SBC   C02747578   1.918   1.657  10.319
   68SBC   C02647579   1.881   1.766  10.396
   68SBC   C02847580   1.961   1.881  10.392
   68SBC   C02947581   2.075   1.885  10.316
   68SBC   C02B47582   2.152   1.997  10.302
   68SBC   C02C47583   2.264   1.996  10.226
   68SBC   C02X47584   2.336   2.111  10.216
   68SBC   C03E47585   2.437   2.117  10.120
   68SBC   C03G47586   2.467   2.014  10.033
   68SBC   C04Q47587   2.401   1.894  10.050
   68SBC   C04R47588   2.430   1.784   9.969
   68SBC   C04S47589   2.364   1.665   9.988
   68SBC   C04L47590   2.261   1.660  10.086
   68SBC   C04M47591   2.231   1.771  10.166
   68SBC   C04K47592   2.180   1.551  10.092
   68SBC   C04F47593   2.211   1.442  10.012
   68SBC   C04E47594   2.314   1.445   9.919
   68SBC   C04D47595   2.341   1.332   9.843
   68SBC   C05047596   2.440   1.336   9.742
   68SBC   C05147597   2.461   1.230   9.653
   68SBC   C05Q47598   2.548   1.245   9.549
   68SBC   C05V47599   2.563   1.137   9.463
   68SBC   N00547600   2.644   1.153   9.348
   68SBC   C07V47601   2.719   1.274   9.331
   68SBC   C08247602   2.798   1.288   9.214
   68SBC   C08147603   2.808   1.191   9.121
   68SBC   C07C47604   2.735   1.076   9.136
   68SBC   C07B47605   2.741   0.969   9.043
   68SBC   C08047606   2.826   0.981   8.930
   68SBC   C07Z47607   2.843   0.874   8.850
   68SBC   H00L47608   2.908   0.885   8.765
   68SBC   C07947609   2.778   0.754   8.865
   68SBC   C07847610   2.691   0.747   8.969
   68SBC   C07747611   2.620   0.627   8.990
   68SBC   C07X47612   2.627   0.522   8.892
   68SBC   H00I47613   2.573   0.428   8.896
   68SBC   C07Y47614   2.712   0.535   8.787
   68SBC   H00H47615   2.717   0.452   8.717
   68SBC   C07647616   2.547   0.608   9.104
   68SBC   C06C47617   2.508   0.483   9.147
   68SBC   H00C47618   2.534   0.393   9.094
   68SBC   C06F47619   2.527   0.713   9.192
   68SBC   C06E47620   2.449   0.702   9.310
   68SBC   C06G47621   2.441   0.790   9.412
   68SBC   C06H47622   2.511   0.911   9.389
   68SBC   C06I47623   2.584   0.932   9.269
   68SBC   C06L47624   2.372   0.765   9.532
   68SBC   C06M47625   2.314   0.635   9.568
   68SBC   C06K47626   2.353   0.873   9.617
   68SBC   C05S47627   2.411   0.998   9.585
   68SBC   C05U47628   2.256   0.866   9.724
   68SBC   C05X47629   2.182   0.741   9.746
   68SBC   C05G47630   2.068   0.759   9.833
   68SBC   C05F47631   2.054   0.881   9.898
   68SBC   C05E47632   1.949   0.879   9.983
   68SBC   C04847633   1.905   0.994  10.046
   68SBC   C05647634   1.786   0.982  10.112
   68SBC   C04547635   1.744   1.096  10.175
   68SBC   C04747636   1.976   1.108  10.030
   68SBC   C04947637   2.089   1.103   9.956
   68SBC   C04B47638   2.164   1.221   9.942
   68SBC   C04647639   1.932   1.220  10.098
   68SBC   C04H47640   2.016   1.329  10.095
   68SBC   C05D47641   1.884   0.755   9.976
   68SBC   C04A47642   2.131   0.994   9.887
   68SBC   C05T47643   2.236   0.984   9.801
   68SBC   C05547644   2.308   1.102   9.779
   68SBC   C06D47645   2.413   0.575   9.349
   68SBC   C07W47646   2.586   0.835   9.169
   68SBC   C08547647   2.791   0.649   8.776
   68SBC   H00M47648   2.856   0.656   8.690
   68SBC   C08447649   2.898   1.102   8.913
   68SBC   H00J47650   2.961   1.109   8.826
   68SBC   C07A47651   2.669   0.850   9.059
   68SBC   C08347652   2.890   1.201   9.007
   68SBC   H00K47653   2.947   1.292   8.990
   68SBC   O00K47654   2.861   1.401   9.200
   68SBC   C0GO47655   2.857   1.503   9.294
   68SBC   C0GN47656   2.940   1.614   9.280
   68SBC   H01L47657   3.013   1.626   9.202
   68SBC   C0GM47658   2.937   1.719   9.383
   68SBC   C0GL47659   3.020   1.824   9.369
   68SBC   H01M47660   3.095   1.832   9.291
   68SBC   O00J47661   3.012   1.929   9.456
   68SBC   C0GK47662   2.911   1.915   9.554
   68SBC   H01N47663   2.911   1.992   9.630
   68SBC   C05K47664   2.819   1.817   9.560
   68SBC   C05J47665   2.717   1.818   9.662
   68SBC   C04Y47666   2.674   1.936   9.736
   68SBC   C04X47667   2.580   1.923   9.843
   68SBC   O00647668   2.717   2.061   9.697
   68SBC   C05347669   2.678   2.168   9.767
   68SBC   C04O47670   2.601   2.165   9.887
   68SBC   C03C47671   2.565   2.270   9.982
   68SBC   C03B47672   2.572   2.412   9.983
   68SBC   C05447673   2.611   2.491   9.875
   68SBC   C0GR47674   2.610   2.629   9.873
   68SBC   C03M47675   2.550   2.739   9.953
   68SBC   C03I47676   2.473   2.722  10.071
   68SBC   C03J47677   2.416   2.837  10.128
   68SBC   N00247678   2.324   2.831  10.237
   68SBC   C02U47679   2.265   2.945  10.296
   68SBC   C02T47680   2.167   2.939  10.393
   68SBC   C02Z47681   2.108   3.058  10.442
   68SBC   N00147682   1.990   3.052  10.526
   68SBC   C02R47683   1.914   3.167  10.554
   68SBC   C03247684   1.961   3.291  10.515
   68SBC   C03147685   2.075   3.294  10.431
   68SBC   H00747686   2.107   3.390  10.395
   68SBC   C03347687   1.893   3.407  10.570
   68SBC   H00347688   1.937   3.501  10.540
   68SBC   O00447689   1.782   3.407  10.645
   68SBC   C03447690   1.742   3.283  10.685
   68SBC   C03547691   1.633   3.273  10.774
   68SBC   C03647692   1.595   3.151  10.833
   68SBC   H00547693   1.520   3.147  10.910
   68SBC   C03747694   1.658   3.031  10.795
   68SBC   H00647695   1.625   2.942  10.846
   68SBC   C00D47696   1.764   3.035  10.700
   68SBC   C00C47697   1.826   2.920  10.651
   68SBC   C00B47698   1.773   2.785  10.681
   68SBC   C00A47699   1.658   2.713  10.750
   68SBC   C00947700   1.696   2.574  10.749
   68SBC   C00847701   1.607   2.462  10.744
   68SBC   C00747702   1.475   2.484  10.760
   68SBC   C00647703   1.391   2.369  10.756
   68SBC   C00547704   1.251   2.395  10.753
   68SBC   C00447705   1.200   2.523  10.739
   68SBC   C00347706   1.287   2.634  10.748
   68SBC   C00247707   1.240   2.759  10.718
   68SBC   C01C47708   1.102   2.777  10.713
   68SBC   C01B47709   1.055   2.909  10.728
   68SBC   H00047710   1.118   2.996  10.731
   68SBC   C00147711   1.322   2.857  10.664
   68SBC   C00047712   1.459   2.829  10.667
   68SBC   C01U47713   1.507   2.924  10.573
   68SBC   H00247714   1.604   2.933  10.526
   68SBC   C01T47715   1.387   3.014  10.541
   68SBC   O00247716   1.393   3.116  10.468
   68SBC   O00147717   1.279   2.963  10.597
   68SBC   C01S47718   1.424   2.614  10.761
   68SBC   C00N47719   1.666   2.341  10.714
   68SBC   C00M47720   1.799   2.328  10.661
   68SBC   C00J47721   1.873   2.438  10.646
   68SBC   C00I47722   1.983   2.452  10.571
   68SBC   C00H47723   2.041   2.575  10.538
   68SBC   C00G47724   1.980   2.693  10.579
   68SBC   C00F47725   2.015   2.816  10.527
   68SBC   C01X47726   2.151   2.586  10.446
   68SBC   C01W47727   2.201   2.468  10.391
   68SBC   C01V47728   2.144   2.343  10.427
   68SBC   C02047729   2.189   2.228  10.367
   68SBC   C01Z47730   2.301   2.473  10.299
   68SBC   C02Y47731   2.353   2.349  10.261
   68SBC   C03947732   2.455   2.351  10.164
   68SBC   C02W47733   2.353   2.590  10.247
   68SBC   C01Y47734   2.190   2.705  10.392
   68SBC   C00U47735   2.034   2.333  10.515
   68SBC   C00S47736   1.961   2.216  10.528
   68SBC   C00T47737   2.000   2.104  10.455
   68SBC   C00R47738   1.842   2.215  10.601
   68SBC   C00Q47739   1.764   2.103  10.597
   68SBC   C00V47740   1.810   1.993  10.531
   68SBC   C02447741   1.735   1.877  10.539
   68SBC   C00X47742   1.617   1.877  10.611
   68SBC   C00P47743   1.644   2.108  10.664
   68SBC   C00O47744   1.588   2.221  10.713
   68SBC   C00K47745   1.821   2.560  10.698
   68SBC   N00047746   1.518   2.721  10.731
   68SBC   C00L47747   1.862   2.681  10.657
   68SBC   H00447748   1.590   3.368  10.800
   68SBC   C02Q47749   1.806   3.157  10.642
   68SBC   C00E47750   1.943   2.929  10.566
   68SBC   C03047751   2.143   3.180  10.393
   68SBC   O00347752   2.237   3.186  10.296
   68SBC   C02S47753   2.121   2.815  10.437
   68SBC   C03847754   2.299   3.071  10.252
   68SBC   C03L47755   2.390   3.084  10.147
   68SBC   H00847756   2.421   3.182  10.115
   68SBC   C02V47757   2.286   2.708  10.291
   68SBC   C03K47758   2.438   2.968  10.080
   68SBC   C0BK47759   2.526   2.979   9.973
   68SBC   H00T47760   2.543   3.079   9.936
   68SBC   C03H47761   2.445   2.599  10.140
   68SBC   C0BL47762   2.579   2.871   9.904
   68SBC   C0GU47763   2.669   2.893   9.793
   68SBC   H01O47764   2.678   2.992   9.750
   68SBC   C0GT47765   2.735   2.791   9.727
   68SBC   H01P47766   2.811   2.800   9.650
   68SBC   C0GS47767   2.690   2.664   9.757
   68SBC   C0GV47768   2.729   2.544   9.689
   68SBC   C0GW47769   2.807   2.538   9.576
   68SBC   H01Q47770   2.825   2.634   9.529
   68SBC   C0GX47771   2.836   2.415   9.532
   68SBC   H01R47772   2.890   2.402   9.439
   68SBC   O00L47773   2.796   2.298   9.603
   68SBC   C0GQ47774   2.683   2.434   9.765
   68SBC   C03A47775   2.495   2.470  10.098
   68SBC   C05L47776   2.719   2.298   9.719
   68SBC   C04W47777   2.644   1.701   9.685
   68SBC   C05I47778   2.661   1.593   9.600
   68SBC   C05O47779   2.748   1.597   9.494
   68SBC   C05247780   2.597   1.470   9.620
   68SBC   C04V47781   2.550   1.691   9.786
   68SBC   C04U47782   2.482   1.568   9.806
   68SBC   N00947783   2.830   1.712   9.477
   68SBC   C0GP47784   2.769   1.497   9.406
   68SBC   C05W47785   2.699   1.377   9.420
   68SBC   C07D47786   2.651   1.056   9.245
   68SBC   C06J47787   2.499   1.015   9.479
   68SBC   C05P47788   2.617   1.366   9.529
   68SBC   C05R47789   2.401   1.107   9.677
   68SBC   C04Z47790   2.506   1.455   9.726
   68SBC   C04C47791   2.273   1.220   9.855
   68SBC   C04G47792   2.126   1.334  10.016
   68SBC   C04J47793   2.058   1.558  10.162
   68SBC   C04T47794   2.387   1.560   9.903
   68SBC   N00347795   2.520   1.798   9.866
   68SBC   C04P47796   2.552   2.033   9.923
   68SBC   C03D47797   2.493   2.240  10.094
   68SBC   C02147798   2.301   2.224  10.289
   68SBC   C03F47799   2.305   1.879  10.152
   68SBC   C02247800   2.112   2.110  10.374
   68SBC   C02A47801   2.113   1.773  10.241
   68SBC   C02347802   1.925   1.989  10.462
   68SBC   C02547803   1.763   1.762  10.471
   68SBC   C02D47804   1.677   1.656  10.465
   68SBC   C02E47805   1.553   1.663  10.521
   68SBC   C02N47806   1.458   1.557  10.509
   68SBC   C04N47807   2.025   1.664  10.238
   68SBC   C02P47808   1.711   1.544  10.389
   68SBC   C04I47809   1.983   1.441  10.171
   68SBC   C04447810   1.819   1.214  10.176
   68SBC   C04347811   1.618   1.438  10.378
   68SBC   C05N47812   1.495   1.440  10.441
   68SBC   C09U47813   1.248   1.105  10.414
   68SBC   C09V47814   1.168   0.996  10.385
   68SBC   C09X47815   1.034   0.998  10.415
   68SBC   C09Y47816   0.940   0.908  10.364
   68SBC   C0A147817   0.981   0.801  10.296
   68SBC   C0A247818   1.115   0.782  10.280
   68SBC   C0A447819   1.161   0.665  10.224
   68SBC   C07147820   1.293   0.645  10.189
   68SBC   C0A547821   1.344   0.528  10.134
   68SBC   C0A947822   1.251   0.427  10.114
   68SBC   C0A847823   1.118   0.448  10.139
   68SBC   C0AP47824   1.025   0.354  10.093
   68SBC   C0BY47825   0.891   0.395  10.089
   68SBC   C0BX47826   0.837   0.511  10.134
   68SBC   C0C247827   0.710   0.554  10.105
   68SBC   C0C347828   0.663   0.673  10.159
   68SBC   C0CT47829   0.750   0.748  10.240
   68SBC   C0C147830   0.627   0.479  10.021
   68SBC   C0C047831   0.670   0.339   9.982
   68SBC   C0A747832   0.931   0.600  10.190
   68SBC   C0BZ47833   0.804   0.308  10.024
   68SBC   C0BO47834   0.842   0.194   9.955
   68SBC   C0BN47835   0.979   0.155   9.959
   68SBC   C0BM47836   1.009   0.049   9.880
   68SBC   C0B947837   1.143   0.026   9.868
   68SBC   C0B847838   1.242   0.104   9.930
   68SBC   C0AD47839   1.203   0.216  10.002
   68SBC   C0AF47840   1.375   0.085   9.900
   68SBC   C0AG47841   1.417  -0.014   9.810
   68SBC   C0B747842   1.320  -0.098   9.757
   68SBC   C0AE47843   1.463   0.182   9.940
   68SBC   C0AB47844   1.427   0.294  10.011
   68SBC   C0AA47845   1.514   0.395  10.036
   68SBC   C0AJ47846   1.597   0.160   9.907
   68SBC   C0AK47847   1.690   0.259   9.947
   68SBC   C06W47848   1.805   0.232   9.882
   68SBC   C0AI47849   1.656   0.060   9.829
   68SBC   C0BP47850   0.740   0.138   9.887
   68SBC   C0BQ47851   0.773   0.020   9.813
   68SBC   C0BW47852   1.069   0.241  10.025
   68SBC   C0AC47853   1.291   0.312  10.046
   68SBC   C0A647854   1.066   0.568  10.189
   68SBC   C0A347855   0.887   0.714  10.246
   68SBC   C09Z47856   0.802   0.929  10.385
   68SBC   C09W47857   1.208   0.877  10.320
   68SBC   C07247858   1.342   0.864  10.289
   68SBC   C09H47859   0.991   1.093  10.496
   68SBC   C09G47860   0.859   1.091  10.544
   68SBC   C09P47861   0.845   1.212  10.606
   68SBC   C02O47862   1.106   1.495  10.614
   68SBC   C02M47863   1.331   1.567  10.570
   68SBC   C02F47864   1.526   1.773  10.596
   68SBC   C00W47865   1.573   1.993  10.672
   68SBC   C01R47866   1.454   2.242  10.747
   68SBC   C01N47867   1.253   1.941  10.750
   68SBC   C01L47868   1.015   1.937  10.723
   68SBC   C01H47869   0.787   2.211  10.705
   68SBC   C01K47870   1.152   2.286  10.745
   68SBC   C01E47871   1.057   2.544  10.716
   68SBC   C01G47872   0.736   2.349  10.681
   68SBC   C01D47873   1.011   2.676  10.712
   68SBC   C01A47874   0.916   2.939  10.741
   68SBC   H00147875   0.882   3.037  10.770
   68SBC   C01F47876   0.649   2.623  10.668
   68SBC   C03P47877   0.395   2.694  10.573
   68SBC   C03T47878   0.338   2.466  10.555
   68SBC   C08I47879   0.178   2.250  10.482
   68SBC   C08J47880   0.105   2.138  10.451
   68SBC   C08L47881   0.082   1.896  10.429
   68SBC   C09347882   0.072   1.646  10.399
   68SBC   C08Z47883   0.300   1.630  10.566
   68SBC   C09T47884   0.201   1.184  10.397
   68SBC   C09S47885   0.430   1.352  10.607
   68SBC   C09Q47886   0.714   1.256  10.625
   68SBC   C09F47887   0.760   1.023  10.471
   68SBC   C09E47888   0.402   1.056  10.422
   68SBC   C0A047889   0.707   0.858  10.315
   68SBC   C0CU47890   0.537   0.723  10.133
   68SBC   C0CR47891   0.459   0.651  10.035
   68SBC   C0CZ47892   0.322   0.697  10.012
   68SBC   C0DA47893   0.284   1.065  10.343
   68SBC   C0D947894  -0.006   0.848  10.261
   68SBC   H00V47895  -0.046   0.853  10.361
   68SBC   C0CY47896   0.273   0.799  10.094
   68SBC   C0DF47897  -0.062   0.768  10.156
   68SBC   C0DE47898  -0.157   0.658  10.124
   68SBC   C0GI47899  -0.281   0.611  10.182
   68SBC   H01K47900  -0.331   0.667  10.260
   68SBC   C0GJ47901  -0.339   0.501  10.127
   68SBC   H01J47902  -0.419   0.455  10.182
   68SBC   O00I47903  -0.300   0.445  10.011
   68SBC   C0GH47904  -0.181   0.485   9.952
   68SBC   C0GG47905  -0.134   0.402   9.847
   68SBC   O00G47906  -0.225   0.312   9.804
   68SBC   C0G847907  -0.195   0.207   9.723
   68SBC   C0G947908  -0.306   0.125   9.679
   68SBC   H01G47909  -0.404   0.141   9.721
   68SBC   C0GA47910  -0.279   0.021   9.590
   68SBC   H01H47911  -0.362  -0.040   9.559
   68SBC   C0GB47912  -0.150  -0.015   9.548
   68SBC   C0EP47913  -0.041   0.059   9.607
   68SBC   C0E847914   0.087  -0.005   9.606
   68SBC   C0CK47915   0.213   0.016   9.667
   68SBC   C0CL47916   0.256   0.149   9.664
   68SBC   C0E947917   0.170   0.259   9.687
   68SBC   C0GE47918   0.031   0.278   9.718
   68SBC   C0E747919   0.110  -0.114   9.524
   68SBC   C0CJ47920   0.235  -0.161   9.515
   68SBC   C0E647921   0.267  -0.256   9.417
   68SBC   H00Y47922   0.373  -0.278   9.406
   68SBC   C0EO47923   0.167  -0.301   9.327
   68SBC   H01147924   0.186  -0.386   9.262
   68SBC   C0G647925   0.030  -0.259   9.342
   68SBC   C0G547926  -0.082  -0.307   9.261
   68SBC   H01F47927  -0.073  -0.375   9.178
   68SBC   C0GD47928  -0.206  -0.269   9.298
   68SBC   H01I47929  -0.284  -0.317   9.240
   68SBC   O00H47930  -0.234  -0.177   9.395
   68SBC   C0EQ47931   0.000  -0.166   9.442
   68SBC   C0GC47932  -0.129  -0.122   9.463
   68SBC   C0G747933  -0.064   0.176   9.686
   68SBC   C0DD47934  -0.108   0.593  10.010
   68SBC   C0GF47935  -0.007   0.403   9.788
   68SBC   C0CO47936   0.263   0.366   9.693
   68SBC   C0D047937   0.250   0.634   9.907
   68SBC   C0C447938   0.510   0.532   9.969
   68SBC   C0CN47939   0.397   0.329   9.663
   68SBC   C0CP47940   0.630   0.228   9.903
   68SBC   C0CM47941   0.395   0.188   9.647
   68SBC   C0CI47942   0.304  -0.090   9.615
   68SBC   C0CD47943   0.660  -0.387   9.592
   68SBC   C0BR47944   0.671  -0.053   9.748
   68SBC   C0CS47945   0.911  -0.021   9.814
   68SBC   C0B647946   1.183  -0.079   9.787
   68SBC   C0CG47947   0.885  -0.313   9.600
   68SBC   C0CF47948   0.793  -0.404   9.557
   68SBC   C0E547949   0.607  -0.604   9.491
   68SBC   C0DT47950   0.679  -0.812   9.328
   68SBC   C0DL47951   0.997  -0.627   9.354
   68SBC   C0DM47952   1.132  -0.656   9.332
   68SBC   C0DY47953   1.070  -0.841   9.184
   68SBC   C0DU47954   0.719  -0.905   9.237
   68SBC   C0F047955   0.670  -1.124   9.145
   68SBC   C0F447956   0.775  -1.371   9.088
   68SBC   C0FG47957   1.034  -1.143   8.967
   68SBC   O00B47958   0.987  -1.484   9.042
   68SBC   C0FN47959   1.163  -1.184   8.947
   68SBC   C0DZ47960   1.110  -0.948   9.095
   68SBC   O00C47961   1.470  -0.927   9.141
   68SBC   C0FR47962   1.571  -0.853   9.183
   68SBC   O00D47963   1.687  -0.898   9.165
   68SBC   C0E047964   1.164  -0.756   9.243
   68SBC   C0E347965   1.535  -0.729   9.260
   68SBC   C0AW47966   1.635  -0.656   9.323
   68SBC   C0AV47967   1.775  -0.689   9.325
   68SBC   H00Q47968   1.823  -0.772   9.275
   68SBC   C0AU47969   1.867  -0.605   9.386
   68SBC   H00R47970   1.972  -0.630   9.381
   68SBC   C0AT47971   1.816  -0.490   9.446
   68SBC   C0AS47972   1.877  -0.372   9.512
   68SBC   C0AR47973   2.016  -0.333   9.503
   68SBC   C0BE47974   1.684  -0.468   9.451
   68SBC   C0DN47975   1.225  -0.571   9.387
   68SBC   C0AX47976   1.588  -0.551   9.399
   68SBC   C0BB47977   1.288  -0.383   9.524
   68SBC   C0BD47978   1.655  -0.360   9.530
   68SBC   C0B247979   1.354  -0.195   9.669
   68SBC   C0AH47980   1.558  -0.032   9.771
   68SBC   C0BF47981   1.767  -0.283   9.564
   68SBC   C0AL47982   1.791   0.102   9.806
   68SBC   C07U47983   2.006  -0.091   9.600
   68SBC   C0AQ47984   2.068  -0.207   9.548
   68SBC   C0BG47985   2.132  -0.411   9.469
   68SBC   C0FY47986   2.448  -0.280   9.376
   68SBC   C0BJ47987   2.161  -0.467   9.334
   68SBC   H00S47988   2.089  -0.495   9.259
   68SBC   C0FZ47989   2.488  -0.343   9.256
   68SBC   C07S47990   2.476  -0.146   9.399
   68SBC   C0G147991   2.724  -0.117   9.119
   68SBC   C07K47992   2.759   0.223   9.254
   68SBC   C07H47993   2.517   0.133   9.388
   68SBC   C06B47994   2.446   0.469   9.269
   68SBC   C06N47995   2.359   0.541   9.475
   68SBC   C06647996   2.312   0.152   9.547
   68SBC   C06247997   2.081   0.255   9.729
   68SBC   C05Y47998   2.223   0.617   9.678
   68SBC   C06147999   2.038   0.329   9.838
   68SBC   C05H48000   1.969   0.676   9.893
   68SBC   C06V48001   1.905   0.332   9.893
   68SBC   C06Y48002   1.646   0.383   9.999
   68SBC   C05C48003   1.764   0.739  10.055
   68SBC   C06Z48004   1.477   0.510  10.098
   68SBC   C07048005   1.386   0.749  10.218
   68SBC   C05B48006   1.715   0.859  10.110
   68SBC   C05748007   1.627   1.094  10.243
   68SBC   C05948008   1.422   0.979  10.301
   69SBC   C05848009  11.161   6.827  12.528
   69SBC   C05A48010  11.075   6.879  12.424
   69SBC   C06Q48011  10.976   6.799  12.373
   69SBC   C06R48012  10.894   6.850  12.267
   69SBC   C06S48013  10.908   6.981  12.215
   69SBC   C06T48014  10.816   7.029  12.122
   69SBC   C06U48015  10.811   7.162  12.049
   69SBC   C06X48016  10.879   7.286  12.064
   69SBC   C06048017  10.842   7.383  11.962
   69SBC   C05Z48018  10.813   7.527  11.977
   69SBC   C06848019  10.700   7.543  11.879
   69SBC   C06748020  10.641   7.667  11.818
   69SBC   C06948021  10.712   7.792  11.826
   69SBC   C06A48022  10.706   7.910  11.740
   69SBC   C07348023  10.660   7.931  11.607
   69SBC   C07P48024  10.742   8.004  11.521
   69SBC   C07O48025  10.881   8.018  11.530
   69SBC   H00D48026  10.940   7.971  11.607
   69SBC   C07N48027  10.954   8.095  11.437
   69SBC   H00E48028  11.062   8.102  11.437
   69SBC   C07M48029  10.893   8.172  11.343
   69SBC   H00F48030  10.943   8.243  11.279
   69SBC   C07L48031  10.750   8.148  11.317
   69SBC   C07Q48032  10.673   8.222  11.216
   69SBC   H00G48033  10.720   8.304  11.163
   69SBC   O00F48034  10.543   8.183  11.190
   69SBC   C07J48035  10.482   8.090  11.272
   69SBC   C07I48036  10.545   8.034  11.384
   69SBC   N00448037  10.471   7.944  11.467
   69SBC   C07R48038  10.335   7.914  11.433
   69SBC   C07T48039  10.282   7.970  11.313
   69SBC   C0FX48040  10.162   7.932  11.264
   69SBC   C0FW48041  10.101   7.960  11.142
   69SBC   C0G048042  10.173   8.060  11.076
   69SBC   C0G248043  10.124   8.107  10.952
   69SBC   H01E48044  10.178   8.184  10.899
   69SBC   C0G348045  10.014   8.050  10.897
   69SBC   H01C48046   9.982   8.073  10.797
   69SBC   C0G448047   9.937   7.959  10.972
   69SBC   H01D48048   9.840   7.927  10.937
   69SBC   O00E48049  10.299   8.098  11.115
   69SBC   C0FV48050   9.982   7.908  11.096
   69SBC   C0FU48051   9.921   7.805  11.181
   69SBC   H01B48052   9.837   7.750  11.140
   69SBC   C0FT48053   9.969   7.782  11.311
   69SBC   C0FS48054   9.940   7.693  11.422
   69SBC   C0BI48055  10.017   7.738  11.540
   69SBC   C0BH48056  10.050   7.618  11.611
   69SBC   C07F48057  10.181   7.575  11.643
   69SBC   C07E48058  10.298   7.644  11.670
   69SBC   C07G48059  10.333   7.760  11.613
   69SBC   C07448060  10.464   7.784  11.654
   69SBC   C06548061  10.409   7.586  11.725
   69SBC   C06448062  10.401   7.450  11.743
   69SBC   C06348063  10.507   7.369  11.793
   69SBC   C07548064  10.443   7.233  11.783
   69SBC   C0AM48065  10.313   7.234  11.716
   69SBC   C0AN48066  10.218   7.123  11.687
   69SBC   C0AO48067  10.211   6.987  11.744
   69SBC   C0B148068  10.101   6.894  11.708
   69SBC   C0B048069  10.017   6.924  11.603
   69SBC   C0AZ48070   9.930   6.836  11.549
   69SBC   C0AY48071   9.867   6.863  11.431
   69SBC   N00748072   9.805   6.766  11.354
   69SBC   C0E248073   9.768   6.789  11.222
   69SBC   C0E148074   9.710   6.685  11.154
   69SBC   C0E448075   9.693   6.696  11.015
   69SBC   C0FF48076   9.639   6.593  10.939
   69SBC   C0FJ48077   9.639   6.566  10.799
   69SBC   C0FK48078   9.756   6.599  10.724
   69SBC   H01648079   9.837   6.666  10.751
   69SBC   C0FL48080   9.759   6.501  10.613
   69SBC   H01748081   9.837   6.476  10.543
   69SBC   C0FM48082   9.639   6.418  10.629
   69SBC   C0FH48083   9.590   6.279  10.614
   69SBC   C0FI48084   9.502   6.260  10.730
   69SBC   C0F348085   9.509   6.135  10.798
   69SBC   C0F248086   9.477   6.147  10.931
   69SBC   C0DW48087   9.487   6.259  11.011
   69SBC   C0FE48088   9.510   6.377  10.947
   69SBC   C0DV48089   9.501   6.249  11.145
   69SBC   C0DX48090   9.563   6.354  11.214
   69SBC   C0DK48091   9.601   6.335  11.345
   69SBC   C0DJ48092   9.583   6.209  11.408
   69SBC   C0DI48093   9.628   6.188  11.539
   69SBC   C0DH48094   9.698   6.289  11.605
   69SBC   C0DG48095   9.717   6.412  11.543
   69SBC   C0BV48096   9.788   6.509  11.610
   69SBC   C0BC48097   9.813   6.629  11.550
   69SBC   C0BA48098   9.860   6.475  11.727
   69SBC   C0B448099   9.964   6.558  11.772
   69SBC   C0B348100   9.983   6.681  11.716
   69SBC   C0B548101  10.041   6.510  11.878
   69SBC   C0BU48102  10.008   6.397  11.948
   69SBC   C0BT48103   9.896   6.321  11.911
   69SBC   C0BS48104   9.864   6.200  11.979
   69SBC   C0CC48105   9.760   6.123  11.934
   69SBC   C0CB48106   9.711   6.013  12.003
   69SBC   C0CH48107   9.625   5.928  11.939
   69SBC   C0DO48108   9.605   5.938  11.801
   69SBC   C0DP48109   9.555   5.827  11.730
   69SBC   C0EA48110   9.550   5.695  11.785
   69SBC   H01248111   9.582   5.671  11.885
   69SBC   O00948112   9.496   5.589  11.714
   69SBC   C0EH48113   9.508   5.593  11.578
   69SBC   C0EG48114   9.522   5.476  11.509
   69SBC   C0EJ48115   9.536   5.339  11.539
   69SBC   H01048116   9.536   5.293  11.637
   69SBC   C0EK48117   9.568   5.261  11.417
   69SBC   H00Z48118   9.584   5.155  11.406
   69SBC   C0EL48119   9.565   5.362  11.319
   69SBC   C0EM48120   9.596   5.357  11.180
   69SBC   C0EW48121   9.650   5.246  11.110
   69SBC   H01348122   9.680   5.165  11.175
   69SBC   C0EX48123   9.699   5.256  10.973
   69SBC   H01448124   9.762   5.181  10.928
   69SBC   C0F148125   9.665   5.376  10.905
   69SBC   C0EU48126   9.596   5.483  10.967
   69SBC   C0ET48127   9.571   5.614  10.918
   69SBC   C0ES48128   9.521   5.686  11.035
   69SBC   C0EE48129   9.524   5.600  11.149
   69SBC   C0ED48130   9.509   5.605  11.296
   69SBC   C0EC48131   9.501   5.727  11.370
   69SBC   C0EB48132   9.487   5.862  11.315
   69SBC   C0EN48133   9.484   5.882  11.170
   69SBC   C0ER48134   9.470   6.016  11.130
   69SBC   C0DS48135   9.518   5.978  11.393
   69SBC   C0DR48136   9.550   5.962  11.528
   69SBC   C0EY48137   9.487   5.815  11.046
   69SBC   C0EZ48138   9.501   5.897  10.928
   69SBC   C0F548139   9.552   5.894  10.791
   69SBC   C0F648140   9.604   5.778  10.727
   69SBC   N00848141   9.653   5.796  10.594
   69SBC   C0F748142   9.645   5.924  10.533
   69SBC   C0FQ48143   9.686   5.929  10.396
   69SBC   H01848144   9.684   6.026  10.347
   69SBC   C0FP48145   9.742   5.820  10.327
   69SBC   H01948146   9.786   5.831  10.229
   69SBC   C0FO48147   9.754   5.700  10.392
   69SBC   H01A48148   9.804   5.620  10.340
   69SBC   C0F848149   9.610   6.036  10.607
   69SBC   C0F948150   9.709   5.684  10.523
   69SBC   C0FA48151   9.728   5.558  10.584
   69SBC   H01548152   9.783   5.478  10.536
   69SBC   C0FB48153   9.679   5.537  10.717
   69SBC   C0FD48154   9.611   5.645  10.783
   69SBC   C0FC48155   9.707   5.405  10.778
   69SBC   O00A48156   9.759   5.314  10.715
   69SBC   C0EV48157   9.565   5.474  11.105
   69SBC   C0EF48158   9.524   5.483  11.373
   69SBC   C0EI48159   9.514   5.721  11.510
   69SBC   C0DQ48160   9.534   5.836  11.590
   69SBC   C0CE48161   9.639   6.054  11.735
   69SBC   H00U48162   9.607   5.838  11.996
   69SBC   C0CA48163   9.767   6.001  12.139
   69SBC   C0C948164   9.899   6.042  12.164
   69SBC   C0C848165   9.980   5.954  12.233
   69SBC   C0C748166  10.112   5.961  12.287
   69SBC   C0C648167  10.168   5.847  12.354
   69SBC   C0C548168  10.265   5.815  12.458
   69SBC   C0CQ48169  10.243   5.693  12.533
   69SBC   C0D148170  10.114   5.635  12.520
   69SBC   C0D848171  10.068   5.583  12.637
   69SBC   C0D748172  10.189   5.578  12.713
   69SBC   C0D648173  10.192   5.547  12.850
   69SBC   C0D548174  10.307   5.551  12.928
   69SBC   C0D448175  10.438   5.593  12.901
   69SBC   C0D348176  10.499   5.621  13.029
   69SBC   C0CX48177  10.604   5.726  13.012
   69SBC   C0CW48178  10.574   5.782  12.879
   69SBC   C0CV48179  10.623   5.893  12.796
   69SBC   C0D248180  10.749   5.954  12.824
   69SBC   C09D48181  10.852   5.900  12.911
   69SBC   C09C48182  10.976   5.966  12.918
   69SBC   C09B48183  11.077   5.935  13.010
   69SBC   C09A48184  11.052   5.823  13.091
   69SBC   C09948185  10.943   5.754  13.080
   69SBC   C09848186  10.927   5.666  13.187
   69SBC   C08Y48187  11.032   5.691  13.282
   69SBC   C08X48188  11.048   5.650  13.415
   69SBC   C08W48189  10.951   5.561  13.474
   69SBC   C08U48190  10.822   5.517  13.414
   69SBC   C08V48191  10.753   5.537  13.287
   69SBC   C0DC48192  10.640   5.455  13.289
   69SBC   H00W48193  10.581   5.441  13.200
   69SBC   C0DB48194  10.631   5.386  13.414
   69SBC   H00X48195  10.556   5.313  13.440
   69SBC   C08T48196  10.743   5.425  13.492
   69SBC   C08S48197  10.772   5.382  13.620
   69SBC   H00N48198  10.696   5.320  13.667
   69SBC   C08R48199  10.888   5.429  13.684
   69SBC   C08Q48200  10.922   5.389  13.817
   69SBC   H00O48201  10.859   5.318  13.868
   69SBC   C08P48202  11.033   5.442  13.890
   69SBC   C08O48203  11.059   5.411  14.031
   69SBC   H00P48204  10.996   5.335  14.075
   69SBC   C08N48205  11.155   5.496  14.102
   69SBC   C08M48206  11.175   5.478  14.248
   69SBC   O00848207  11.113   5.392  14.317
   69SBC   O00748208  11.268   5.561  14.308
   69SBC   C08H48209  11.343   5.652  14.241
   69SBC   C08G48210  11.437   5.732  14.309
   69SBC   C03V48211  11.481   5.728  14.439
   69SBC   H00948212  11.442   5.656  14.510
   69SBC   C03U48213  11.587   5.811  14.493
   69SBC   C03W48214  11.649   5.794  14.624
   69SBC   H00A48215  11.621   5.711  14.688
   69SBC   C03X48216  11.736   5.885  14.669
   69SBC   H00B48217  11.785   5.871  14.764
   69SBC   O00548218  11.765   5.997  14.595
   69SBC   C03O48219  11.722   6.007  14.468
   69SBC   C03N48220  11.760   6.118  14.396
   69SBC   O00048221  11.823   6.213  14.464
   69SBC   C01948222  11.841   6.332  14.400
   69SBC   C01848223  11.826   6.350  14.265
   69SBC   C01748224  11.761   6.241  14.193
   69SBC   C01648225  11.742   6.250  14.061
   69SBC   C01548226  11.788   6.369  14.002
   69SBC   C01448227  11.779   6.378  13.861
   69SBC   C01348228  11.710   6.283  13.782
   69SBC   C01248229  11.712   6.347  13.651
   69SBC   C01148230  11.792   6.463  13.663
   69SBC   C01048231  11.826   6.543  13.561
   69SBC   C00Z48232  11.893   6.661  13.558
   69SBC   C00Y48233  11.873   6.707  13.427
   69SBC   C01O48234  11.807   6.619  13.348
   69SBC   C01P48235  11.726   6.647  13.239
   69SBC   C02L48236  11.633   6.561  13.202
   69SBC   C02K48237  11.629   6.440  13.273
   69SBC   C01M48238  11.690   6.414  13.404
   69SBC   C02J48239  11.538   6.350  13.216
   69SBC   C02I48240  11.504   6.222  13.264
   69SBC   C02H48241  11.531   6.157  13.383
   69SBC   C01Q48242  11.596   6.201  13.499
   69SBC   C02G48243  11.577   6.104  13.607
   69SBC   C08948244  11.517   5.994  13.546
   69SBC   C08848245  11.450   5.913  13.643
   69SBC   C08748246  11.507   5.961  13.769
   69SBC   C08648247  11.487   5.893  13.886
   69SBC   C03S48248  11.538   5.937  14.015
   69SBC   N00648249  11.481   5.847  14.104
   69SBC   C08F48250  11.404   5.752  14.042
   69SBC   C01J48251  11.618   6.041  14.065
   69SBC   C03R48252  11.647   6.030  14.202
   69SBC   C03Q48253  11.591   5.929  14.285
   69SBC   C08E48254  11.394   5.784  13.911
   69SBC   C08D48255  11.303   5.709  13.830
   69SBC   C08K48256  11.219   5.607  13.891
   69SBC   C08C48257  11.272   5.727  13.695
   69SBC   C09148258  11.164   5.663  13.631
   69SBC   C09248259  11.083   5.567  13.690
   69SBC   C08B48260  11.335   5.820  13.608
   69SBC   C09048261  11.259   5.800  13.479
   69SBC   C09448262  11.295   5.865  13.356
   69SBC   C09548263  11.225   5.862  13.242
   69SBC   C09R48264  11.255   5.966  13.162
   69SBC   C09748265  11.353   6.040  13.220
   69SBC   C09648266  11.376   5.981  13.340
   69SBC   C01I48267  11.588   6.080  13.750
   69SBC   C08A48268  11.475   6.040  13.419
   69SBC   C09L48269  11.414   6.161  13.179
   69SBC   C09K48270  11.391   6.253  13.071
   69SBC   C09J48271  11.294   6.244  12.976
   69SBC   C09I48272  11.248   6.340  12.882
   69SBC   C09O48273  11.282   6.473  12.845
   69SBC   C09N48274  11.381   6.549  12.909
   69SBC   C09M48275  11.463   6.505  13.023
   69SBC   C06O48276  11.402   6.677  12.855
   69SBC   C05M48277  11.326   6.730  12.746
   69SBC   C06P48278  11.228   6.649  12.684
   69SBC   C04248279  11.339   6.860  12.699
   69SBC   C04148280  11.427   6.947  12.764
   69SBC   C04048281  11.431   7.079  12.727
   69SBC   C03Z48282  11.507   7.171  12.794
   69SBC   C03Y48283  11.581   7.129  12.901
   69SBC   C02748284  11.654   7.223  12.981
   69SBC   C02648285  11.728   7.174  13.086
   69SBC   C02848286  11.799   7.266  13.164
   69SBC   C02948287  11.789   7.402  13.134
   69SBC   C02B48288  11.847   7.495  13.221
   69SBC   C02C48289  11.837   7.629  13.189
   69SBC   C02X48290  11.896   7.719  13.272
   69SBC   C03E48291  11.896   7.853  13.238
   69SBC   C03G48292  11.833   7.902  13.130
   69SBC   C04Q48293  11.771   7.809  13.046
   69SBC   C04R48294  11.698   7.854  12.940
   69SBC   C04S48295  11.638   7.761  12.858
   69SBC   C04L48296  11.644   7.623  12.884
   69SBC   C04M48297  11.710   7.581  12.995
   69SBC   C04K48298  11.578   7.531  12.803
   69SBC   C04F48299  11.495   7.577  12.699
   69SBC   C04E48300  11.486   7.715  12.679
   69SBC   C04D48301  11.401   7.761  12.578
   69SBC   C05048302  11.395   7.899  12.545
   69SBC   C05148303  11.313   7.944  12.443
   69SBC   C05Q48304  11.306   8.084  12.414
   69SBC   C05V48305  11.221   8.123  12.320
   69SBC   N00548306  11.209   8.264  12.303
   69SBC   C07V48307  11.287   8.351  12.376
   69SBC   C08248308  11.276   8.488  12.353
   69SBC   C08148309  11.203   8.546  12.254
   69SBC   C07C48310  11.110   8.461  12.191
   69SBC   C07B48311  11.023   8.513  12.095
   69SBC   C08048312  11.010   8.649  12.074
   69SBC   C07Z48313  10.907   8.699  11.987
   69SBC   H00L48314  10.912   8.805  11.968
   69SBC   C07948315  10.822   8.614  11.912
   69SBC   C07848316  10.841   8.477  11.931
   69SBC   C07748317  10.764   8.385  11.860
   69SBC   C07X48318  10.667   8.434  11.771
   69SBC   H00I48319  10.603   8.358  11.730
   69SBC   C07Y48320  10.644   8.569  11.743
   69SBC   H00H48321  10.576   8.604  11.667
   69SBC   C07648322  10.790   8.254  11.869
   69SBC   C06C48323  10.735   8.165  11.778
   69SBC   H00C48324  10.671   8.185  11.693
   69SBC   C06F48325  10.876   8.201  11.965
   69SBC   C06E48326  10.884   8.068  11.998
   69SBC   C06G48327  10.962   8.001  12.088
   69SBC   C06H48328  11.049   8.088  12.155
   69SBC   C06I48329  11.037   8.228  12.137
   69SBC   C06L48330  10.967   7.857  12.104
   69SBC   C06M48331  10.882   7.765  12.029
   69SBC   C06K48332  11.058   7.811  12.198
   69SBC   C05S48333  11.140   7.902  12.271
   69SBC   C05U48334  11.073   7.671  12.218
   69SBC   C05X48335  10.986   7.577  12.152
   69SBC   C05G48336  11.012   7.441  12.199
   69SBC   C05F48337  11.114   7.407  12.288
   69SBC   C05E48338  11.111   7.272  12.327
   69SBC   C04848339  11.192   7.219  12.427
   69SBC   C05648340  11.187   7.087  12.450
   69SBC   C04548341  11.262   7.042  12.558
   69SBC   C04748342  11.268   7.311  12.491
   69SBC   C04948343  11.261   7.450  12.456
   69SBC   C04B48344  11.342   7.540  12.521
   69SBC   C04648345  11.346   7.265  12.593
   69SBC   C04H48346  11.436   7.352  12.654
   69SBC   C05D48347  11.020   7.205  12.250
   69SBC   C04A48348  11.185   7.502  12.358
   69SBC   C05T48349  11.172   7.635  12.317
   69SBC   C05548350  11.241   7.726  12.400
   69SBC   C06D48351  10.814   7.978  11.918
   69SBC   C07W48352  10.951   8.285  12.041
   69SBC   C08548353  10.722   8.661  11.821
   69SBC   H00M48354  10.702   8.766  11.811
   69SBC   C08448355  11.103   8.734  12.136
   69SBC   H00J48356  11.104   8.840  12.117
   69SBC   C07A48357  10.942   8.424  12.026
   69SBC   C08348358  11.202   8.681  12.215
   69SBC   H00K48359  11.274   8.747  12.261
   69SBC   O00K48360  11.355   8.582  12.420
   69SBC   C0GO48361  11.439   8.530  12.515
   69SBC   C0GN48362  11.526   8.615  12.585
   69SBC   H01L48363  11.523   8.718  12.555
   69SBC   C0GM48364  11.642   8.564  12.652
   69SBC   C0GL48365  11.742   8.643  12.699
   69SBC   H01M48366  11.738   8.748  12.674
   69SBC   O00J48367  11.847   8.601  12.779
   69SBC   C0GK48368  11.832   8.468  12.817
   69SBC   H01N48369  11.905   8.444  12.893
   69SBC   C05K48370  11.732   8.388  12.778
   69SBC   C05J48371  11.712   8.265  12.839
   69SBC   C04Y48372  11.765   8.221  12.962
   69SBC   C04X48373  11.763   8.085  12.995
   69SBC   O00648374  11.834   8.306  13.046
   69SBC   C05348375  11.898   8.260  13.161
   69SBC   C04O48376  11.889   8.127  13.205
   69SBC   C03C48377  11.932   8.073  13.328
   69SBC   C03B48378  11.984   8.118  13.454
   69SBC   C05448379  12.052   8.236  13.472
   69SBC   C0GR48380  12.105   8.282  13.593
   69SBC   C03M48381  12.120   8.223  13.732
   69SBC   C03I48382  12.104   8.081  13.758
   69SBC   C03J48383  12.118   8.038  13.891
   69SBC   N00248384  12.114   7.894  13.925
   69SBC   C02U48385  12.120   7.845  14.061
   69SBC   C02T48386  12.126   7.707  14.091
   69SBC   C02Z48387  12.127   7.672  14.223
   69SBC   N00148388  12.132   7.531  14.252
   69SBC   C02R48389  12.146   7.493  14.387
   69SBC   C03248390  12.146   7.586  14.490
   69SBC   C03148391  12.127   7.719  14.457
   69SBC   H00748392  12.120   7.787  14.540
   69SBC   C03348393  12.169   7.529  14.619
   69SBC   H00348394  12.172   7.595  14.704
   69SBC   O00448395  12.202   7.400  14.650
   69SBC   C03448396  12.205   7.318  14.542
   69SBC   C03548397  12.240   7.182  14.570
   69SBC   C03648398  12.249   7.085  14.469
   69SBC   H00548399  12.276   6.984  14.492
   69SBC   C03748400  12.221   7.124  14.337
   69SBC   H00648401  12.234   7.055  14.255
   69SBC   C00D48402  12.174   7.258  14.312
   69SBC   C00C48403  12.130   7.296  14.183
   69SBC   C00B48404  12.094   7.199  14.076
   69SBC   C00A48405  12.089   7.050  14.051
   69SBC   C00948406  12.085   7.044  13.903
   69SBC   C00848407  12.029   6.944  13.819
   69SBC   C00748408  11.979   6.833  13.883
   69SBC   C00648409  11.937   6.724  13.797
   69SBC   C00548410  11.885   6.610  13.864
   69SBC   C00448411  11.889   6.596  14.010
   69SBC   C00348412  11.930   6.709  14.089
   69SBC   C00248413  11.909   6.705  14.225
   69SBC   C01C48414  11.886   6.578  14.280
   69SBC   C01B48415  11.903   6.560  14.416
   69SBC   H00048416  11.940   6.638  14.480
   69SBC   C00148417  11.916   6.819  14.299
   69SBC   C00048418  11.961   6.934  14.234
   69SBC   C01U48419  11.937   7.034  14.325
   69SBC   H00248420  11.947   7.141  14.330
   69SBC   C01T48421  11.900   6.971  14.453
   69SBC   O00248422  11.872   7.031  14.560
   69SBC   O00148423  11.879   6.840  14.430
   69SBC   C01S48424  11.975   6.825  14.027
   69SBC   C00N48425  12.009   6.979  13.688
   69SBC   C00M48426  12.034   7.106  13.639
   69SBC   C00J48427  12.081   7.202  13.720
   69SBC   C00I48428  12.077   7.334  13.695
   69SBC   C00H48429  12.113   7.433  13.789
   69SBC   C00G48430  12.129   7.393  13.918
   69SBC   C00F48431  12.132   7.482  14.022
   69SBC   C01X48432  12.105   7.567  13.758
   69SBC   C01W48433  12.060   7.604  13.634
   69SBC   C01V48434  12.019   7.503  13.542
   69SBC   C02048435  11.958   7.545  13.427
   69SBC   C01Z48436  12.055   7.740  13.608
   69SBC   C02Y48437  12.011   7.764  13.484
   69SBC   C03948438  11.991   7.895  13.456
   69SBC   C02W48439  12.081   7.841  13.701
   69SBC   C01Y48440  12.119   7.661  13.859
   69SBC   C00U48441  12.034   7.373  13.573
   69SBC   C00S48442  11.983   7.280  13.487
   69SBC   C00T48443  11.925   7.321  13.363
   69SBC   C00R48444  11.985   7.144  13.518
   69SBC   C00Q48445  11.945   7.050  13.433
   69SBC   C00V48446  11.878   7.094  13.312
   69SBC   C02448447  11.808   7.004  13.228
   69SBC   C00X48448  11.812   6.869  13.262
   69SBC   C00P48449  11.939   6.920  13.468
   69SBC   C00O48450  11.965   6.882  13.603
   69SBC   C00K48451  12.114   7.168  13.849
   69SBC   N00048452  12.011   6.938  14.104
   69SBC   C00L48453  12.105   7.261  13.951
   69SBC   H00448454  12.265   7.154  14.671
   69SBC   C02Q48455  12.173   7.358  14.409
   69SBC   C00E48456  12.129   7.435  14.152
   69SBC   C03048457  12.117   7.763  14.326
   69SBC   O00348458  12.114   7.897  14.298
   69SBC   C02S48459  12.137   7.617  13.990
   69SBC   C03848460  12.111   7.938  14.165
   69SBC   C03L48461  12.120   8.073  14.132
   69SBC   H00848462  12.133   8.145  14.211
   69SBC   C02V48463  12.106   7.794  13.827
   69SBC   C03K48464  12.134   8.126  13.999
   69SBC   C0BK48465  12.154   8.262  13.961
   69SBC   H00T48466  12.158   8.338  14.038
   69SBC   C03H48467  12.072   7.980  13.670
   69SBC   C0BL48468  12.159   8.320  13.832
   69SBC   C0GU48469  12.190   8.451  13.793
   69SBC   H01O48470  12.187   8.516  13.879
   69SBC   C0GT48471  12.187   8.504  13.661
   69SBC   H01P48472  12.201   8.611  13.650
   69SBC   C0GS48473  12.131   8.422  13.567
   69SBC   C0GV48474  12.086   8.460  13.438
   69SBC   C0GW48475  12.078   8.590  13.383
   69SBC   H01Q48476  12.109   8.672  13.445
   69SBC   C0GX48477  12.028   8.589  13.256
   69SBC   H01R48478  12.017   8.687  13.211
   69SBC   O00L48479  11.979   8.480  13.185
   69SBC   C0GQ48480  12.044   8.340  13.370
   69SBC   C03A48481  12.018   8.003  13.534
   69SBC   C05L48482  11.984   8.352  13.238
   69SBC   C04W48483  11.629   8.174  12.770
   69SBC   C05I48484  11.547   8.211  12.666
   69SBC   C05O48485  11.541   8.344  12.632
   69SBC   C05248486  11.472   8.120  12.588
   69SBC   C04V48487  11.623   8.037  12.801
   69SBC   C04U48488  11.551   7.941  12.722
   69SBC   N00948489  11.636   8.430  12.687
   69SBC   C0GP48490  11.451   8.391  12.535
   69SBC   C05W48491  11.379   8.304  12.465
   69SBC   C07D48492  11.115   8.317  12.211
   69SBC   C06J48493  11.140   8.035  12.247
   69SBC   C05P48494  11.387   8.169  12.488
   69SBC   C05R48495  11.227   7.856  12.373
   69SBC   C04Z48496  11.470   7.988  12.621
   69SBC   C04C48497  11.330   7.675  12.496
   69SBC   C04G48498  11.427   7.488  12.619
   69SBC   C04J48499  11.584   7.396  12.836
   69SBC   C04T48500  11.559   7.806  12.758
   69SBC   N00348501  11.695   7.994  12.910
   69SBC   C04P48502  11.828   8.037  13.112
   69SBC   C03D48503  11.927   7.936  13.342
   69SBC   C02148504  11.953   7.673  13.394
   69SBC   C03F48505  11.774   7.674  13.079
   69SBC   C02248506  11.910   7.454  13.337
   69SBC   C02A48507  11.727   7.445  13.018
   69SBC   C02348508  11.862   7.225  13.283
   69SBC   C02548509  11.731   7.042  13.121
   69SBC   C02D48510  11.649   6.952  13.055
   69SBC   C02E48511  11.644   6.816  13.092
   69SBC   C02N48512  11.560   6.724  13.033
   69SBC   C04N48513  11.654   7.355  12.947
   69SBC   C02P48514  11.575   6.996  12.946
   69SBC   C04I48515  11.510   7.306  12.758
   69SBC   C04448516  11.347   7.132  12.627
   69SBC   C04348517  11.497   6.905  12.878
   69SBC   C05N48518  11.488   6.766  12.922
   69SBC   C09U48519  11.200   6.528  12.738
   69SBC   C09V48520  11.086   6.452  12.688
   69SBC   C09X48521  11.052   6.326  12.733
   69SBC   C09Y48522  10.941   6.250  12.701
   69SBC   C0A148523  10.860   6.303  12.606
   69SBC   C0A248524  10.900   6.423  12.543
   69SBC   C0A448525  10.814   6.473  12.447
   69SBC   C07148526  10.846   6.594  12.382
   69SBC   C0A548527  10.759   6.645  12.285
   69SBC   C0A948528  10.644   6.578  12.253
   69SBC   C0A848529  10.618   6.456  12.314
   69SBC   C0AP48530  10.502   6.387  12.280
   69SBC   C0BY48531  10.478   6.267  12.347
   69SBC   C0BX48532  10.554   6.207  12.440
   69SBC   C0C248533  10.508   6.092  12.509
   69SBC   C0C348534  10.580   6.048  12.619
   69SBC   C0CT48535  10.699   6.114  12.649
   69SBC   C0C148536  10.391   6.023  12.473
   69SBC   C0C048537  10.307   6.093  12.375
   69SBC   C0A748538  10.666   6.280  12.479
   69SBC   C0BZ48539  10.360   6.208  12.320
   69SBC   C0BO48540  10.269   6.260  12.233
   69SBC   C0BN48541  10.300   6.373  12.157
   69SBC   C0BM48542  10.204   6.427  12.075
   69SBC   C0B948543  10.232   6.546  12.007
   69SBC   C0B848544  10.350   6.611  12.030
   69SBC   C0AD48545  10.441   6.560  12.122
   69SBC   C0AF48546  10.372   6.738  11.978
   69SBC   C0AG48547  10.279   6.799  11.888
   69SBC   C0B748548  10.167   6.718  11.853
   69SBC   C0AE48549  10.491   6.796  12.007
   69SBC   C0AB48550  10.584   6.743  12.097
   69SBC   C0AA48551  10.696   6.820  12.132
   69SBC   C0AJ48552  10.518   6.917  11.946
   69SBC   C0AK48553  10.625   6.988  11.988
   69SBC   C06W48554  10.617   7.104  11.914
   69SBC   C0AI48555  10.431   6.985  11.856
   69SBC   C0BP48556  10.155   6.192  12.223
   69SBC   C0BQ48557  10.055   6.236  12.123
   69SBC   C0BW48558  10.418   6.443  12.190
   69SBC   C0AC48559  10.555   6.627  12.155
   69SBC   C0A648560  10.701   6.404  12.414
   69SBC   C0A348561  10.743   6.227  12.576
   69SBC   C09Z48562  10.906   6.135  12.765
   69SBC   C09W48563  11.008   6.495  12.581
   69SBC   C07248564  11.045   6.617  12.520
   69SBC   C09H48565  11.136   6.275  12.828
   69SBC   C09G48566  11.107   6.154  12.881
   69SBC   C09P48567  11.203   6.135  12.973
   69SBC   C02O48568  11.463   6.376  13.093
   69SBC   C02M48569  11.548   6.596  13.089
   69SBC   C02F48570  11.731   6.777  13.193
   69SBC   C00W48571  11.884   6.834  13.375
   69SBC   C01R48572  11.939   6.754  13.656
   69SBC   C01N48573  11.777   6.515  13.433
   69SBC   C01L48574  11.661   6.320  13.514
   69SBC   C01H48575  11.658   6.166  13.843
   69SBC   C01K48576  11.820   6.499  13.796
   69SBC   C01E48577  11.843   6.478  14.069
   69SBC   C01G48578  11.675   6.145  13.986
   69SBC   C01D48579  11.847   6.470  14.205
   69SBC   C01A48580  11.879   6.439  14.474
   69SBC   H00148581  11.898   6.431  14.580
   69SBC   C01F48582  11.720   6.129  14.260
   69SBC   C03P48583  11.633   5.913  14.411
   69SBC   C03T48584  11.498   5.839  14.238
   69SBC   C08I48585  11.325   5.662  14.102
   69SBC   C08J48586  11.233   5.589  14.031
   69SBC   C08L48587  11.111   5.538  13.820
   69SBC   C09348588  10.971   5.515  13.613
   69SBC   C08Z48589  11.150   5.708  13.496
   69SBC   C09T48590  10.792   5.631  13.187
   69SBC   C09S48591  11.115   5.786  13.211
   69SBC   C09Q48592  11.190   6.014  13.043
   69SBC   C09F48593  10.994   6.082  12.848
   69SBC   C09E48594  10.838   5.790  13.006
   69SBC   C0A048595  10.783   6.067  12.745
   69SBC   C0CU48596  10.545   5.933  12.684
   69SBC   C0CR48597  10.434   5.857  12.641
   69SBC   C0CZ48598  10.400   5.736  12.703
   69SBC   C0DA48599  10.734   5.712  13.065
   69SBC   C0D948600  10.393   5.601  13.132
   69SBC   H00V48601  10.400   5.627  13.237
   69SBC   C0CY48602  10.468   5.708  12.824
   69SBC   C0DF48603  10.275   5.557  13.068
   69SBC   C0DE48604  10.133   5.522  13.069
   69SBC   C0GI48605  10.045   5.499  13.179
   69SBC   H01K48606  10.078   5.512  13.282
   69SBC   C0GJ48607   9.917   5.469  13.146
   69SBC   H01J48608   9.856   5.437  13.229
   69SBC   O00I48609   9.867   5.472  13.017
   69SBC   C0GH48610   9.944   5.503  12.911
   69SBC   C0GG48611   9.872   5.527  12.790
   69SBC   O00G48612   9.743   5.507  12.799
   69SBC   C0G848613   9.658   5.547  12.710
   69SBC   C0G948614   9.527   5.506  12.738
   69SBC   H01G48615   9.504   5.439  12.819
   69SBC   C0GA48616   9.425   5.560  12.657
   69SBC   H01H48617   9.327   5.518  12.669
   69SBC   C0GB48618   9.448   5.662  12.558
   69SBC   C0EP48619   9.586   5.688  12.524
   69SBC   C0E848620   9.611   5.783  12.414
   69SBC   C0CK48621   9.721   5.824  12.338
   69SBC   C0CL48622   9.851   5.775  12.347
   69SBC   C0E948623   9.897   5.688  12.453
   69SBC   C0GE48624   9.836   5.635  12.575
   69SBC   C0E748625   9.504   5.850  12.351
   69SBC   C0CJ48626   9.542   5.935  12.245
   69SBC   C0E648627   9.443   6.022  12.188
   69SBC   H00Y48628   9.470   6.105  12.123
   69SBC   C0EO48629   9.312   5.991  12.230
   69SBC   H01148630   9.224   6.040  12.192
   69SBC   C0G648631   9.278   5.884  12.309
   69SBC   C0G548632   9.139   5.839  12.329
   69SBC   H01F48633   9.061   5.883  12.269
   69SBC   C0GD48634   9.105   5.749  12.428
   69SBC   H01I48635   9.001   5.728  12.446
   69SBC   O00H48636   9.202   5.687  12.505
   69SBC   C0EQ48637   9.373   5.820  12.385
   69SBC   C0GC48638   9.335   5.725  12.486
   69SBC   C0G748639   9.695   5.631  12.594
   69SBC   C0DD48640  10.085   5.517  12.934
   69SBC   C0GF48641   9.929   5.578  12.671
   69SBC   C0CO48642  10.028   5.679  12.424
   69SBC   C0D048643  10.281   5.669  12.656
   69SBC   C0C448644  10.361   5.897  12.523
   69SBC   C0CN48645  10.074   5.751  12.309
   69SBC   C0CP48646  10.176   6.084  12.312
   69SBC   C0CM48647   9.957   5.814  12.254
   69SBC   C0CI48648   9.683   5.922  12.236
   69SBC   C0CD48649   9.712   6.148  11.804
   69SBC   C0BR48650   9.939   6.163  12.092
   69SBC   C0CS48651  10.089   6.354  12.052
   69SBC   C0B648652  10.146   6.592  11.911
   69SBC   C0CG48653   9.834   6.353  11.790
   69SBC   C0CF48654   9.746   6.266  11.733
   69SBC   C0E548655   9.608   6.065  11.598
   69SBC   C0DT48656   9.530   6.104  11.336
   69SBC   C0DL48657   9.670   6.435  11.415
   69SBC   C0DM48658   9.702   6.549  11.353
   69SBC   C0DY48659   9.591   6.475  11.150
   69SBC   C0DU48660   9.492   6.128  11.210
   69SBC   C0F048661   9.482   6.022  10.990
   69SBC   C0F448662   9.550   6.021  10.734
   69SBC   C0FG48663   9.506   6.381  10.810
   69SBC   O00B48664   9.635   6.165  10.555
   69SBC   C0FN48665   9.560   6.477  10.733
   69SBC   C0DZ48666   9.578   6.485  11.008
   69SBC   O00C48667   9.721   6.812  10.952
   69SBC   C0FR48668   9.772   6.922  11.014
   69SBC   O00D48669   9.795   7.019  10.943
   69SBC   C0E048670   9.673   6.569  11.220
   69SBC   C0E348671   9.801   6.911  11.158
   69SBC   C0AW48672   9.852   7.017  11.237
   69SBC   C0AV48673   9.876   7.156  11.196
   69SBC   H00Q48674   9.834   7.188  11.102
   69SBC   C0AU48675   9.953   7.251  11.274
   69SBC   H00R48676   9.979   7.351  11.244
   69SBC   C0AT48677   9.991   7.206  11.399
   69SBC   C0AS48678  10.078   7.257  11.503
   69SBC   C0AR48679  10.076   7.388  11.566
   69SBC   C0BE48680   9.963   7.073  11.432
   69SBC   C0DN48681   9.770   6.646  11.421
   69SBC   C0AX48682   9.889   6.984  11.358
   69SBC   C0BB48683   9.908   6.713  11.603
   69SBC   C0BD48684  10.035   7.045  11.544
   69SBC   C0B248685  10.083   6.766  11.765
   69SBC   C0AH48686  10.304   6.925  11.830
   69SBC   C0BF48687  10.119   7.146  11.586
   69SBC   C0AL48688  10.501   7.111  11.835
   69SBC   C07U48689  10.293   7.371  11.692
   69SBC   C0AQ48690  10.187   7.439  11.638
   69SBC   C0BG48691   9.985   7.502  11.553
   69SBC   C0FY48692  10.120   7.819  11.482
   69SBC   C0BJ48693   9.916   7.546  11.436
   69SBC   H00S48694   9.861   7.483  11.368
   69SBC   C0FZ48695  10.078   7.852  11.350
   69SBC   C07S48696  10.257   7.835  11.521
   69SBC   C0G148697  10.358   8.056  11.231
   69SBC   C07K48698  10.682   8.059  11.407
   69SBC   C07H48699  10.534   7.886  11.580
   69SBC   C06B48700  10.752   8.025  11.806
   69SBC   C06N48701  10.804   7.836  11.931
   69SBC   C06648702  10.516   7.682  11.743
   69SBC   C06248703  10.639   7.409  11.849
   69SBC   C05Y48704  10.889   7.624  12.057
   69SBC   C06148705  10.742   7.320  11.887
   69SBC   C05H48706  10.954   7.310  12.178
   69SBC   C06V48707  10.715   7.195  11.952
   69SBC   C06Y48708  10.715   6.946  12.082
   69SBC   C05C48709  11.006   7.063  12.279
   69SBC   C06Z48710  10.783   6.770  12.225
   69SBC   C07048711  10.959   6.668  12.417
   69SBC   C05B48712  11.095   7.008  12.378
   69SBC   C05748713  11.258   6.912  12.594
   69SBC   C05948714  11.151   6.694  12.571
   70SBC   C05848715   1.855   5.144   5.614
   70SBC   C05A48716   1.857   5.006   5.576
   70SBC   C06Q48717   1.824   4.901   5.665
   70SBC   C06R48718   1.829   4.767   5.628
   70SBC   C06S48719   1.854   4.723   5.493
   70SBC   C06T48720   1.844   4.586   5.463
   70SBC   C06U48721   1.850   4.520   5.334
   70SBC   C06X48722   1.873   4.564   5.205
   70SBC   C06048723   1.860   4.458   5.107
   70SBC   C05Z48724   1.938   4.425   4.988
   70SBC   C06848725   1.952   4.274   4.997
   70SBC   C06748726   2.013   4.184   4.895
   70SBC   C06948727   2.073   4.235   4.773
   70SBC   C06A48728   2.160   4.163   4.677
   70SBC   C07348729   2.220   4.033   4.683
   70SBC   C07P48730   2.351   4.020   4.624
   70SBC   C07O48731   2.446   4.120   4.618
   70SBC   H00D48732   2.430   4.214   4.667
   70SBC   C07N48733   2.562   4.116   4.543
   70SBC   H00E48734   2.633   4.197   4.538
   70SBC   C07M48735   2.590   4.001   4.474
   70SBC   H00F48736   2.679   3.984   4.414
   70SBC   C07L48737   2.510   3.885   4.495
   70SBC   C07Q48738   2.539   3.754   4.434
   70SBC   H00G48739   2.632   3.741   4.382
   70SBC   O00F48740   2.454   3.643   4.450
   70SBC   C07J48741   2.347   3.665   4.536
   70SBC   C07I48742   2.309   3.786   4.595
   70SBC   N00448743   2.192   3.796   4.678
   70SBC   C07R48744   2.113   3.680   4.697
   70SBC   C07T48745   2.169   3.559   4.656
   70SBC   C0FX48746   2.112   3.439   4.689
   70SBC   C0FW48747   2.166   3.310   4.672
   70SBC   C0G048748   2.277   3.310   4.584
   70SBC   C0G248749   2.336   3.189   4.562
   70SBC   H01E48750   2.419   3.184   4.493
   70SBC   C0G348751   2.293   3.071   4.625
   70SBC   H01C48752   2.343   2.978   4.602
   70SBC   C0G448753   2.183   3.074   4.709
   70SBC   H01D48754   2.145   2.985   4.758
   70SBC   O00E48755   2.325   3.425   4.525
   70SBC   C0FV48756   2.123   3.197   4.747
   70SBC   C0FU48757   2.023   3.215   4.853
   70SBC   H01B48758   1.999   3.133   4.919
   70SBC   C0FT48759   1.956   3.340   4.858
   70SBC   C0FS48760   1.851   3.403   4.934
   70SBC   C0BI48761   1.823   3.533   4.878
   70SBC   C0BH48762   1.764   3.614   4.978
   70SBC   C07F48763   1.815   3.740   5.015
   70SBC   C07E48764   1.894   3.827   4.946
   70SBC   C07G48765   1.969   3.807   4.833
   70SBC   C07448766   2.036   3.928   4.810
   70SBC   C06548767   1.902   3.958   4.990
   70SBC   C06448768   1.858   3.983   5.122
   70SBC   C06348769   1.884   4.100   5.196
   70SBC   C07548770   1.825   4.066   5.332
   70SBC   C0AM48771   1.785   3.930   5.344
   70SBC   C0AN48772   1.725   3.853   5.459
   70SBC   C0AO48773   1.698   3.902   5.603
   70SBC   C0B148774   1.655   3.811   5.705
   70SBC   C0B048775   1.611   3.684   5.677
   70SBC   C0AZ48776   1.568   3.590   5.768
   70SBC   C0AY48777   1.546   3.458   5.732
   70SBC   N00748778   1.522   3.356   5.821
   70SBC   C0E248779   1.512   3.226   5.782
   70SBC   C0E148780   1.496   3.134   5.881
   70SBC   C0E448781   1.516   3.003   5.850
   70SBC   C0FF48782   1.503   2.899   5.940
   70SBC   C0FJ48783   1.549   2.760   5.937
   70SBC   C0FK48784   1.664   2.712   5.864
   70SBC   H01648785   1.705   2.765   5.779
   70SBC   C0FL48786   1.724   2.603   5.951
   70SBC   H01748787   1.820   2.555   5.944
   70SBC   C0FM48788   1.630   2.583   6.059
   70SBC   C0FH48789   1.612   2.534   6.199
   70SBC   C0FI48790   1.508   2.623   6.239
   70SBC   C0F348791   1.487   2.659   6.377
   70SBC   C0F248792   1.419   2.776   6.398
   70SBC   C0DW48793   1.401   2.871   6.301
   70SBC   C0FE48794   1.420   2.841   6.168
   70SBC   C0DV48795   1.391   3.005   6.336
   70SBC   C0DX48796   1.414   3.101   6.236
   70SBC   C0DK48797   1.438   3.235   6.277
   70SBC   C0DJ48798   1.425   3.274   6.412
   70SBC   C0DI48799   1.454   3.404   6.453
   70SBC   C0DH48800   1.472   3.503   6.355
   70SBC   C0DG48801   1.478   3.469   6.221
   70SBC   C0BV48802   1.504   3.568   6.124
   70SBC   C0BC48803   1.523   3.528   5.992
   70SBC   C0BA48804   1.512   3.703   6.163
   70SBC   C0B448805   1.557   3.792   6.068
   70SBC   C0B348806   1.579   3.754   5.935
   70SBC   C0B548807   1.571   3.927   6.107
   70SBC   C0BU48808   1.542   3.964   6.245
   70SBC   C0BT48809   1.508   3.870   6.339
   70SBC   C0BS48810   1.488   3.905   6.475
   70SBC   C0CC48811   1.473   3.805   6.567
   70SBC   C0CB48812   1.479   3.837   6.700
   70SBC   C0CH48813   1.520   3.732   6.786
   70SBC   C0DO48814   1.501   3.592   6.751
   70SBC   C0DP48815   1.503   3.497   6.846
   70SBC   C0EA48816   1.535   3.530   6.985
   70SBC   H01248817   1.562   3.629   7.017
   70SBC   O00948818   1.512   3.441   7.086
   70SBC   C0EH48819   1.483   3.311   7.045
   70SBC   C0EG48820   1.474   3.224   7.151
   70SBC   C0EJ48821   1.488   3.233   7.296
   70SBC   H01048822   1.507   3.331   7.339
   70SBC   C0EK48823   1.492   3.096   7.356
   70SBC   H00Z48824   1.517   3.056   7.453
   70SBC   C0EL48825   1.473   3.017   7.238
   70SBC   C0EM48826   1.494   2.872   7.220
   70SBC   C0EW48827   1.516   2.767   7.320
   70SBC   H01348828   1.503   2.786   7.426
   70SBC   C0EX48829   1.548   2.627   7.283
   70SBC   H01448830   1.568   2.559   7.365
   70SBC   C0F148831   1.546   2.593   7.141
   70SBC   C0EU48832   1.523   2.694   7.048
   70SBC   C0ET48833   1.526   2.679   6.907
   70SBC   C0ES48834   1.500   2.807   6.862
   70SBC   C0EE48835   1.475   2.898   6.969
   70SBC   C0ED48836   1.465   3.039   6.989
   70SBC   C0EC48837   1.451   3.132   6.882
   70SBC   C0EB48838   1.427   3.101   6.748
   70SBC   C0EN48839   1.414   2.966   6.694
   70SBC   C0ER48840   1.380   2.944   6.562
   70SBC   C0DS48841   1.423   3.201   6.647
   70SBC   C0DR48842   1.445   3.333   6.679
   70SBC   C0EY48843   1.451   2.835   6.739
   70SBC   C0EZ48844   1.458   2.737   6.637
   70SBC   C0F548845   1.524   2.608   6.610
   70SBC   C0F648846   1.572   2.525   6.711
   70SBC   N00848847   1.638   2.404   6.666
   70SBC   C0F748848   1.667   2.380   6.526
   70SBC   C0FQ48849   1.735   2.260   6.502
   70SBC   H01848850   1.749   2.233   6.398
   70SBC   C0FP48851   1.765   2.162   6.597
   70SBC   H01948852   1.798   2.062   6.573
   70SBC   C0FO48853   1.729   2.186   6.730
   70SBC   H01A48854   1.740   2.106   6.803
   70SBC   C0F848855   1.622   2.471   6.432
   70SBC   C0F948856   1.666   2.305   6.766
   70SBC   C0FA48857   1.634   2.322   6.900
   70SBC   H01548858   1.663   2.247   6.972
   70SBC   C0FB48859   1.581   2.445   6.947
   70SBC   C0FD48860   1.558   2.547   6.851
   70SBC   C0FC48861   1.566   2.463   7.089
   70SBC   O00A48862   1.590   2.369   7.166
   70SBC   C0EV48863   1.486   2.823   7.087
   70SBC   C0EF48864   1.461   3.092   7.121
   70SBC   C0EI48865   1.461   3.271   6.912
   70SBC   C0DQ48866   1.468   3.368   6.814
   70SBC   C0CE48867   1.478   3.564   6.619
   70SBC   H00U48868   1.555   3.765   6.882
   70SBC   C0CA48869   1.438   3.965   6.747
   70SBC   C0C948870   1.446   4.076   6.649
   70SBC   C0C848871   1.398   4.209   6.681
   70SBC   C0C748872   1.424   4.342   6.634
   70SBC   C0C648873   1.352   4.440   6.695
   70SBC   C0C548874   1.367   4.584   6.727
   70SBC   C0CQ48875   1.298   4.629   6.843
   70SBC   C0D148876   1.257   4.539   6.940
   70SBC   C0D848877   1.286   4.593   7.063
   70SBC   C0D748878   1.295   4.728   7.041
   70SBC   C0D648879   1.310   4.832   7.133
   70SBC   C0D548880   1.296   4.969   7.106
   70SBC   C0D448881   1.306   5.041   6.982
   70SBC   C0D348882   1.372   5.165   7.016
   70SBC   C0CX48883   1.446   5.209   6.894
   70SBC   C0CW48884   1.454   5.091   6.804
   70SBC   C0CV48885   1.515   5.054   6.671
   70SBC   C0D248886   1.577   5.154   6.590
   70SBC   C09D48887   1.602   5.293   6.626
   70SBC   C09C48888   1.658   5.387   6.532
   70SBC   C09B48889   1.671   5.525   6.536
   70SBC   C09A48890   1.618   5.581   6.657
   70SBC   C09948891   1.592   5.503   6.766
   70SBC   C09848892   1.501   5.578   6.847
   70SBC   C08Y48893   1.470   5.701   6.772
   70SBC   C08X48894   1.369   5.802   6.798
   70SBC   C08W48895   1.267   5.777   6.900
   70SBC   C08U48896   1.247   5.658   6.986
   70SBC   C08V48897   1.303   5.525   6.985
   70SBC   C0DC48898   1.258   5.468   7.113
   70SBC   H00W48899   1.281   5.365   7.136
   70SBC   C0DB48900   1.174   5.559   7.182
   70SBC   H00X48901   1.128   5.534   7.277
   70SBC   C08T48902   1.163   5.671   7.098
   70SBC   C08S48903   1.081   5.777   7.121
   70SBC   H00N48904   1.017   5.771   7.208
   70SBC   C08R48905   1.080   5.881   7.034
   70SBC   C08Q48906   0.981   5.983   7.037
   70SBC   H00O48907   0.910   5.979   7.118
   70SBC   C08P48908   0.974   6.093   6.945
   70SBC   C08O48909   0.862   6.183   6.947
   70SBC   H00P48910   0.779   6.160   7.012
   70SBC   C08N48911   0.866   6.290   6.854
   70SBC   C08M48912   0.760   6.388   6.873
   70SBC   O00848913   0.678   6.372   6.961
   70SBC   O00748914   0.761   6.493   6.786
   70SBC   C08H48915   0.858   6.509   6.687
   70SBC   C08G48916   0.865   6.620   6.593
   70SBC   C03V48917   0.784   6.727   6.592
   70SBC   H00948918   0.714   6.729   6.674
   70SBC   C03U48919   0.790   6.825   6.494
   70SBC   C03W48920   0.718   6.952   6.495
   70SBC   H00A48921   0.652   6.973   6.577
   70SBC   C03X48922   0.745   7.041   6.400
   70SBC   H00B48923   0.712   7.144   6.411
   70SBC   O00548924   0.825   7.019   6.291
   70SBC   C03O48925   0.898   6.901   6.293
   70SBC   C03N48926   0.978   6.876   6.185
   70SBC   O00048927   0.953   6.957   6.076
   70SBC   C01948928   1.014   6.916   5.957
   70SBC   C01848929   1.119   6.821   5.952
   70SBC   C01748930   1.133   6.737   6.061
   70SBC   C01648931   1.226   6.634   6.062
   70SBC   C01548932   1.305   6.629   5.947
   70SBC   C01448933   1.406   6.533   5.944
   70SBC   C01348934   1.431   6.440   6.052
   70SBC   C01248935   1.541   6.358   5.996
   70SBC   C01148936   1.575   6.414   5.869
   70SBC   C01048937   1.675   6.363   5.785
   70SBC   C00Z48938   1.696   6.387   5.651
   70SBC   C00Y48939   1.769   6.272   5.613
   70SBC   C01O48940   1.791   6.181   5.713
   70SBC   C01P48941   1.798   6.045   5.690
   70SBC   C02L48942   1.787   5.969   5.799
   70SBC   C02K48943   1.733   6.032   5.917
   70SBC   C01M48944   1.684   6.165   5.934
   70SBC   C02J48945   1.724   5.935   6.024
   70SBC   C02I48946   1.694   5.958   6.156
   70SBC   C02H48947   1.629   6.069   6.214
   70SBC   C01Q48948   1.570   6.185   6.155
   70SBC   C02G48949   1.496   6.251   6.257
   70SBC   C08948950   1.530   6.191   6.383
   70SBC   C08848951   1.417   6.205   6.465
   70SBC   C08748952   1.335   6.304   6.400
   70SBC   C08648953   1.222   6.375   6.454
   70SBC   C03S48954   1.149   6.487   6.397
   70SBC   N00648955   1.056   6.517   6.494
   70SBC   C08F48956   1.062   6.431   6.596
   70SBC   C01J48957   1.153   6.569   6.283
   70SBC   C03R48958   1.062   6.673   6.283
   70SBC   C03Q48959   0.969   6.694   6.384
   70SBC   C08E48960   1.156   6.337   6.575
   70SBC   C08D48961   1.171   6.222   6.659
   70SBC   C08K48962   1.072   6.213   6.758
   70SBC   C08C48963   1.272   6.124   6.658
   70SBC   C09148964   1.273   6.017   6.751
   70SBC   C09248965   1.172   6.006   6.851
   70SBC   C08B48966   1.387   6.112   6.578
   70SBC   C09048967   1.449   5.977   6.613
   70SBC   C09448968   1.573   5.923   6.557
   70SBC   C09548969   1.601   5.788   6.568
   70SBC   C09R48970   1.667   5.745   6.459
   70SBC   C09748971   1.665   5.843   6.366
   70SBC   C09648972   1.616   5.956   6.432
   70SBC   C01I48973   1.391   6.344   6.267
   70SBC   C08A48974   1.594   6.070   6.352
   70SBC   C09L48975   1.715   5.843   6.232
   70SBC   C09K48976   1.767   5.741   6.146
   70SBC   C09J48977   1.762   5.608   6.177
   70SBC   C09I48978   1.770   5.499   6.084
   70SBC   C09O48979   1.786   5.482   5.942
   70SBC   C09N48980   1.801   5.594   5.848
   70SBC   C09M48981   1.791   5.732   5.877
   70SBC   C06O48982   1.814   5.551   5.717
   70SBC   C05M48983   1.837   5.415   5.681
   70SBC   C06P48984   1.813   5.311   5.775
   70SBC   C04248985   1.866   5.377   5.554
   70SBC   C04148986   1.876   5.474   5.454
   70SBC   C04048987   1.904   5.438   5.322
   70SBC   C03Z48988   1.911   5.525   5.220
   70SBC   C03Y48989   1.883   5.656   5.247
   70SBC   C02748990   1.875   5.751   5.141
   70SBC   C02648991   1.858   5.883   5.172
   70SBC   C02848992   1.841   5.976   5.069
   70SBC   C02948993   1.832   5.929   4.940
   70SBC   C02B48994   1.788   6.017   4.838
   70SBC   C02C48995   1.770   5.973   4.708
   70SBC   C02X48996   1.713   6.056   4.612
   70SBC   C03E48997   1.680   5.997   4.495
   70SBC   C03G48998   1.706   5.865   4.451
   70SBC   C04Q48999   1.755   5.786   4.551
   70SBC   C04R49000   1.779   5.656   4.525
   70SBC   C04S49001   1.826   5.572   4.621
   70SBC   C04L49002   1.846   5.620   4.749
   70SBC   C04M49003   1.832   5.755   4.774
   70SBC   C04K49004   1.883   5.536   4.850
   70SBC   C04F49005   1.912   5.405   4.815
   70SBC   C04E49006   1.902   5.358   4.686
   70SBC   C04D49007   1.918   5.222   4.661
   70SBC   C05049008   1.918   5.182   4.523
   70SBC   C05149009   1.934   5.043   4.494
   70SBC   C05Q49010   1.928   5.000   4.365
   70SBC   C05V49011   1.947   4.863   4.334
   70SBC   N00549012   1.970   4.827   4.201
   70SBC   C07V49013   1.939   4.912   4.100
   70SBC   C08249014   1.959   4.880   3.965
   70SBC   C08149015   2.007   4.757   3.929
   70SBC   C07C49016   2.037   4.671   4.031
   70SBC   C07B49017   2.093   4.541   4.001
   70SBC   C08049018   2.122   4.509   3.870
   70SBC   C07Z49019   2.171   4.380   3.848
   70SBC   H00L49020   2.190   4.351   3.746
   70SBC   C07949021   2.201   4.290   3.945
   70SBC   C07849022   2.172   4.328   4.075
   70SBC   C07749023   2.205   4.243   4.183
   70SBC   C07X49024   2.261   4.111   4.151
   70SBC   H00I49025   2.285   4.040   4.229
   70SBC   C07Y49026   2.293   4.071   4.024
   70SBC   H00H49027   2.347   3.980   4.004
   70SBC   C07649028   2.179   4.276   4.316
   70SBC   C06C49029   2.199   4.187   4.422
   70SBC   H00C49030   2.228   4.084   4.405
   70SBC   C06F49031   2.125   4.407   4.351
   70SBC   C06E49032   2.091   4.439   4.477
   70SBC   C06G49033   2.034   4.559   4.510
   70SBC   C06H49034   2.019   4.650   4.409
   70SBC   C06I49035   2.045   4.616   4.272
   70SBC   C06L49036   2.005   4.589   4.647
   70SBC   C06M49037   2.010   4.490   4.755
   70SBC   C06K49038   1.981   4.722   4.674
   70SBC   C05S49039   1.972   4.817   4.571
   70SBC   C05U49040   1.966   4.760   4.803
   70SBC   C05X49041   1.954   4.669   4.910
   70SBC   C05G49042   1.937   4.736   5.041
   70SBC   C05F49043   1.941   4.869   5.052
   70SBC   C05E49044   1.929   4.912   5.183
   70SBC   C04849045   1.933   5.044   5.227
   70SBC   C05649046   1.906   5.071   5.356
   70SBC   C04549047   1.899   5.208   5.392
   70SBC   C04749048   1.951   5.133   5.126
   70SBC   C04949049   1.969   5.088   4.992
   70SBC   C04B49050   1.959   5.179   4.889
   70SBC   C04649051   1.940   5.265   5.159
   70SBC   C04H49052   1.933   5.356   5.054
   70SBC   C05D49053   1.909   4.804   5.266
   70SBC   C04A49054   1.951   4.958   4.948
   70SBC   C05T49055   1.957   4.901   4.823
   70SBC   C05549056   1.956   4.997   4.728
   70SBC   C06D49057   2.116   4.351   4.580
   70SBC   C07W49058   2.101   4.493   4.241
   70SBC   C08549059   2.271   4.170   3.923
   70SBC   H00M49060   2.298   4.151   3.820
   70SBC   C08449061   2.089   4.595   3.762
   70SBC   H00J49062   2.100   4.567   3.658
   70SBC   C07A49063   2.123   4.454   4.106
   70SBC   C08349064   2.028   4.719   3.794
   70SBC   H00K49065   1.996   4.786   3.715
   70SBC   O00K49066   1.940   4.969   3.869
   70SBC   C0GO49067   1.873   5.085   3.900
   70SBC   C0GN49068   1.827   5.170   3.799
   70SBC   H01L49069   1.842   5.132   3.699
   70SBC   C0GM49070   1.751   5.281   3.835
   70SBC   C0GL49071   1.688   5.347   3.742
   70SBC   H01M49072   1.705   5.305   3.645
   70SBC   O00J49073   1.617   5.462   3.755
   70SBC   C0GK49074   1.624   5.514   3.884
   70SBC   H01N49075   1.577   5.611   3.888
   70SBC   C05K49076   1.686   5.446   3.992
   70SBC   C05J49077   1.707   5.511   4.122
   70SBC   C04Y49078   1.668   5.643   4.166
   70SBC   C04X49079   1.693   5.691   4.295
   70SBC   O00649080   1.605   5.727   4.077
   70SBC   C05349081   1.550   5.846   4.115
   70SBC   C04O49082   1.597   5.901   4.238
   70SBC   C03C49083   1.575   6.036   4.282
   70SBC   C03B49084   1.501   6.145   4.230
   70SBC   C05449085   1.412   6.144   4.121
   70SBC   C0GR49086   1.345   6.258   4.078
   70SBC   C03M49087   1.320   6.398   4.129
   70SBC   C03I49088   1.360   6.447   4.261
   70SBC   C03J49089   1.304   6.572   4.297
   70SBC   N00249090   1.331   6.631   4.426
   70SBC   C02U49091   1.273   6.749   4.474
   70SBC   C02T49092   1.291   6.799   4.599
   70SBC   C02Z49093   1.216   6.912   4.648
   70SBC   N00149094   1.219   6.945   4.787
   70SBC   C02R49095   1.136   7.059   4.829
   70SBC   C03249096   1.063   7.136   4.738
   70SBC   C03149097   1.067   7.097   4.601
   70SBC   H00749098   0.999   7.144   4.532
   70SBC   C03349099   0.980   7.242   4.794
   70SBC   H00349100   0.911   7.302   4.737
   70SBC   O00449101   0.974   7.277   4.923
   70SBC   C03449102   1.054   7.200   5.007
   70SBC   C03549103   1.061   7.235   5.142
   70SBC   C03649104   1.136   7.163   5.235
   70SBC   H00549105   1.151   7.203   5.334
   70SBC   C03749106   1.224   7.062   5.190
   70SBC   H00649107   1.296   7.018   5.257
   70SBC   C00D49108   1.218   7.020   5.054
   70SBC   C00C49109   1.302   6.919   5.008
   70SBC   C00B49110   1.392   6.843   5.101
   70SBC   C00A49111   1.421   6.824   5.245
   70SBC   C00949112   1.526   6.726   5.248
   70SBC   C00849113   1.564   6.637   5.349
   70SBC   C00749114   1.506   6.660   5.473
   70SBC   C00649115   1.545   6.580   5.584
   70SBC   C00549116   1.468   6.597   5.705
   70SBC   C00449117   1.360   6.687   5.714
   70SBC   C00349118   1.315   6.751   5.598
   70SBC   C00249119   1.197   6.829   5.601
   70SBC   C01C49120   1.131   6.848   5.716
   70SBC   C01B49121   1.029   6.950   5.726
   70SBC   H00049122   1.000   7.009   5.641
   70SBC   C00149123   1.135   6.851   5.478
   70SBC   C00049124   1.200   6.819   5.356
   70SBC   C01U49125   1.096   6.803   5.256
   70SBC   H00249126   1.098   6.780   5.150
   70SBC   C01T49127   0.971   6.848   5.322
   70SBC   O00249128   0.854   6.856   5.282
   70SBC   O00149129   1.000   6.870   5.453
   70SBC   C01S49130   1.389   6.732   5.479
   70SBC   C00N49131   1.645   6.527   5.318
   70SBC   C00M49132   1.679   6.496   5.186
   70SBC   C00J49133   1.631   6.576   5.081
   70SBC   C00I49134   1.618   6.535   4.952
   70SBC   C00H49135   1.548   6.606   4.858
   70SBC   C00G49136   1.476   6.718   4.893
   70SBC   C00F49137   1.385   6.780   4.818
   70SBC   C01X49138   1.527   6.559   4.733
   70SBC   C01W49139   1.580   6.433   4.701
   70SBC   C01V49140   1.658   6.362   4.796
   70SBC   C02049141   1.706   6.232   4.767
   70SBC   C01Z49142   1.558   6.384   4.576
   70SBC   C02Y49143   1.607   6.260   4.554
   70SBC   C03949144   1.580   6.206   4.430
   70SBC   C02W49145   1.478   6.447   4.479
   70SBC   C01Y49146   1.441   6.628   4.643
   70SBC   C00U49147   1.672   6.411   4.924
   70SBC   C00S49148   1.731   6.328   5.022
   70SBC   C00T49149   1.769   6.196   4.994
   70SBC   C00R49150   1.735   6.371   5.157
   70SBC   C00Q49151   1.764   6.286   5.259
   70SBC   C00V49152   1.800   6.149   5.228
   70SBC   C02449153   1.822   6.058   5.327
   70SBC   C00X49154   1.814   6.099   5.458
   70SBC   C00P49155   1.747   6.327   5.389
   70SBC   C00O49156   1.683   6.445   5.419
   70SBC   C00K49157   1.558   6.688   5.120
   70SBC   N00049158   1.339   6.788   5.354
   70SBC   C00L49159   1.479   6.752   5.033
   70SBC   H00449160   0.999   7.315   5.179
   70SBC   C02Q49161   1.132   7.088   4.959
   70SBC   C00E49162   1.306   6.882   4.872
   70SBC   C03049163   1.133   6.983   4.557
   70SBC   O00349164   1.122   6.931   4.425
   70SBC   C02S49165   1.373   6.735   4.686
   70SBC   C03849166   1.189   6.819   4.388
   70SBC   C03L49167   1.169   6.769   4.257
   70SBC   H00849168   1.103   6.821   4.189
   70SBC   C02V49169   1.419   6.569   4.516
   70SBC   C03K49170   1.221   6.648   4.213
   70SBC   C0BK49171   1.203   6.597   4.083
   70SBC   H00T49172   1.138   6.645   4.011
   70SBC   C03H49173   1.446   6.384   4.357
   70SBC   C0BL49174   1.245   6.474   4.038
   70SBC   C0GU49175   1.215   6.429   3.909
   70SBC   H01O49176   1.169   6.499   3.841
   70SBC   C0GT49177   1.235   6.302   3.860
   70SBC   H01P49178   1.214   6.279   3.757
   70SBC   C0GS49179   1.303   6.221   3.945
   70SBC   C0GV49180   1.343   6.086   3.907
   70SBC   C0GW49181   1.316   6.005   3.792
   70SBC   H01Q49182   1.267   6.033   3.700
   70SBC   C0GX49183   1.370   5.884   3.799
   70SBC   H01R49184   1.369   5.817   3.714
   70SBC   O00L49185   1.451   5.837   3.903
   70SBC   C0GQ49186   1.403   6.036   4.026
   70SBC   C03A49187   1.501   6.253   4.330
   70SBC   C05L49188   1.471   5.910   4.017
   70SBC   C04W49189   1.769   5.434   4.226
   70SBC   C05I49190   1.812   5.300   4.202
   70SBC   C05O49191   1.810   5.250   4.072
   70SBC   C05249192   1.874   5.224   4.297
   70SBC   C04V49193   1.788   5.481   4.356
   70SBC   C04U49194   1.846   5.398   4.456
   70SBC   N00949195   1.751   5.323   3.967
   70SBC   C0GP49196   1.866   5.132   4.037
   70SBC   C05W49197   1.899   5.040   4.134
   70SBC   C07D49198   2.022   4.701   4.168
   70SBC   C06J49199   1.977   4.775   4.441
   70SBC   C05P49200   1.898   5.090   4.265
   70SBC   C05R49201   1.956   4.951   4.596
   70SBC   C04Z49202   1.881   5.270   4.424
   70SBC   C04C49203   1.945   5.132   4.761
   70SBC   C04G49204   1.938   5.313   4.922
   70SBC   C04J49205   1.897   5.576   4.983
   70SBC   C04T49206   1.859   5.444   4.588
   70SBC   N00349207   1.755   5.610   4.390
   70SBC   C04P49208   1.663   5.823   4.329
   70SBC   C03D49209   1.614   6.073   4.405
   70SBC   C02149210   1.680   6.185   4.640
   70SBC   C03F49211   1.789   5.839   4.675
   70SBC   C02249212   1.758   6.150   4.864
   70SBC   C02A49213   1.854   5.798   4.906
   70SBC   C02349214   1.807   6.111   5.099
   70SBC   C02549215   1.843   5.922   5.306
   70SBC   C02D49216   1.841   5.829   5.404
   70SBC   C02E49217   1.828   5.871   5.539
   70SBC   C02N49218   1.820   5.781   5.645
   70SBC   C04N49219   1.884   5.710   5.009
   70SBC   C02P49220   1.864   5.696   5.377
   70SBC   C04I49221   1.919   5.486   5.087
   70SBC   C04449222   1.921   5.301   5.293
   70SBC   C04349223   1.852   5.606   5.484
   70SBC   C05N49224   1.824   5.648   5.615
   70SBC   C09U49225   1.785   5.346   5.905
   70SBC   C09V49226   1.761   5.239   5.998
   70SBC   C09X49227   1.741   5.262   6.136
   70SBC   C09Y49228   1.702   5.170   6.232
   70SBC   C0A149229   1.699   5.039   6.194
   70SBC   C0A249230   1.731   5.009   6.058
   70SBC   C0A449231   1.732   4.877   6.020
   70SBC   C07149232   1.769   4.840   5.888
   70SBC   C0A549233   1.761   4.707   5.855
   70SBC   C0A949234   1.726   4.610   5.948
   70SBC   C0A849235   1.696   4.645   6.076
   70SBC   C0AP49236   1.665   4.552   6.166
   70SBC   C0BY49237   1.639   4.588   6.295
   70SBC   C0BX49238   1.616   4.717   6.336
   70SBC   C0C249239   1.563   4.749   6.463
   70SBC   C0C349240   1.551   4.881   6.502
   70SBC   C0CT49241   1.604   4.979   6.414
   70SBC   C0C149242   1.511   4.644   6.543
   70SBC   C0C049243   1.547   4.507   6.507
   70SBC   C0A749244   1.652   4.815   6.246
   70SBC   C0BZ49245   1.603   4.486   6.382
   70SBC   C0BO49246   1.615   4.355   6.350
   70SBC   C0BN49247   1.631   4.318   6.219
   70SBC   C0BM49248   1.603   4.188   6.190
   70SBC   C0B949249   1.624   4.152   6.058
   70SBC   C0B849250   1.668   4.245   5.966
   70SBC   C0AD49251   1.680   4.380   6.004
   70SBC   C0AF49252   1.700   4.204   5.840
   70SBC   C0AG49253   1.684   4.076   5.787
   70SBC   C0B749254   1.642   3.980   5.880
   70SBC   C0AE49255   1.743   4.305   5.759
   70SBC   C0AB49256   1.755   4.434   5.785
   70SBC   C0AA49257   1.802   4.533   5.696
   70SBC   C0AJ49258   1.773   4.264   5.629
   70SBC   C0AK49259   1.812   4.359   5.539
   70SBC   C06W49260   1.818   4.295   5.421
   70SBC   C0AI49261   1.762   4.136   5.570
   70SBC   C0BP49262   1.568   4.268   6.453
   70SBC   C0BQ49263   1.534   4.137   6.418
   70SBC   C0BW49264   1.654   4.420   6.132
   70SBC   C0AC49265   1.722   4.473   5.912
   70SBC   C0A649266   1.692   4.781   6.114
   70SBC   C0A349267   1.654   4.946   6.284
   70SBC   C09Z49268   1.668   5.201   6.368
   70SBC   C09W49269   1.757   5.109   5.961
   70SBC   C07249270   1.792   5.076   5.830
   70SBC   C09H49271   1.752   5.390   6.176
   70SBC   C09G49272   1.732   5.419   6.306
   70SBC   C09P49273   1.732   5.553   6.306
   70SBC   C02O49274   1.763   5.793   6.013
   70SBC   C02M49275   1.792   5.827   5.774
   70SBC   C02F49276   1.819   6.007   5.562
   70SBC   C00W49277   1.784   6.233   5.481
   70SBC   C01R49278   1.643   6.476   5.551
   70SBC   C01N49279   1.723   6.236   5.821
   70SBC   C01L49280   1.595   6.228   6.030
   70SBC   C01H49281   1.345   6.436   6.169
   70SBC   C01K49282   1.492   6.520   5.828
   70SBC   C01E49283   1.287   6.701   5.832
   70SBC   C01G49284   1.245   6.547   6.176
   70SBC   C01D49285   1.181   6.792   5.831
   70SBC   C01A49286   0.969   6.987   5.847
   70SBC   H00149287   0.893   7.064   5.853
   70SBC   C01F49288   1.061   6.764   6.179
   70SBC   C03P49289   0.880   6.802   6.389
   70SBC   C03T49290   0.960   6.610   6.489
   70SBC   C08I49291   0.972   6.418   6.694
   70SBC   C08J49292   0.970   6.304   6.768
   70SBC   C08L49293   1.075   6.104   6.849
   70SBC   C09349294   1.176   5.888   6.927
   70SBC   C08Z49295   1.371   5.919   6.725
   70SBC   C09T49296   1.415   5.476   6.898
   70SBC   C09S49297   1.562   5.699   6.670
   70SBC   C09Q49298   1.694   5.614   6.427
   70SBC   C09F49299   1.690   5.330   6.410
   70SBC   C09E49300   1.555   5.369   6.740
   70SBC   C0A049301   1.617   5.115   6.459
   70SBC   C0CU49302   1.501   4.917   6.631
   70SBC   C0CR49303   1.448   4.818   6.708
   70SBC   C0CZ49304   1.388   4.854   6.832
   70SBC   C0DA49305   1.463   5.341   6.848
   70SBC   C0D949306   1.431   5.160   7.148
   70SBC   H00V49307   1.518   5.205   7.193
   70SBC   C0CY49308   1.378   4.989   6.871
   70SBC   C0DF49309   1.378   5.039   7.202
   70SBC   C0DE49310   1.408   4.947   7.307
   70SBC   C0GI49311   1.470   4.962   7.428
   70SBC   H01K49312   1.500   5.062   7.457
   70SBC   C0GJ49313   1.477   4.853   7.510
   70SBC   H01J49314   1.516   4.868   7.610
   70SBC   O00I49315   1.450   4.722   7.468
   70SBC   C0GH49316   1.392   4.698   7.343
   70SBC   C0GG49317   1.372   4.557   7.303
   70SBC   O00G49318   1.414   4.465   7.390
   70SBC   C0G849319   1.388   4.331   7.379
   70SBC   C0G949320   1.406   4.248   7.491
   70SBC   H01G49321   1.425   4.286   7.590
   70SBC   C0GA49322   1.395   4.110   7.478
   70SBC   H01H49323   1.413   4.055   7.569
   70SBC   C0GB49324   1.377   4.047   7.355
   70SBC   C0EP49325   1.374   4.133   7.241
   70SBC   C0E849326   1.381   4.062   7.110
   70SBC   C0CK49327   1.397   4.092   6.974
   70SBC   C0CL49328   1.341   4.209   6.927
   70SBC   C0E949329   1.317   4.324   7.008
   70SBC   C0GE49330   1.344   4.368   7.147
   70SBC   C0E749331   1.349   3.927   7.106
   70SBC   C0CJ49332   1.336   3.875   6.977
   70SBC   C0E649333   1.293   3.740   6.967
   70SBC   H00Y49334   1.289   3.690   6.871
   70SBC   C0EO49335   1.282   3.661   7.081
   70SBC   H01149336   1.252   3.560   7.061
   70SBC   C0G649337   1.314   3.713   7.207
   70SBC   C0G549338   1.316   3.630   7.330
   70SBC   H01F49339   1.298   3.524   7.333
   70SBC   C0GD49340   1.341   3.688   7.448
   70SBC   H01I49341   1.343   3.620   7.531
   70SBC   O00H49342   1.361   3.821   7.459
   70SBC   C0EQ49343   1.333   3.851   7.228
   70SBC   C0GC49344   1.359   3.904   7.350
   70SBC   C0G749345   1.370   4.276   7.251
   70SBC   C0DD49346   1.365   4.816   7.266
   70SBC   C0GF49347   1.324   4.508   7.178
   70SBC   C0CO49348   1.264   4.409   6.914
   70SBC   C0D049349   1.334   4.745   6.907
   70SBC   C0C449350   1.445   4.681   6.662
   70SBC   C0CN49351   1.266   4.364   6.780
   70SBC   C0CP49352   1.529   4.370   6.552
   70SBC   C0CM49353   1.298   4.224   6.787
   70SBC   C0CI49354   1.394   3.973   6.888
   70SBC   C0CD49355   1.481   3.669   6.530
   70SBC   C0BR49356   1.490   4.042   6.514
   70SBC   C0CS49357   1.558   4.098   6.284
   70SBC   C0B649358   1.607   4.019   6.014
   70SBC   C0CG49359   1.505   3.734   6.298
   70SBC   C0CF49360   1.488   3.636   6.397
   70SBC   C0E549361   1.455   3.433   6.584
   70SBC   C0DT49362   1.407   3.174   6.508
   70SBC   C0DL49363   1.459   3.333   6.184
   70SBC   C0DM49364   1.469   3.301   6.052
   70SBC   C0DY49365   1.435   3.067   6.105
   70SBC   C0DU49366   1.392   3.046   6.465
   70SBC   C0F049367   1.413   2.813   6.526
   70SBC   C0F449368   1.542   2.577   6.476
   70SBC   C0FG49369   1.465   2.710   6.145
   70SBC   O00B49370   1.667   2.456   6.301
   70SBC   C0FN49371   1.524   2.669   6.033
   70SBC   C0DZ49372   1.447   2.933   6.067
   70SBC   O00C49373   1.559   2.971   5.722
   70SBC   C0FR49374   1.566   3.049   5.620
   70SBC   O00D49375   1.608   3.003   5.517
   70SBC   C0E049376   1.471   3.168   6.016
   70SBC   C0E349377   1.541   3.188   5.648
   70SBC   C0AW49378   1.547   3.289   5.555
   70SBC   C0AV49379   1.546   3.271   5.413
   70SBC   H00Q49380   1.536   3.175   5.363
   70SBC   C0AU49381   1.573   3.373   5.321
   70SBC   H00R49382   1.591   3.354   5.216
   70SBC   C0AT49383   1.606   3.502   5.370
   70SBC   C0AS49384   1.676   3.621   5.327
   70SBC   C0AR49385   1.751   3.629   5.207
   70SBC   C0BE49386   1.582   3.519   5.508
   70SBC   C0DN49387   1.506   3.394   5.958
   70SBC   C0AX49388   1.550   3.417   5.602
   70SBC   C0BB49389   1.557   3.625   5.901
   70SBC   C0BD49390   1.628   3.643   5.544
   70SBC   C0B249391   1.630   3.847   5.841
   70SBC   C0AH49392   1.707   4.033   5.651
   70SBC   C0BF49393   1.683   3.715   5.439
   70SBC   C0AL49394   1.810   4.158   5.435
   70SBC   C07U49395   1.807   3.881   5.208
   70SBC   C0AQ49396   1.787   3.755   5.152
   70SBC   C0BG49397   1.744   3.538   5.094
   70SBC   C0FY49398   1.934   3.563   4.795
   70SBC   C0BJ49399   1.803   3.404   5.074
   70SBC   H00S49400   1.826   3.336   5.154
   70SBC   C0FZ49401   2.005   3.446   4.776
   70SBC   C07S49402   2.000   3.685   4.777
   70SBC   C0G149403   2.283   3.548   4.574
   70SBC   C07K49404   2.392   3.894   4.578
   70SBC   C07H49405   2.151   3.925   4.728
   70SBC   C06B49406   2.166   4.228   4.550
   70SBC   C06N49407   2.057   4.364   4.707
   70SBC   C06649408   1.987   4.034   4.898
   70SBC   C06249409   1.901   4.230   5.128
   70SBC   C05Y49410   1.968   4.525   4.884
   70SBC   C06149411   1.825   4.342   5.183
   70SBC   C05H49412   1.917   4.691   5.179
   70SBC   C06V49413   1.831   4.381   5.316
   70SBC   C06Y49414   1.826   4.501   5.566
   70SBC   C05C49415   1.883   4.833   5.409
   70SBC   C06Z49416   1.803   4.668   5.725
   70SBC   C07049417   1.796   4.938   5.797
   70SBC   C05B49418   1.889   4.968   5.447
   70SBC   C05749419   1.872   5.242   5.517
   70SBC   C05949420   1.821   5.180   5.740
   71SBC   C05849421   2.508   9.885   5.483
   71SBC   C05A49422   2.457   9.764   5.515
   71SBC   C06Q49423   2.510   9.650   5.454
   71SBC   C06R49424   2.455   9.521   5.489
   71SBC   C06S49425   2.355   9.507   5.590
   71SBC   C06T49426   2.325   9.376   5.633
   71SBC   C06U49427   2.247   9.327   5.748
   71SBC   C06X49428   2.164   9.391   5.847
   71SBC   C06049429   2.130   9.299   5.953
   71SBC   C05Z49430   1.991   9.285   5.999
   71SBC   C06849431   1.961   9.141   5.997
   71SBC   C06749432   1.832   9.074   6.038
   71SBC   C06949433   1.730   9.147   6.109
   71SBC   C06A49434   1.590   9.109   6.137
   71SBC   C07349435   1.495   9.021   6.075
   71SBC   C07P49436   1.358   9.063   6.060
   71SBC   C07O49437   1.298   9.189   6.093
   71SBC   H00D49438   1.352   9.268   6.143
   71SBC   C07N49439   1.170   9.228   6.060
   71SBC   H00E49440   1.130   9.326   6.080
   71SBC   C07M49441   1.090   9.129   5.992
   71SBC   H00F49442   0.984   9.143   5.976
   71SBC   C07L49443   1.143   9.009   5.951
   71SBC   C07Q49444   1.063   8.912   5.879
   71SBC   H00G49445   0.964   8.938   5.847
   71SBC   O00F49446   1.124   8.798   5.824
   71SBC   C07J49447   1.245   8.766   5.866
   71SBC   C07I49448   1.324   8.850   5.947
   71SBC   N00449449   1.451   8.806   5.988
   71SBC   C07R49450   1.489   8.665   5.974
   71SBC   C07T49451   1.404   8.588   5.895
   71SBC   C0FX49452   1.443   8.462   5.850
   71SBC   C0FW49453   1.392   8.394   5.739
   71SBC   C0G049454   1.272   8.449   5.681
   71SBC   C0G249455   1.213   8.384   5.572
   71SBC   H01E49456   1.119   8.421   5.532
   71SBC   C0G349457   1.270   8.269   5.523
   71SBC   H01C49458   1.217   8.216   5.445
   71SBC   C0G449459   1.389   8.219   5.574
   71SBC   H01D49460   1.425   8.127   5.531
   71SBC   O00E49461   1.214   8.555   5.741
   71SBC   C0FV49462   1.454   8.279   5.682
   71SBC   C0FU49463   1.574   8.234   5.741
   71SBC   H01B49464   1.628   8.146   5.708
   71SBC   C0FT49465   1.624   8.297   5.856
   71SBC   C0FS49466   1.747   8.298   5.925
   71SBC   C0BI49467   1.744   8.399   6.030
   71SBC   C0BH49468   1.879   8.445   6.056
   71SBC   C07F49469   1.924   8.580   6.028
   71SBC   C07E49470   1.852   8.698   6.040
   71SBC   C07G49471   1.712   8.712   6.047
   71SBC   C07449472   1.683   8.848   6.040
   71SBC   C06549473   1.905   8.822   6.011
   71SBC   C06449474   2.029   8.823   5.943
   71SBC   C06349475   2.092   8.931   5.887
   71SBC   C07549476   2.195   8.872   5.797
   71SBC   C0AM49477   2.200   8.730   5.808
   71SBC   C0AN49478   2.302   8.637   5.744
   71SBC   C0AO49479   2.410   8.657   5.636
   71SBC   C0B149480   2.492   8.547   5.591
   71SBC   C0B049481   2.476   8.418   5.633
   71SBC   C0AZ49482   2.553   8.312   5.593
   71SBC   C0AY49483   2.526   8.181   5.647
   71SBC   N00749484   2.595   8.073   5.593
   71SBC   C0E249485   2.542   7.943   5.628
   71SBC   C0E149486   2.610   7.836   5.573
   71SBC   C0E449487   2.561   7.708   5.596
   71SBC   C0FF49488   2.618   7.591   5.546
   71SBC   C0FJ49489   2.570   7.453   5.538
   71SBC   C0FK49490   2.433   7.432   5.497
   71SBC   H01649491   2.348   7.498   5.497
   71SBC   C0FL49492   2.440   7.309   5.425
   71SBC   H01749493   2.367   7.261   5.362
   71SBC   C0FM49494   2.574   7.247   5.432
   71SBC   C0FH49495   2.669   7.195   5.331
   71SBC   C0FI49496   2.788   7.269   5.343
   71SBC   C0F349497   2.844   7.301   5.218
   71SBC   C0F249498   2.914   7.417   5.228
   71SBC   C0DW49499   2.899   7.521   5.317
   71SBC   C0FE49500   2.809   7.509   5.418
   71SBC   C0DV49501   2.934   7.652   5.283
   71SBC   C0DX49502   2.887   7.761   5.345
   71SBC   C0DK49503   2.922   7.888   5.298
   71SBC   C0DJ49504   3.003   7.906   5.190
   71SBC   C0DI49505   3.045   8.039   5.150
   71SBC   C0DH49506   2.993   8.146   5.216
   71SBC   C0DG49507   2.888   8.132   5.311
   71SBC   C0BV49508   2.827   8.240   5.367
   71SBC   C0BC49509   2.724   8.222   5.463
   71SBC   C0BA49510   2.866   8.364   5.326
   71SBC   C0B449511   2.795   8.475   5.371
   71SBC   C0B349512   2.686   8.462   5.462
   71SBC   C0B549513   2.823   8.602   5.321
   71SBC   C0BU49514   2.930   8.620   5.229
   71SBC   C0BT49515   3.004   8.507   5.188
   71SBC   C0BS49516   3.115   8.528   5.103
   71SBC   C0CC49517   3.172   8.413   5.044
   71SBC   C0CB49518   3.275   8.426   4.949
   71SBC   C0CH49519   3.278   8.321   4.852
   71SBC   C0DO49520   3.232   8.192   4.881
   71SBC   C0DP49521   3.260   8.076   4.803
   71SBC   C0EA49522   3.323   8.088   4.680
   71SBC   H01249523   3.360   8.185   4.651
   71SBC   O00949524   3.337   7.988   4.587
   71SBC   C0EH49525   3.303   7.868   4.631
   71SBC   C0EG49526   3.313   7.774   4.532
   71SBC   C0EJ49527   3.369   7.771   4.392
   71SBC   H01049528   3.427   7.850   4.345
   71SBC   C0EK49529   3.352   7.636   4.336
   71SBC   H00Z49530   3.383   7.597   4.240
   71SBC   C0EL49531   3.289   7.567   4.440
   71SBC   C0EM49532   3.252   7.431   4.457
   71SBC   C0EW49533   3.258   7.329   4.356
   71SBC   H01349534   3.297   7.341   4.256
   71SBC   C0EX49535   3.209   7.194   4.382
   71SBC   H01449536   3.207   7.117   4.306
   71SBC   C0F149537   3.146   7.173   4.511
   71SBC   C0EU49538   3.146   7.271   4.607
   71SBC   C0ET49539   3.079   7.262   4.732
   71SBC   C0ES49540   3.105   7.391   4.787
   71SBC   C0EE49541   3.170   7.478   4.695
   71SBC   C0ED49542   3.217   7.609   4.681
   71SBC   C0EC49543   3.200   7.709   4.781
   71SBC   C0EB49544   3.145   7.695   4.916
   71SBC   C0EN49545   3.102   7.564   4.966
   71SBC   C0ER49546   3.043   7.563   5.092
   71SBC   C0DS49547   3.120   7.804   5.004
   71SBC   C0DR49548   3.158   7.935   4.964
   71SBC   C0EY49549   3.086   7.426   4.921
   71SBC   C0EZ49550   3.013   7.344   5.013
   71SBC   C0F549551   2.931   7.222   5.005
   71SBC   C0F649552   2.934   7.134   4.895
   71SBC   N00849553   2.859   7.012   4.923
   71SBC   C0F749554   2.774   6.991   5.044
   71SBC   C0FQ49555   2.712   6.871   5.057
   71SBC   H01849556   2.648   6.850   5.141
   71SBC   C0FP49557   2.725   6.767   4.968
   71SBC   H01949558   2.692   6.664   4.974
   71SBC   C0FO49559   2.794   6.787   4.849
   71SBC   H01A49560   2.799   6.707   4.776
   71SBC   C0F849561   2.756   7.098   5.128
   71SBC   C0F949562   2.865   6.909   4.824
   71SBC   C0FA49563   2.939   6.927   4.703
   71SBC   H01549564   2.938   6.853   4.624
   71SBC   C0FB49565   3.018   7.039   4.679
   71SBC   C0FD49566   3.009   7.143   4.773
   71SBC   C0FC49567   3.074   7.056   4.546
   71SBC   O00A49568   3.054   6.971   4.461
   71SBC   C0EV49569   3.197   7.396   4.583
   71SBC   C0EF49570   3.269   7.648   4.557
   71SBC   C0EI49571   3.241   7.837   4.753
   71SBC   C0DQ49572   3.220   7.944   4.844
   71SBC   C0CE49573   3.166   8.175   4.999
   71SBC   H00U49574   3.335   8.336   4.761
   71SBC   C0CA49575   3.354   8.547   4.950
   71SBC   C0C949576   3.295   8.668   5.006
   71SBC   C0C849577   3.376   8.786   5.020
   71SBC   C0C749578   3.334   8.927   5.024
   71SBC   C0C649579   3.447   9.016   5.016
   71SBC   C0C549580   3.477   9.152   4.979
   71SBC   C0CQ49581   3.607   9.184   4.945
   71SBC   C0D149582   3.684   9.077   4.898
   71SBC   C0D849583   3.758   9.111   4.789
   71SBC   C0D749584   3.756   9.257   4.795
   71SBC   C0D649585   3.809   9.335   4.691
   71SBC   C0D549586   3.811   9.478   4.694
   71SBC   C0D449587   3.727   9.572   4.761
   71SBC   C0D349588   3.707   9.685   4.676
   71SBC   C0CX49589   3.579   9.743   4.711
   71SBC   C0CW49590   3.507   9.643   4.794
   71SBC   C0CV49591   3.372   9.634   4.859
   71SBC   C0D249592   3.284   9.744   4.873
   71SBC   C09D49593   3.301   9.877   4.818
   71SBC   C09C49594   3.216   9.982   4.851
   71SBC   C09B49595   3.219  10.115   4.805
   71SBC   C09A49596   3.321  10.144   4.717
   71SBC   C09949597   3.399  10.047   4.669
   71SBC   C09849598   3.514  10.107   4.619
   71SBC   C08Y49599   3.505  10.253   4.647
   71SBC   C08X49600   3.608  10.353   4.648
   71SBC   C08W49601   3.741  10.320   4.596
   71SBC   C08U49602   3.795  10.183   4.572
   71SBC   C08V49603   3.749  10.049   4.601
   71SBC   C0DC49604   3.860   9.971   4.546
   71SBC   H00W49605   3.860   9.863   4.558
   71SBC   C0DB49606   3.960  10.045   4.482
   71SBC   H00X49607   4.046  10.001   4.433
   71SBC   C08T49608   3.923  10.181   4.505
   71SBC   C08S49609   3.992  10.296   4.463
   71SBC   H00N49610   4.080  10.281   4.402
   71SBC   C08R49611   3.965  10.421   4.522
   71SBC   C08Q49612   4.045  10.529   4.514
   71SBC   H00O49613   4.136  10.507   4.460
   71SBC   C08P49614   4.014  10.656   4.576
   71SBC   C08O49615   4.109  10.762   4.581
   71SBC   H00P49616   4.209  10.744   4.544
   71SBC   C08N49617   4.083  10.881   4.642
   71SBC   C08M49618   4.182  10.988   4.640
   71SBC   O00849619   4.285  10.984   4.576
   71SBC   O00749620   4.154  11.096   4.721
   71SBC   C08H49621   4.036  11.106   4.792
   71SBC   C08G49622   4.013  11.207   4.891
   71SBC   C03V49623   4.110  11.304   4.929
   71SBC   H00949624   4.207  11.302   4.882
   71SBC   C03U49625   4.083  11.399   5.032
   71SBC   C03W49626   4.167  11.514   5.071
   71SBC   H00A49627   4.262  11.532   5.023
   71SBC   C03X49628   4.122  11.597   5.164
   71SBC   H00B49629   4.173  11.688   5.192
   71SBC   O00549630   4.001  11.587   5.225
   71SBC   C03O49631   3.929  11.473   5.197
   71SBC   C03N49632   3.812  11.460   5.273
   71SBC   O00049633   3.787  11.557   5.362
   71SBC   C01949634   3.696  11.521   5.452
   71SBC   C01849635   3.590  11.430   5.424
   71SBC   C01749636   3.601  11.352   5.307
   71SBC   C01649637   3.503  11.258   5.274
   71SBC   C01549638   3.382  11.271   5.348
   71SBC   C01449639   3.269  11.197   5.310
   71SBC   C01349640   3.290  11.090   5.216
   71SBC   C01249641   3.165  11.012   5.236
   71SBC   C01149642   3.085  11.092   5.328
   71SBC   C01049643   2.965  11.050   5.377
   71SBC   C00Z49644   2.885  11.096   5.484
   71SBC   C00Y49645   2.799  10.987   5.503
   71SBC   C01O49646   2.820  10.891   5.408
   71SBC   C01P49647   2.780  10.757   5.429
   71SBC   C02L49648   2.827  10.668   5.341
   71SBC   C02K49649   2.926  10.705   5.248
   71SBC   C01M49650   2.988  10.837   5.244
   71SBC   C02J49651   2.960  10.604   5.160
   71SBC   C02I49652   3.052  10.610   5.052
   71SBC   C02H49653   3.143  10.708   5.015
   71SBC   C01Q49654   3.173  10.826   5.070
   71SBC   C02G49655   3.293  10.880   5.015
   71SBC   C08949656   3.317  10.796   4.899
   71SBC   C08849657   3.449  10.798   4.863
   71SBC   C08749658   3.498  10.915   4.940
   71SBC   C08649659   3.629  10.976   4.930
   71SBC   C03S49660   3.679  11.094   4.988
   71SBC   N00649661   3.802  11.114   4.933
   71SBC   C08F49662   3.822  11.018   4.841
   71SBC   C01J49663   3.647  11.179   5.096
   71SBC   C03R49664   3.740  11.280   5.133
   71SBC   C03Q49665   3.865  11.288   5.065
   71SBC   C08E49666   3.723  10.926   4.835
   71SBC   C08D49667   3.734  10.809   4.762
   71SBC   C08K49668   3.859  10.790   4.700
   71SBC   C08C49669   3.648  10.701   4.750
   71SBC   C09149670   3.687  10.575   4.690
   71SBC   C09249671   3.817  10.553   4.637
   71SBC   C08B49672   3.512  10.689   4.791
   71SBC   C09049673   3.466  10.559   4.752
   71SBC   C09449674   3.333  10.513   4.763
   71SBC   C09549675   3.302  10.379   4.749
   71SBC   C09R49676   3.187  10.352   4.819
   71SBC   C09749677   3.145  10.466   4.881
   71SBC   C09649678   3.236  10.568   4.846
   71SBC   C01I49679   3.404  10.965   5.040
   71SBC   C08A49680   3.229  10.688   4.910
   71SBC   C09L49681   3.053  10.485   4.988
   71SBC   C09K49682   2.956  10.401   5.052
   71SBC   C09J49683   2.958  10.263   5.039
   71SBC   C09I49684   2.895  10.165   5.125
   71SBC   C09O49685   2.808  10.169   5.232
   71SBC   C09N49686   2.770  10.290   5.296
   71SBC   C09M49687   2.817  10.423   5.268
   71SBC   C06O49688   2.675  10.267   5.400
   71SBC   C05M49689   2.619  10.140   5.425
   71SBC   C06P49690   2.660  10.024   5.360
   71SBC   C04249691   2.523  10.122   5.525
   71SBC   C04149692   2.488  10.232   5.605
   71SBC   C04049693   2.398  10.216   5.713
   71SBC   C03Z49694   2.369  10.317   5.806
   71SBC   C03Y49695   2.431  10.440   5.789
   71SBC   C02749696   2.412  10.540   5.885
   71SBC   C02649697   2.464  10.662   5.865
   71SBC   C02849698   2.442  10.765   5.957
   71SBC   C02949699   2.378  10.735   6.078
   71SBC   C02B49700   2.387  10.823   6.181
   71SBC   C02C49701   2.341  10.788   6.303
   71SBC   C02X49702   2.348  10.874   6.411
   71SBC   C03E49703   2.308  10.833   6.532
   71SBC   C03G49704   2.250  10.713   6.564
   71SBC   C04Q49705   2.235  10.630   6.455
   71SBC   C04R49706   2.174  10.506   6.467
   71SBC   C04S49707   2.168  10.412   6.367
   71SBC   C04L49708   2.219  10.447   6.244
   71SBC   C04M49709   2.278  10.570   6.228
   71SBC   C04K49710   2.216  10.358   6.142
   71SBC   C04F49711   2.157  10.238   6.161
   71SBC   C04E49712   2.113  10.199   6.283
   71SBC   C04D49713   2.053  10.075   6.300
   71SBC   C05049714   1.992  10.039   6.420
   71SBC   C05149715   1.919   9.920   6.437
   71SBC   C05Q49716   1.865   9.893   6.559
   71SBC   C05V49717   1.793   9.774   6.569
   71SBC   N00549718   1.708   9.751   6.683
   71SBC   C07V49719   1.715   9.847   6.788
   71SBC   C08249720   1.640   9.818   6.904
   71SBC   C08149721   1.545   9.710   6.910
   71SBC   C07C49722   1.540   9.619   6.804
   71SBC   C07B49723   1.455   9.510   6.803
   71SBC   C08049724   1.370   9.486   6.908
   71SBC   C07Z49725   1.285   9.373   6.902
   71SBC   H00L49726   1.216   9.368   6.985
   71SBC   C07949727   1.277   9.282   6.799
   71SBC   C07849728   1.365   9.310   6.692
   71SBC   C07749729   1.359   9.223   6.578
   71SBC   C07X49730   1.268   9.115   6.570
   71SBC   H00I49731   1.262   9.046   6.488
   71SBC   C07Y49732   1.173   9.095   6.679
   71SBC   H00H49733   1.107   9.010   6.673
   71SBC   C07649734   1.447   9.244   6.471
   71SBC   C06C49735   1.447   9.153   6.358
   71SBC   H00C49736   1.385   9.068   6.336
   71SBC   C06F49737   1.532   9.352   6.480
   71SBC   C06E49738   1.633   9.368   6.385
   71SBC   C06G49739   1.717   9.475   6.372
   71SBC   C06H49740   1.711   9.565   6.477
   71SBC   C06I49741   1.629   9.544   6.589
   71SBC   C06L49742   1.805   9.488   6.260
   71SBC   C06M49743   1.823   9.382   6.162
   71SBC   C06K49744   1.874   9.608   6.244
   71SBC   C05S49745   1.864   9.703   6.350
   71SBC   C05U49746   1.938   9.641   6.127
   71SBC   C05X49747   1.968   9.539   6.035
   71SBC   C05G49748   2.045   9.581   5.921
   71SBC   C05F49749   2.085   9.714   5.905
   71SBC   C05E49750   2.163   9.736   5.800
   71SBC   C04849751   2.224   9.859   5.783
   71SBC   C05649752   2.314   9.864   5.677
   71SBC   C04549753   2.371   9.984   5.653
   71SBC   C04749754   2.188   9.959   5.865
   71SBC   C04949755   2.113   9.933   5.975
   71SBC   C04B49756   2.104  10.024   6.075
   71SBC   C04649757   2.248  10.079   5.843
   71SBC   C04H49758   2.228  10.176   5.941
   71SBC   C05D49759   2.192   9.617   5.740
   71SBC   C04A49760   2.059   9.811   6.003
   71SBC   C05T49761   1.989   9.769   6.114
   71SBC   C05549762   1.986   9.856   6.218
   71SBC   C06D49763   1.640   9.271   6.280
   71SBC   C07W49764   1.542   9.438   6.588
   71SBC   C08549765   1.180   9.181   6.792
   71SBC   H00M49766   1.126   9.166   6.884
   71SBC   C08449767   1.372   9.578   7.009
   71SBC   H00J49768   1.301   9.565   7.089
   71SBC   C07A49769   1.455   9.417   6.695
   71SBC   C08349770   1.457   9.686   7.014
   71SBC   H00K49771   1.465   9.755   7.096
   71SBC   O00K49772   1.647   9.910   7.009
   71SBC   C0GO49773   1.722  10.024   7.001
   71SBC   C0GN49774   1.731  10.109   7.108
   71SBC   H01L49775   1.674  10.072   7.191
   71SBC   C0GM49776   1.819  10.223   7.104
   71SBC   C0GL49777   1.831  10.295   7.215
   71SBC   H01M49778   1.781  10.265   7.305
   71SBC   O00J49779   1.904  10.413   7.215
   71SBC   C0GK49780   1.959  10.443   7.090
   71SBC   H01N49781   2.004  10.541   7.092
   71SBC   C05K49782   1.959  10.363   6.979
   71SBC   C05J49783   2.030  10.397   6.857
   71SBC   C04Y49784   2.108  10.510   6.840
   71SBC   C04X49785   2.148  10.559   6.711
   71SBC   O00649786   2.148  10.593   6.942
   71SBC   C05349787   2.203  10.718   6.934
   71SBC   C04O49788   2.233  10.769   6.802
   71SBC   C03C49789   2.297  10.889   6.768
   71SBC   C03B49790   2.360  11.002   6.842
   71SBC   C05449791   2.361  11.015   6.981
   71SBC   C0GR49792   2.431  11.120   7.051
   71SBC   C03M49793   2.518  11.235   7.007
   71SBC   C03I49794   2.557  11.270   6.875
   71SBC   C03J49795   2.657  11.373   6.861
   71SBC   N00249796   2.705  11.410   6.733
   71SBC   C02U49797   2.802  11.508   6.722
   71SBC   C02T49798   2.860  11.543   6.597
   71SBC   C02Z49799   2.975  11.618   6.586
   71SBC   N00149800   3.032  11.649   6.462
   71SBC   C02R49801   3.148  11.736   6.454
   71SBC   C03249802   3.202  11.782   6.574
   71SBC   C03149803   3.145  11.736   6.690
   71SBC   H00749804   3.198  11.769   6.778
   71SBC   C03349805   3.319  11.862   6.565
   71SBC   H00349806   3.367  11.883   6.659
   71SBC   O00449807   3.367  11.914   6.446
   71SBC   C03449808   3.302  11.878   6.328
   71SBC   C03549809   3.353  11.920   6.203
   71SBC   C03649810   3.289  11.889   6.088
   71SBC   H00549811   3.318  11.948   6.002
   71SBC   C03749812   3.191  11.785   6.088
   71SBC   H00649813   3.141  11.764   5.995
   71SBC   C00D49814   3.145  11.731   6.215
   71SBC   C00C49815   3.039  11.638   6.218
   71SBC   C00B49816   2.987  11.565   6.096
   71SBC   C00A49817   3.019  11.529   5.952
   71SBC   C00949818   2.910  11.449   5.907
   71SBC   C00849819   2.906  11.361   5.797
   71SBC   C00749820   3.018  11.365   5.711
   71SBC   C00649821   3.015  11.280   5.600
   71SBC   C00549822   3.130  11.279   5.514
   71SBC   C00449823   3.247  11.353   5.545
   71SBC   C00349824   3.253  11.426   5.667
   71SBC   C00249825   3.372  11.477   5.716
   71SBC   C01C49826   3.480  11.490   5.627
   71SBC   C01B49827   3.588  11.577   5.656
   71SBC   H00049828   3.592  11.642   5.742
   71SBC   C00149829   3.380  11.526   5.846
   71SBC   C00049830   3.262  11.523   5.925
   71SBC   C01U49831   3.314  11.518   6.056
   71SBC   H00249832   3.274  11.500   6.154
   71SBC   C01T49833   3.459  11.528   6.050
   71SBC   O00249834   3.538  11.542   6.142
   71SBC   O00149835   3.492  11.532   5.917
   71SBC   C01S49836   3.135  11.436   5.745
   71SBC   C00N49837   2.807  11.261   5.799
   71SBC   C00M49838   2.726  11.241   5.908
   71SBC   C00J49839   2.732  11.320   6.017
   71SBC   C00I49840   2.679  11.292   6.142
   71SBC   C00H49841   2.717  11.361   6.253
   71SBC   C00G49842   2.815  11.462   6.245
   71SBC   C00F49843   2.868  11.523   6.357
   71SBC   C01X49844   2.673  11.319   6.374
   71SBC   C01W49845   2.580  11.220   6.380
   71SBC   C01V49846   2.543  11.147   6.270
   71SBC   C02049847   2.465  11.031   6.279
   71SBC   C01Z49848   2.531  11.181   6.503
   71SBC   C02Y49849   2.442  11.077   6.507
   71SBC   C03949850   2.398  11.035   6.628
   71SBC   C02W49851   2.573  11.242   6.627
   71SBC   C01Y49852   2.720  11.386   6.489
   71SBC   C00U49853   2.595  11.183   6.146
   71SBC   C00S49854   2.580  11.099   6.034
   71SBC   C00T49855   2.508  10.980   6.045
   71SBC   C00R49856   2.643  11.135   5.913
   71SBC   C00Q49857   2.646  11.040   5.815
   71SBC   C00V49858   2.575  10.917   5.825
   71SBC   C02449859   2.587  10.820   5.732
   71SBC   C00X49860   2.671  10.840   5.619
   71SBC   C00P49861   2.728  11.065   5.708
   71SBC   C00O49862   2.813  11.176   5.700
   71SBC   C00K49863   2.823  11.423   6.013
   71SBC   N00049864   3.137  11.500   5.874
   71SBC   C00L49865   2.872  11.488   6.124
   71SBC   H00449866   3.428  11.997   6.216
   71SBC   C02Q49867   3.197  11.780   6.332
   71SBC   C00E49868   2.975  11.608   6.338
   71SBC   C03049869   3.031  11.664   6.701
   71SBC   O00349870   2.973  11.646   6.820
   71SBC   C02S49871   2.811  11.487   6.478
   71SBC   C03849872   2.857  11.569   6.830
   71SBC   C03L49873   2.805  11.542   6.954
   71SBC   H00849874   2.841  11.595   7.041
   71SBC   C02V49875   2.670  11.343   6.616
   71SBC   C03K49876   2.707  11.446   6.968
   71SBC   C0BK49877   2.642  11.421   7.091
   71SBC   H00T49878   2.671  11.488   7.171
   71SBC   C03H49879   2.522  11.203   6.754
   71SBC   C0BL49880   2.555  11.320   7.116
   71SBC   C0GU49881   2.513  11.294   7.247
   71SBC   H01O49882   2.547  11.366   7.320
   71SBC   C0GT49883   2.447  11.176   7.289
   71SBC   H01P49884   2.423  11.163   7.393
   71SBC   C0GS49885   2.404  11.096   7.188
   71SBC   C0GV49886   2.334  10.967   7.196
   71SBC   C0GW49887   2.302  10.896   7.314
   71SBC   H01Q49888   2.344  10.931   7.408
   71SBC   C0GX49889   2.228  10.786   7.293
   71SBC   H01R49890   2.194  10.735   7.382
   71SBC   O00L49891   2.182  10.739   7.173
   71SBC   C0GQ49892   2.301  10.918   7.071
   71SBC   C03A49893   2.431  11.090   6.752
   71SBC   C05L49894   2.227  10.793   7.056
   71SBC   C04W49895   2.014  10.308   6.750
   71SBC   C05I49896   1.948  10.188   6.760
   71SBC   C05O49897   1.879  10.156   6.871
   71SBC   C05249898   1.948  10.097   6.653
   71SBC   C04V49899   2.070  10.342   6.623
   71SBC   C04U49900   2.066  10.254   6.515
   71SBC   N00949901   1.892  10.244   6.981
   71SBC   C0GP49902   1.804  10.044   6.888
   71SBC   C05W49903   1.805   9.956   6.782
   71SBC   C07D49904   1.626   9.635   6.693
   71SBC   C06J49905   1.792   9.674   6.471
   71SBC   C05P49906   1.868   9.983   6.665
   71SBC   C05R49907   1.917   9.828   6.336
   71SBC   C04Z49908   2.005  10.132   6.530
   71SBC   C04C49909   2.045   9.985   6.197
   71SBC   C04G49910   2.159  10.144   6.061
   71SBC   C04J49911   2.277  10.389   6.021
   71SBC   C04T49912   2.117  10.289   6.390
   71SBC   N00349913   2.129  10.472   6.601
   71SBC   C04P49914   2.211  10.678   6.693
   71SBC   C03D49915   2.322  10.923   6.635
   71SBC   C02149916   2.411  10.996   6.403
   71SBC   C03F49917   2.283  10.665   6.330
   71SBC   C02249918   2.456  10.943   6.168
   71SBC   C02A49919   2.334  10.607   6.104
   71SBC   C02349920   2.499  10.894   5.939
   71SBC   C02549921   2.542  10.686   5.753
   71SBC   C02D49922   2.576  10.584   5.663
   71SBC   C02E49923   2.659  10.607   5.556
   71SBC   C02N49924   2.691  10.505   5.467
   71SBC   C04N49925   2.339  10.510   6.003
   71SBC   C02P49926   2.516  10.459   5.677
   71SBC   C04I49927   2.287  10.297   5.921
   71SBC   C04449928   2.335  10.094   5.735
   71SBC   C04349929   2.548  10.356   5.590
   71SBC   C05N49930   2.632  10.376   5.480
   71SBC   C09U49931   2.762  10.037   5.266
   71SBC   C09V49932   2.800   9.919   5.199
   71SBC   C09X49933   2.904   9.917   5.117
   71SBC   C09Y49934   2.977   9.809   5.064
   71SBC   C0A149935   2.933   9.689   5.100
   71SBC   C0A249936   2.820   9.681   5.181
   71SBC   C0A449937   2.777   9.556   5.219
   71SBC   C07149938   2.668   9.550   5.307
   71SBC   C0A549939   2.626   9.424   5.343
   71SBC   C0A949940   2.688   9.310   5.289
   71SBC   C0A849941   2.795   9.323   5.200
   71SBC   C0AP49942   2.863   9.211   5.162
   71SBC   C0BY49943   2.982   9.230   5.091
   71SBC   C0BX49944   3.035   9.349   5.057
   71SBC   C0C249945   3.159   9.359   4.997
   71SBC   C0C349946   3.207   9.489   4.959
   71SBC   C0CT49947   3.125   9.597   4.983
   71SBC   C0C149948   3.241   9.244   4.979
   71SBC   C0C049949   3.177   9.115   4.998
   71SBC   C0A749950   2.953   9.461   5.084
   71SBC   C0BZ49951   3.052   9.117   5.051
   71SBC   C0BO49952   3.008   8.993   5.091
   71SBC   C0BN49953   2.899   8.972   5.175
   71SBC   C0BM49954   2.876   8.852   5.223
   71SBC   C0B949955   2.771   8.834   5.305
   71SBC   C0B849956   2.695   8.943   5.345
   71SBC   C0AD49957   2.721   9.071   5.294
   71SBC   C0AF49958   2.595   8.926   5.435
   71SBC   C0AG49959   2.562   8.803   5.496
   71SBC   C0B749960   2.635   8.695   5.453
   71SBC   C0AE49961   2.527   9.038   5.470
   71SBC   C0AB49962   2.543   9.165   5.420
   71SBC   C0AA49963   2.478   9.278   5.472
   71SBC   C0AJ49964   2.440   9.023   5.573
   71SBC   C0AK49965   2.364   9.134   5.611
   71SBC   C06W49966   2.283   9.092   5.711
   71SBC   C0AI49967   2.392   8.904   5.634
   71SBC   C0BP49968   3.098   8.894   5.048
   71SBC   C0BQ49969   3.075   8.760   5.095
   71SBC   C0BW49970   2.828   9.083   5.210
   71SBC   C0AC49971   2.648   9.181   5.332
   71SBC   C0A649972   2.837   9.448   5.163
   71SBC   C0A349973   3.004   9.583   5.052
   71SBC   C09Z49974   3.087   9.828   4.983
   71SBC   C09W49975   2.760   9.794   5.238
   71SBC   C07249976   2.659   9.784   5.333
   71SBC   C09H49977   2.940  10.042   5.081
   71SBC   C09G49978   3.037  10.055   4.981
   71SBC   C09P49979   3.049  10.186   4.956
   71SBC   C02O49980   2.899  10.469   5.163
   71SBC   C02M49981   2.782  10.532   5.356
   71SBC   C02F49982   2.700  10.739   5.532
   71SBC   C00W49983   2.723  10.966   5.614
   71SBC   C01R49984   2.902  11.195   5.589
   71SBC   C01N49985   2.923  10.926   5.329
   71SBC   C01L49986   3.105  10.891   5.175
   71SBC   C01H49987   3.411  11.077   5.137
   71SBC   C01K49988   3.152  11.199   5.392
   71SBC   C01E49989   3.366  11.350   5.467
   71SBC   C01G49990   3.525  11.169   5.166
   71SBC   C01D49991   3.479  11.421   5.508
   71SBC   C01A49992   3.683  11.607   5.560
   71SBC   H00149993   3.744  11.695   5.573
   71SBC   C01F49994   3.716  11.362   5.234
   71SBC   C03P49995   3.959  11.387   5.098
   71SBC   C03T49996   3.890  11.213   4.958
   71SBC   C08I49997   3.940  11.005   4.775
   71SBC   C08J49998   3.958  10.894   4.700
   71SBC   C08L49999   3.895  10.669   4.640
   71SBC   C09350000   3.840  10.426   4.583
   71SBC   C08Z50001   3.578  10.490   4.685
   71SBC   C09T50002   3.613  10.009   4.641
   71SBC   C09S50003   3.374  10.273   4.699
   71SBC   C09Q50004   3.145  10.223   4.857
   71SBC   C09F50005   3.114   9.951   4.934
   71SBC   C09E50006   3.411   9.921   4.733
   71SBC   C0A050007   3.170   9.721   4.948
   71SBC   C0CU50008   3.335   9.501   4.903
   71SBC   C0CR50009   3.419   9.388   4.908
   71SBC   C0CZ50010   3.555   9.410   4.865
   71SBC   C0DA50011   3.547   9.884   4.700
   71SBC   C0D950012   3.752   9.643   4.544
   71SBC   H00V50013   3.730   9.693   4.451
   71SBC   C0CY50014   3.598   9.533   4.807
   71SBC   C0DF50015   3.831   9.521   4.559
   71SBC   C0DE50016   3.873   9.411   4.480
   71SBC   C0GI50017   3.922   9.400   4.347
   71SBC   H01K50018   3.932   9.483   4.278
   71SBC   C0GJ50019   3.965   9.278   4.307
   71SBC   H01J50020   4.006   9.268   4.207
   71SBC   O00I50021   3.944   9.160   4.379
   71SBC   C0GH50022   3.882   9.167   4.503
   71SBC   C0GG50023   3.851   9.039   4.559
   71SBC   O00G50024   3.881   8.926   4.486
   71SBC   C0G850025   3.896   8.805   4.542
   71SBC   C0G950026   3.981   8.717   4.482
   71SBC   H01G50027   4.035   8.753   4.396
   71SBC   C0GA50028   3.983   8.584   4.526
   71SBC   H01H50029   4.054   8.516   4.483
   71SBC   C0GB50030   3.883   8.532   4.619
   71SBC   C0EP50031   3.794   8.628   4.680
   71SBC   C0E850032   3.684   8.576   4.763
   71SBC   C0CK50033   3.573   8.627   4.829
   71SBC   C0CL50034   3.588   8.750   4.887
   71SBC   C0E950035   3.669   8.856   4.831
   71SBC   C0GE50036   3.761   8.879   4.720
   71SBC   C0E750037   3.668   8.442   4.784
   71SBC   C0CJ50038   3.556   8.402   4.860
   71SBC   C0E650039   3.551   8.276   4.906
   71SBC   H00Y50040   3.483   8.250   4.985
   71SBC   C0EO50041   3.640   8.182   4.845
   71SBC   H01150042   3.626   8.080   4.880
   71SBC   C0G650043   3.738   8.216   4.754
   71SBC   C0G550044   3.830   8.128   4.687
   71SBC   H01F50045   3.825   8.022   4.707
   71SBC   C0GD50046   3.929   8.177   4.605
   71SBC   H01I50047   3.997   8.104   4.564
   71SBC   O00H50048   3.940   8.306   4.572
   71SBC   C0EQ50049   3.762   8.351   4.729
   71SBC   C0GC50050   3.858   8.395   4.640
   71SBC   C0G750051   3.814   8.767   4.651
   71SBC   C0DD50052   3.859   9.293   4.561
   71SBC   C0GF50053   3.797   9.015   4.685
   71SBC   C0CO50054   3.646   8.953   4.917
   71SBC   C0D050055   3.637   9.291   4.872
   71SBC   C0C450056   3.379   9.257   4.954
   71SBC   C0CN50057   3.558   8.928   5.024
   71SBC   C0CP50058   3.203   8.971   4.993
   71SBC   C0CM50059   3.514   8.795   5.005
   71SBC   C0CI50060   3.486   8.527   4.886
   71SBC   C0CD50061   3.124   8.286   5.069
   71SBC   C0BR50062   3.164   8.654   5.067
   71SBC   C0CS50063   2.962   8.743   5.182
   71SBC   C0B650064   2.742   8.709   5.361
   71SBC   C0CG50065   2.966   8.382   5.232
   71SBC   C0CF50066   3.030   8.274   5.169
   71SBC   C0E550067   3.130   8.051   5.041
   71SBC   C0DT50068   3.045   7.791   5.122
   71SBC   C0DL50069   2.860   8.002   5.355
   71SBC   C0DM50070   2.764   7.984   5.457
   71SBC   C0DY50071   2.788   7.743   5.445
   71SBC   C0DU50072   3.007   7.675   5.170
   71SBC   C0F050073   2.993   7.437   5.115
   71SBC   C0F450074   2.847   7.205   5.116
   71SBC   C0FG50075   2.764   7.374   5.433
   71SBC   O00B50076   2.660   7.097   5.233
   71SBC   C0FN50077   2.644   7.343   5.506
   71SBC   C0DZ50078   2.741   7.610   5.474
   71SBC   O00C50079   2.444   7.694   5.656
   71SBC   C0FR50080   2.375   7.791   5.716
   71SBC   O00D50081   2.268   7.757   5.756
   71SBC   C0E050082   2.725   7.854   5.496
   71SBC   C0E350083   2.431   7.923   5.707
   71SBC   C0AW50084   2.369   8.031   5.765
   71SBC   C0AV50085   2.247   8.024   5.844
   71SBC   H00Q50086   2.202   7.936   5.888
   71SBC   C0AU50087   2.188   8.139   5.889
   71SBC   H00R50088   2.105   8.130   5.957
   71SBC   C0AT50089   2.226   8.266   5.843
   71SBC   C0AS50090   2.191   8.406   5.857
   71SBC   C0AR50091   2.067   8.446   5.918
   71SBC   C0BE50092   2.348   8.268   5.768
   71SBC   C0DN50093   2.695   8.095   5.503
   71SBC   C0AX50094   2.421   8.157   5.734
   71SBC   C0BB50095   2.653   8.331   5.507
   71SBC   C0BD50096   2.380   8.397   5.732
   71SBC   C0B250097   2.604   8.570   5.499
   71SBC   C0AH50098   2.450   8.783   5.583
   71SBC   C0BF50099   2.287   8.494   5.780
   71SBC   C0AL50100   2.290   8.950   5.723
   71SBC   C07U50101   2.098   8.700   5.907
   71SBC   C0AQ50102   2.042   8.580   5.952
   71SBC   C0BG50103   1.960   8.364   5.970
   71SBC   C0FY50104   1.634   8.478   6.010
   71SBC   C0BJ50105   1.880   8.287   5.881
   71SBC   H00S50106   1.913   8.234   5.792
   71SBC   C0FZ50107   1.562   8.413   5.903
   71SBC   C07S50108   1.613   8.616   6.019
   71SBC   C0G150109   1.287   8.639   5.832
   71SBC   C07K50110   1.272   8.974   5.988
   71SBC   C07H50111   1.549   8.895   6.036
   71SBC   C06B50112   1.549   9.173   6.261
   71SBC   C06N50113   1.734   9.272   6.179
   71SBC   C06650114   1.806   8.928   6.035
   71SBC   C06250115   2.074   9.069   5.935
   71SBC   C05Y50116   1.929   9.400   6.065
   71SBC   C06150117   2.169   9.171   5.912
   71SBC   C05H50118   2.118   9.518   5.817
   71SBC   C06V50119   2.235   9.189   5.787
   71SBC   C06Y50120   2.391   9.267   5.572
   71SBC   C05C50121   2.301   9.622   5.645
   71SBC   C06Z50122   2.520   9.410   5.433
   71SBC   C07050123   2.613   9.662   5.366
   71SBC   C05B50124   2.354   9.749   5.611
   71SBC   C05750125   2.468   9.997   5.555
   71SBC   C05950126   2.607   9.899   5.392
   72SBC   C05850127   5.297   0.562  13.257
   72SBC   C05A50128   5.262   0.635  13.147
   72SBC   C06Q50129   5.167   0.737  13.145
   72SBC   C06R50130   5.135   0.815  13.029
   72SBC   C06S50131   5.202   0.791  12.907
   72SBC   C06T50132   5.171   0.870  12.795
   72SBC   C06U50133   5.231   0.870  12.662
   72SBC   C06X50134   5.318   0.787  12.596
   72SBC   C06050135   5.359   0.846  12.470
   72SBC   C05Z50136   5.363   0.776  12.342
   72SBC   C06850137   5.270   0.850  12.249
   72SBC   C06750138   5.231   0.816  12.111
   72SBC   C06950139   5.286   0.694  12.040
   72SBC   C06A50140   5.245   0.635  11.916
   72SBC   C07350141   5.118   0.637  11.853
   72SBC   C07P50142   5.059   0.509  11.804
   72SBC   C07O50143   5.106   0.381  11.834
   72SBC   H00D50144   5.183   0.372  11.910
   72SBC   C07N50145   5.059   0.268  11.767
   72SBC   H00E50146   5.091   0.167  11.785
   72SBC   C07M50147   4.947   0.278  11.686
   72SBC   H00F50148   4.903   0.188  11.645
   72SBC   C07L50149   4.880   0.406  11.676
   72SBC   C07Q50150   4.761   0.429  11.609
   72SBC   H00G50151   4.718   0.345  11.556
   72SBC   O00F50152   4.698   0.548  11.595
   72SBC   C07J50153   4.758   0.656  11.648
   72SBC   C07I50154   4.880   0.644  11.714
   72SBC   N00450155   4.935   0.766  11.768
   72SBC   C07R50156   4.861   0.887  11.740
   72SBC   C07T50157   4.738   0.884  11.674
   72SBC   C0FX50158   4.651   0.994  11.669
   72SBC   C0FW50159   4.519   1.000  11.634
   72SBC   C0G050160   4.470   0.875  11.587
   72SBC   C0G250161   4.334   0.864  11.541
   72SBC   H01E50162   4.310   0.768  11.500
   72SBC   C0G350163   4.252   0.982  11.553
   72SBC   H01C50164   4.147   0.976  11.526
   72SBC   C0G450165   4.302   1.100  11.611
   72SBC   H01D50166   4.236   1.185  11.622
   72SBC   O00E50167   4.556   0.764  11.576
   72SBC   C0FV50168   4.438   1.115  11.648
   72SBC   C0FU50169   4.508   1.239  11.692
   72SBC   H01B50170   4.445   1.326  11.704
   72SBC   C0FT50171   4.646   1.237  11.725
   72SBC   C0FS50172   4.741   1.328  11.778
   72SBC   C0BI50173   4.868   1.261  11.754
   72SBC   C0BH50174   4.974   1.315  11.828
   72SBC   C07F50175   5.036   1.244  11.937
   72SBC   C07E50176   5.072   1.111  11.937
   72SBC   C07G50177   5.038   1.008  11.848
   72SBC   C07450178   5.085   0.885  11.906
   72SBC   C06550179   5.121   1.046  12.053
   72SBC   C06450180   5.116   1.128  12.167
   72SBC   C06350181   5.129   1.077  12.294
   72SBC   C07550182   5.079   1.187  12.380
   72SBC   C0AM50183   5.033   1.306  12.304
   72SBC   C0AN50184   4.964   1.431  12.354
   72SBC   C0AO50185   4.904   1.464  12.488
   72SBC   C0B150186   4.847   1.592  12.516
   72SBC   C0B050187   4.841   1.688  12.420
   72SBC   C0AZ50188   4.793   1.817  12.440
   72SBC   C0AY50189   4.795   1.910  12.335
   72SBC   N00750190   4.748   2.036  12.352
   72SBC   C0E250191   4.751   2.125  12.243
   72SBC   C0E150192   4.684   2.247  12.261
   72SBC   C0E450193   4.688   2.339  12.154
   72SBC   C0FF50194   4.633   2.473  12.174
   72SBC   C0FJ50195   4.605   2.592  12.081
   72SBC   C0FK50196   4.574   2.584  11.942
   72SBC   H01650197   4.579   2.502  11.872
   72SBC   C0FL50198   4.509   2.714  11.914
   72SBC   H01750199   4.459   2.746  11.824
   72SBC   C0FM50200   4.506   2.796  12.037
   72SBC   C0FH50201   4.424   2.890  12.116
   72SBC   C0FI50202   4.443   2.836  12.242
   72SBC   C0F350203   4.345   2.841  12.339
   72SBC   C0F250204   4.366   2.757  12.443
   72SBC   C0DW50205   4.455   2.651  12.446
   72SBC   C0FE50206   4.539   2.627  12.338
   72SBC   C0DV50207   4.442   2.551  12.537
   72SBC   C0DX50208   4.508   2.430  12.520
   72SBC   C0DK50209   4.496   2.335  12.620
   72SBC   C0DJ50210   4.413   2.355  12.731
   72SBC   C0DI50211   4.399   2.258  12.824
   72SBC   C0DH50212   4.478   2.145  12.820
   72SBC   C0DG50213   4.561   2.123  12.712
   72SBC   C0BV50214   4.624   2.004  12.701
   72SBC   C0BC50215   4.685   1.977  12.579
   72SBC   C0BA50216   4.623   1.915  12.806
   72SBC   C0B450217   4.680   1.789  12.787
   72SBC   C0B350218   4.738   1.753  12.664
   72SBC   C0B550219   4.687   1.698  12.896
   72SBC   C0BU50220   4.622   1.736  13.013
   72SBC   C0BT50221   4.556   1.858  13.026
   72SBC   C0BS50222   4.489   1.891  13.147
   72SBC   C0CC50223   4.396   1.990  13.146
   72SBC   C0CB50224   4.301   2.003  13.245
   72SBC   C0CH50225   4.193   2.080  13.207
   72SBC   C0DO50226   4.189   2.175  13.103
   72SBC   C0DP50227   4.083   2.263  13.083
   72SBC   C0EA50228   3.966   2.254  13.156
   72SBC   H01250229   3.950   2.177  13.230
   72SBC   O00950230   3.858   2.339  13.144
   72SBC   C0EH50231   3.883   2.449  13.066
   72SBC   C0EG50232   3.792   2.549  13.071
   72SBC   C0EJ50233   3.672   2.580  13.150
   72SBC   H01050234   3.629   2.510  13.221
   72SBC   C0EK50235   3.611   2.704  13.100
   72SBC   H00Z50236   3.516   2.741  13.135
   72SBC   C0EL50237   3.700   2.746  12.997
   72SBC   C0EM50238   3.679   2.841  12.893
   72SBC   C0EW50239   3.563   2.921  12.872
   72SBC   H01350240   3.477   2.913  12.937
   72SBC   C0EX50241   3.541   3.009  12.756
   72SBC   H01450242   3.451   3.063  12.732
   72SBC   C0F150243   3.654   3.021  12.664
   72SBC   C0EU50244   3.778   2.952  12.694
   72SBC   C0ET50245   3.890   2.937  12.613
   72SBC   C0ES50246   3.964   2.832  12.676
   72SBC   C0EE50247   3.901   2.785  12.793
   72SBC   C0ED50248   3.905   2.675  12.886
   72SBC   C0EC50249   4.009   2.575  12.890
   72SBC   C0EB50250   4.122   2.575  12.806
   72SBC   C0EN50251   4.135   2.669  12.700
   72SBC   C0ER50252   4.255   2.655  12.628
   72SBC   C0DS50253   4.219   2.475  12.816
   72SBC   C0DR50254   4.212   2.373  12.913
   72SBC   C0EY50255   4.075   2.776  12.633
   72SBC   C0EZ50256   4.144   2.827  12.520
   72SBC   C0F550257   4.123   2.918  12.411
   72SBC   C0F650258   4.005   2.997  12.394
   72SBC   N00850259   4.007   3.080  12.278
   72SBC   C0F750260   4.115   3.090  12.186
   72SBC   C0FQ50261   4.110   3.175  12.072
   72SBC   H01850262   4.185   3.170  11.995
   72SBC   C0FP50263   4.002   3.259  12.051
   72SBC   H01950264   3.981   3.320  11.964
   72SBC   C0FO50265   3.902   3.257  12.149
   72SBC   H01A50266   3.820   3.325  12.133
   72SBC   C0F850267   4.221   2.993  12.200
   72SBC   C0F950268   3.896   3.170  12.260
   72SBC   C0FA50269   3.786   3.175  12.342
   72SBC   H01550270   3.694   3.229  12.322
   72SBC   C0FB50271   3.784   3.098  12.461
   72SBC   C0FD50272   3.895   3.012  12.487
   72SBC   C0FC50273   3.663   3.102  12.544
   72SBC   O00A50274   3.561   3.171  12.517
   72SBC   C0EV50275   3.785   2.865  12.803
   72SBC   C0EF50276   3.805   2.657  12.985
   72SBC   C0EI50277   4.001   2.470  12.989
   72SBC   C0DQ50278   4.098   2.368  12.997
   72SBC   C0CE50279   4.290   2.169  13.013
   72SBC   H00U50280   4.106   2.062  13.268
   72SBC   C0CA50281   4.333   1.950  13.383
   72SBC   C0C950282   4.450   1.858  13.391
   72SBC   C0C850283   4.499   1.816  13.524
   72SBC   C0C750284   4.574   1.702  13.575
   72SBC   C0C650285   4.607   1.704  13.709
   72SBC   C0C550286   4.638   1.605  13.810
   72SBC   C0CQ50287   4.608   1.644  13.947
   72SBC   C0D150288   4.506   1.734  13.962
   72SBC   C0D850289   4.420   1.696  14.062
   72SBC   C0D750290   4.494   1.612  14.144
   72SBC   C0D650291   4.457   1.555  14.264
   72SBC   C0D550292   4.540   1.458  14.332
   72SBC   C0D450293   4.663   1.395  14.298
   72SBC   C0D350294   4.665   1.280  14.376
   72SBC   C0CX50295   4.747   1.182  14.303
   72SBC   C0CW50296   4.741   1.223  14.162
   72SBC   C0CV50297   4.769   1.159  14.032
   72SBC   C0D250298   4.828   1.027  14.022
   72SBC   C09D50299   4.853   0.927  14.124
   72SBC   C09C50300   4.907   0.799  14.104
   72SBC   C09B50301   4.955   0.713  14.201
   72SBC   C09A50302   4.929   0.753  14.333
   72SBC   C09950303   4.853   0.852  14.361
   72SBC   C09850304   4.871   0.895  14.494
   72SBC   C08Y50305   4.992   0.819  14.543
   72SBC   C08X50306   5.085   0.847  14.654
   72SBC   C08W50307   5.065   0.959  14.744
   72SBC   C08U50308   4.970   1.071  14.723
   72SBC   C08V50309   4.882   1.109  14.616
   72SBC   C0DC50310   4.805   1.221  14.664
   72SBC   H00W50311   4.719   1.267  14.618
   72SBC   C0DB50312   4.850   1.260  14.793
   72SBC   H00X50313   4.810   1.334  14.861
   72SBC   C08T50314   4.957   1.171  14.825
   72SBC   C08S50315   5.034   1.167  14.942
   72SBC   H00N50316   5.012   1.243  15.016
   72SBC   C08R50317   5.146   1.079  14.947
   72SBC   C08Q50318   5.241   1.093  15.047
   72SBC   H00O50319   5.223   1.169  15.122
   72SBC   C08P50320   5.358   1.016  15.057
   72SBC   C08O50321   5.448   1.021  15.168
   72SBC   H00P50322   5.427   1.093  15.246
   72SBC   C08N50323   5.568   0.940  15.171
   72SBC   C08M50324   5.659   0.953  15.283
   72SBC   O00850325   5.644   1.033  15.376
   72SBC   O00750326   5.778   0.877  15.274
   72SBC   C08H50327   5.799   0.788  15.170
   72SBC   C08G50328   5.920   0.712  15.168
   72SBC   C03V50329   6.018   0.704  15.267
   72SBC   H00950330   6.002   0.762  15.356
   72SBC   C03U50331   6.133   0.625  15.257
   72SBC   C03W50332   6.238   0.614  15.355
   72SBC   H00A50333   6.223   0.677  15.442
   72SBC   C03X50334   6.341   0.528  15.328
   72SBC   H00B50335   6.422   0.511  15.397
   72SBC   O00550336   6.345   0.446  15.221
   72SBC   C03O50337   6.247   0.455  15.124
   72SBC   C03N50338   6.255   0.365  15.021
   72SBC   O00050339   6.374   0.296  15.012
   72SBC   C01950340   6.389   0.229  14.893
   72SBC   C01850341   6.287   0.216  14.799
   72SBC   C01750342   6.166   0.283  14.815
   72SBC   C01650343   6.068   0.275  14.718
   72SBC   C01550344   6.097   0.189  14.610
   72SBC   C01450345   5.996   0.172  14.514
   72SBC   C01350346   5.871   0.237  14.519
   72SBC   C01250347   5.800   0.194  14.400
   72SBC   C01150348   5.892   0.098  14.343
   72SBC   C01050349   5.862   0.039  14.225
   72SBC   C00Z50350   5.943  -0.043  14.152
   72SBC   C00Y50351   5.873  -0.034  14.031
   72SBC   C01O50352   5.750   0.024  14.035
   72SBC   C01P50353   5.698   0.086  13.923
   72SBC   C02L50354   5.604   0.182  13.950
   72SBC   C02K50355   5.584   0.223  14.088
   72SBC   C01M50356   5.665   0.184  14.199
   72SBC   C02J50357   5.461   0.299  14.101
   72SBC   C02I50358   5.408   0.348  14.224
   72SBC   C02H50359   5.454   0.344  14.354
   72SBC   C01Q50360   5.581   0.303  14.400
   72SBC   C02G50361   5.598   0.343  14.534
   72SBC   C08950362   5.466   0.399  14.565
   72SBC   C08850363   5.484   0.506  14.657
   72SBC   C08750364   5.631   0.483  14.699
   72SBC   C08650365   5.702   0.567  14.795
   72SBC   C03S50366   5.826   0.532  14.855
   72SBC   N00650367   5.840   0.619  14.961
   72SBC   C08F50368   5.733   0.698  14.971
   72SBC   C01J50369   5.936   0.444  14.836
   72SBC   C03R50370   6.042   0.450  14.932
   72SBC   C03Q50371   6.041   0.537  15.043
   72SBC   C08E50372   5.639   0.667  14.872
   72SBC   C08D50373   5.511   0.735  14.863
   72SBC   C08K50374   5.493   0.832  14.965
   72SBC   C08C50375   5.406   0.715  14.770
   72SBC   C09150376   5.292   0.799  14.775
   72SBC   C09250377   5.277   0.910  14.864
   72SBC   C08B50378   5.392   0.617  14.671
   72SBC   C09050379   5.255   0.644  14.616
   72SBC   C09450380   5.187   0.562  14.509
   72SBC   C09550381   5.094   0.616  14.424
   72SBC   C09R50382   5.112   0.568  14.297
   72SBC   C09750383   5.223   0.484  14.292
   72SBC   C09650384   5.266   0.479  14.425
   72SBC   C01I50385   5.705   0.381  14.627
   72SBC   C08A50386   5.385   0.406  14.451
   72SBC   C09L50387   5.289   0.415  14.190
   72SBC   C09K50388   5.263   0.407  14.050
   72SBC   C09J50389   5.178   0.493  13.984
   72SBC   C09I50390   5.175   0.524  13.846
   72SBC   C09O50391   5.260   0.492  13.731
   72SBC   C09N50392   5.363   0.394  13.736
   72SBC   C09M50393   5.430   0.324  13.849
   72SBC   C06O50394   5.422   0.364  13.608
   72SBC   C05M50395   5.379   0.428  13.490
   72SBC   C06P50396   5.280   0.530  13.494
   72SBC   C04250397   5.438   0.399  13.372
   72SBC   C04150398   5.543   0.303  13.363
   72SBC   C04050399   5.604   0.281  13.239
   72SBC   C03Z50400   5.714   0.197  13.230
   72SBC   C03Y50401   5.765   0.130  13.340
   72SBC   C02750402   5.880   0.054  13.329
   72SBC   C02650403   5.929  -0.010  13.439
   72SBC   C02850404   6.054  -0.076  13.431
   72SBC   C02950405   6.121  -0.084  13.311
   72SBC   C02B50406   6.242  -0.143  13.308
   72SBC   C02C50407   6.312  -0.141  13.189
   72SBC   C02X50408   6.441  -0.197  13.187
   72SBC   C03E50409   6.512  -0.197  13.069
   72SBC   C03G50410   6.469  -0.148  12.950
   72SBC   C04Q50411   6.344  -0.095  12.953
   72SBC   C04R50412   6.291  -0.031  12.843
   72SBC   C04S50413   6.171   0.040  12.852
   72SBC   C04L50414   6.097   0.040  12.968
   72SBC   C04M50415   6.141  -0.030  13.078
   72SBC   C04K50416   5.977   0.105  12.978
   72SBC   C04F50417   5.938   0.180  12.869
   72SBC   C04E50418   6.000   0.169  12.748
   72SBC   C04D50419   5.943   0.222  12.632
   72SBC   C05050420   6.006   0.209  12.513
   72SBC   C05150421   5.949   0.265  12.398
   72SBC   C05Q50422   6.004   0.240  12.274
   72SBC   C05V50423   5.932   0.278  12.163
   72SBC   N00550424   5.981   0.249  12.038
   72SBC   C07V50425   6.110   0.193  12.029
   72SBC   C08250426   6.162   0.161  11.905
   72SBC   C08150427   6.088   0.176  11.785
   72SBC   C07C50428   5.956   0.228  11.795
   72SBC   C07B50429   5.874   0.240  11.682
   72SBC   C08050430   5.921   0.207  11.553
   72SBC   C07Z50431   5.842   0.232  11.445
   72SBC   H00L50432   5.890   0.195  11.355
   72SBC   C07950433   5.717   0.294  11.449
   72SBC   C07850434   5.673   0.333  11.576
   72SBC   C07750435   5.549   0.401  11.593
   72SBC   C07X50436   5.472   0.429  11.480
   72SBC   H00I50437   5.377   0.481  11.480
   72SBC   C07Y50438   5.509   0.383  11.353
   72SBC   H00H50439   5.447   0.399  11.266
   72SBC   C07650440   5.508   0.443  11.717
   72SBC   C06C50441   5.386   0.518  11.729
   72SBC   H00C50442   5.315   0.535  11.649
   72SBC   C06F50443   5.596   0.432  11.829
   72SBC   C06E50444   5.568   0.491  11.948
   72SBC   C06G50445   5.637   0.473  12.064
   72SBC   C06H50446   5.746   0.386  12.054
   72SBC   C06I50447   5.789   0.337  11.932
   72SBC   C06L50448   5.589   0.521  12.187
   72SBC   C06M50449   5.470   0.604  12.198
   72SBC   C06K50450   5.653   0.469  12.301
   72SBC   C05S50451   5.765   0.390  12.294
   72SBC   C05U50452   5.597   0.496  12.427
   72SBC   C05X50453   5.485   0.584  12.441
   72SBC   C05G50454   5.435   0.588  12.574
   72SBC   C05F50455   5.485   0.508  12.671
   72SBC   C05E50456   5.432   0.530  12.791
   72SBC   C04850457   5.485   0.487  12.905
   72SBC   C05650458   5.417   0.512  13.023
   72SBC   C04550459   5.463   0.446  13.137
   72SBC   C04750460   5.595   0.404  12.895
   72SBC   C04950461   5.654   0.387  12.774
   72SBC   C04B50462   5.769   0.312  12.765
   72SBC   C04650463   5.639   0.342  13.006
   72SBC   C04H50464   5.743   0.261  12.995
   72SBC   C05D50465   5.339   0.633  12.783
   72SBC   C04A50466   5.599   0.434  12.658
   72SBC   C05T50467   5.653   0.429  12.538
   72SBC   C05550468   5.769   0.355  12.532
   72SBC   C06D50469   5.446   0.555  11.962
   72SBC   C07W50470   5.715   0.359  11.815
   72SBC   C08550471   5.625   0.311  11.341
   72SBC   H00M50472   5.663   0.278  11.245
   72SBC   C08450473   6.044   0.156  11.546
   72SBC   H00J50474   6.090   0.132  11.451
   72SBC   C07A50475   5.753   0.308  11.692
   72SBC   C08350476   6.128   0.137  11.655
   72SBC   H00K50477   6.221   0.084  11.645
   72SBC   O00K50478   6.286   0.107  11.895
   72SBC   C0GO50479   6.366   0.095  12.007
   72SBC   C0GN50480   6.494   0.046  12.002
   72SBC   H01L50481   6.538   0.040  11.903
   72SBC   C0GM50482   6.571   0.016  12.120
   72SBC   C0GL50483   6.706   0.002  12.111
   72SBC   H01M50484   6.767   0.022  12.024
   72SBC   O00J50485   6.780  -0.032  12.224
   72SBC   C0GK50486   6.709  -0.039  12.340
   72SBC   H01N50487   6.776  -0.063  12.422
   72SBC   C05K50488   6.577  -0.015  12.354
   72SBC   C05J50489   6.512  -0.027  12.481
   72SBC   C04Y50490   6.574  -0.072  12.606
   72SBC   C04X50491   6.501  -0.080  12.724
   72SBC   O00650492   6.703  -0.123  12.608
   72SBC   C05350493   6.769  -0.178  12.723
   72SBC   C04O50494   6.689  -0.188  12.841
   72SBC   C03C50495   6.735  -0.231  12.971
   72SBC   C03B50496   6.857  -0.285  13.027
   72SBC   C05450497   6.976  -0.295  12.959
   72SBC   C0GR50498   7.103  -0.311  13.029
   72SBC   C03M50499   7.154  -0.333  13.166
   72SBC   C03I50500   7.073  -0.327  13.284
   72SBC   C03J50501   7.139  -0.332  13.410
   72SBC   N00250502   7.066  -0.331  13.530
   72SBC   C02U50503   7.126  -0.334  13.662
   72SBC   C02T50504   7.050  -0.309  13.779
   72SBC   C02Z50505   7.114  -0.315  13.904
   72SBC   N00150506   7.050  -0.289  14.024
   72SBC   C02R50507   7.119  -0.300  14.150
   72SBC   C03250508   7.257  -0.329  14.153
   72SBC   C03150509   7.321  -0.353  14.029
   72SBC   H00750510   7.425  -0.382  14.028
   72SBC   C03350511   7.323  -0.340  14.279
   72SBC   H00350512   7.428  -0.363  14.288
   72SBC   O00450513   7.254  -0.299  14.398
   72SBC   C03450514   7.120  -0.278  14.391
   72SBC   C03550515   7.054  -0.244  14.508
   72SBC   C03650516   6.915  -0.234  14.507
   72SBC   H00550517   6.856  -0.234  14.598
   72SBC   C03750518   6.840  -0.244  14.393
   72SBC   H00650519   6.733  -0.253  14.387
   72SBC   C00D50520   6.907  -0.264  14.267
   72SBC   C00C50521   6.837  -0.272  14.149
   72SBC   C00B50522   6.691  -0.257  14.138
   72SBC   C00A50523   6.568  -0.225  14.216
   72SBC   C00950524   6.458  -0.247  14.127
   72SBC   C00850525   6.324  -0.201  14.139
   72SBC   C00750526   6.295  -0.127  14.254
   72SBC   C00650527   6.163  -0.074  14.272
   72SBC   C00550528   6.140   0.011  14.380
   72SBC   C00450529   6.240   0.040  14.476
   72SBC   C00350530   6.369  -0.011  14.455
   72SBC   C00250531   6.475   0.027  14.536
   72SBC   C01C50532   6.443   0.091  14.653
   72SBC   C01B50533   6.532   0.089  14.764
   72SBC   H00050534   6.626   0.037  14.752
   72SBC   C00150535   6.608   0.012  14.497
   72SBC   C00050536   6.622  -0.025  14.368
   72SBC   C01U50537   6.750   0.028  14.324
   72SBC   H00250538   6.800   0.021  14.229
   72SBC   C01T50539   6.801   0.108  14.437
   72SBC   O00250540   6.906   0.179  14.449
   72SBC   O00150541   6.705   0.100  14.540
   72SBC   C01S50542   6.396  -0.088  14.343
   72SBC   C00N50543   6.247  -0.197  14.024
   72SBC   C00M50544   6.299  -0.238  13.899
   72SBC   C00J50545   6.426  -0.297  13.888
   72SBC   C00I50546   6.501  -0.301  13.770
   72SBC   C00H50547   6.638  -0.315  13.776
   72SBC   C00G50548   6.710  -0.312  13.890
   72SBC   C00F50549   6.844  -0.295  13.898
   72SBC   C01X50550   6.716  -0.313  13.655
   72SBC   C01W50551   6.644  -0.301  13.533
   72SBC   C01V50552   6.505  -0.275  13.536
   72SBC   C02050553   6.435  -0.236  13.422
   72SBC   C01Z50554   6.716  -0.293  13.417
   72SBC   C02Y50555   6.642  -0.264  13.309
   72SBC   C03950556   6.713  -0.265  13.187
   72SBC   C02W50557   6.855  -0.317  13.409
   72SBC   C01Y50558   6.854  -0.312  13.655
   72SBC   C00U50559   6.434  -0.269  13.653
   72SBC   C00S50560   6.296  -0.227  13.661
   72SBC   C00T50561   6.236  -0.184  13.543
   72SBC   C00R50562   6.231  -0.213  13.783
   72SBC   C00Q50563   6.108  -0.150  13.785
   72SBC   C00V50564   6.043  -0.112  13.668
   72SBC   C02450565   5.922  -0.043  13.671
   72SBC   C00X50566   5.859  -0.023  13.792
   72SBC   C00P50567   6.047  -0.125  13.908
   72SBC   C00O50568   6.117  -0.147  14.027
   72SBC   C00K50569   6.504  -0.296  14.005
   72SBC   N00050570   6.532  -0.109  14.304
   72SBC   C00L50571   6.642  -0.298  14.011
   72SBC   H00450572   7.113  -0.251  14.598
   72SBC   C02Q50573   7.046  -0.276  14.264
   72SBC   C00E50574   6.907  -0.283  14.024
   72SBC   C03050575   7.256  -0.343  13.908
   72SBC   O00350576   7.327  -0.359  13.794
   72SBC   C02S50577   6.916  -0.302  13.776
   72SBC   C03850578   7.263  -0.349  13.668
   72SBC   C03L50579   7.334  -0.364  13.554
   72SBC   H00850580   7.440  -0.388  13.557
   72SBC   C02V50581   6.924  -0.328  13.531
   72SBC   C03K50582   7.277  -0.354  13.424
   72SBC   C0BK50583   7.349  -0.361  13.301
   72SBC   H00T50584   7.455  -0.381  13.298
   72SBC   C03H50585   6.931  -0.316  13.286
   72SBC   C0BL50586   7.295  -0.343  13.175
   72SBC   C0GU50587   7.380  -0.341  13.060
   72SBC   H01O50588   7.487  -0.352  13.069
   72SBC   C0GT50589   7.331  -0.326  12.935
   72SBC   H01P50590   7.389  -0.321  12.844
   72SBC   C0GS50591   7.191  -0.315  12.917
   72SBC   C0GV50592   7.126  -0.276  12.800
   72SBC   C0GW50593   7.178  -0.261  12.667
   72SBC   H01Q50594   7.281  -0.283  12.646
   72SBC   C0GX50595   7.095  -0.217  12.574
   72SBC   H01R50596   7.130  -0.184  12.477
   72SBC   O00L50597   6.959  -0.195  12.584
   72SBC   C0GQ50598   6.987  -0.269  12.818
   72SBC   C03A50599   6.848  -0.292  13.166
   72SBC   C05L50600   6.905  -0.213  12.714
   72SBC   C04W50601   6.384   0.031  12.489
   72SBC   C05I50602   6.319   0.085  12.377
   72SBC   C05O50603   6.379   0.076  12.252
   72SBC   C05250604   6.193   0.140  12.384
   72SBC   C04V50605   6.312   0.031  12.607
   72SBC   C04U50606   6.187   0.094  12.618
   72SBC   N00950607   6.504   0.021  12.242
   72SBC   C0GP50608   6.313   0.119  12.135
   72SBC   C05W50609   6.181   0.160  12.145
   72SBC   C07D50610   5.904   0.264  11.922
   72SBC   C06J50611   5.813   0.351  12.170
   72SBC   C05P50612   6.128   0.178  12.266
   72SBC   C05R50613   5.832   0.339  12.409
   72SBC   C04Z50614   6.128   0.150  12.504
   72SBC   C04C50615   5.829   0.297  12.641
   72SBC   C04G50616   5.818   0.252  12.880
   72SBC   C04J50617   5.901   0.114  13.097
   72SBC   C04T50618   6.118   0.102  12.740
   72SBC   N00350619   6.369  -0.029  12.726
   72SBC   C04P50620   6.552  -0.145  12.837
   72SBC   C03D50621   6.644  -0.241  13.072
   72SBC   C02150622   6.506  -0.230  13.306
   72SBC   C03F50623   6.265  -0.089  13.070
   72SBC   C02250624   6.306  -0.191  13.422
   72SBC   C02A50625   6.067  -0.032  13.195
   72SBC   C02350626   6.110  -0.121  13.547
   72SBC   C02550627   5.861   0.007  13.558
   72SBC   C02D50628   5.747   0.091  13.571
   72SBC   C02E50629   5.689   0.116  13.692
   72SBC   C02N50630   5.577   0.204  13.709
   72SBC   C04N50631   5.946   0.040  13.208
   72SBC   C02P50632   5.696   0.151  13.461
   72SBC   C04I50633   5.791   0.196  13.109
   72SBC   C04450634   5.570   0.360  13.127
   72SBC   C04350635   5.591   0.244  13.475
   72SBC   C05N50636   5.526   0.266  13.598
   72SBC   C09U50637   5.217   0.560  13.615
   72SBC   C09V50638   5.124   0.671  13.616
   72SBC   C09X50639   5.056   0.708  13.731
   72SBC   C09Y50640   4.974   0.820  13.747
   72SBC   C0A150641   4.955   0.900  13.636
   72SBC   C0A250642   5.001   0.851  13.513
   72SBC   C0A450643   4.968   0.921  13.397
   72SBC   C07150644   5.020   0.882  13.269
   72SBC   C0A550645   4.983   0.956  13.158
   72SBC   C0A950646   4.901   1.066  13.164
   72SBC   C0A850647   4.864   1.115  13.291
   72SBC   C0AP50648   4.796   1.232  13.301
   72SBC   C0BY50649   4.764   1.278  13.431
   72SBC   C0BX50650   4.797   1.214  13.548
   72SBC   C0C250651   4.759   1.269  13.671
   72SBC   C0C350652   4.785   1.192  13.793
   72SBC   C0CT50653   4.844   1.068  13.781
   72SBC   C0C150654   4.698   1.399  13.680
   72SBC   C0C050655   4.660   1.466  13.551
   72SBC   C0A750656   4.860   1.090  13.536
   72SBC   C0BZ50657   4.691   1.397  13.436
   72SBC   C0BO50658   4.649   1.469  13.325
   72SBC   C0BN50659   4.705   1.433  13.204
   72SBC   C0BM50660   4.688   1.520  13.100
   72SBC   C0B950661   4.742   1.485  12.980
   72SBC   C0B850662   4.797   1.358  12.961
   72SBC   C0AD50663   4.811   1.272  13.068
   72SBC   C0AF50664   4.856   1.326  12.840
   72SBC   C0AG50665   4.856   1.419  12.733
   72SBC   C0B750666   4.798   1.541  12.751
   72SBC   C0AE50667   4.905   1.202  12.833
   72SBC   C0AB50668   4.931   1.112  12.940
   72SBC   C0AA50669   5.012   0.998  12.927
   72SBC   C0AJ50670   4.969   1.173  12.711
   72SBC   C0AK50671   5.041   1.055  12.703
   72SBC   C06W50672   5.110   1.067  12.587
   72SBC   C0AI50673   4.984   1.259  12.603
   72SBC   C0BP50674   4.606   1.601  13.357
   72SBC   C0BQ50675   4.581   1.689  13.244
   72SBC   C0BW50676   4.761   1.309  13.190
   72SBC   C0AC50677   4.878   1.148  13.055
   72SBC   C0A650678   4.894   1.039  13.408
   72SBC   C0A350679   4.880   1.019  13.649
   72SBC   C09Z50680   4.918   0.855  13.871
   72SBC   C09W50681   5.089   0.738  13.502
   72SBC   C07250682   5.143   0.703  13.379
   72SBC   C09H50683   5.075   0.622  13.832
   72SBC   C09G50684   5.011   0.651  13.950
   72SBC   C09P50685   5.077   0.574  14.046
   72SBC   C02O50686   5.382   0.346  13.989
   72SBC   C02M50687   5.536   0.237  13.838
   72SBC   C02F50688   5.744   0.048  13.801
   72SBC   C00W50689   5.926  -0.061  13.907
   72SBC   C01R50690   6.079  -0.092  14.159
   72SBC   C01N50691   5.756   0.085  14.158
   72SBC   C01L50692   5.678   0.232  14.331
   72SBC   C01H50693   5.837   0.327  14.626
   72SBC   C01K50694   6.013   0.083  14.405
   72SBC   C01E50695   6.218   0.129  14.584
   72SBC   C01G50696   5.948   0.351  14.724
   72SBC   C01D50697   6.314   0.140  14.683
   72SBC   C01A50698   6.512   0.161  14.880
   72SBC   H00150699   6.586   0.162  14.959
   72SBC   C01F50700   6.154   0.365  14.921
   72SBC   C03P50701   6.140   0.540  15.142
   72SBC   C03T50702   5.937   0.625  15.059
   72SBC   C08I50703   5.703   0.784  15.068
   72SBC   C08J50704   5.588   0.856  15.062
   72SBC   C08L50705   5.377   0.920  14.960
   72SBC   C09350706   5.160   0.982  14.847
   72SBC   C08Z50707   5.198   0.766  14.675
   72SBC   C09T50708   4.850   1.034  14.498
   72SBC   C09S50709   5.006   0.719  14.442
   72SBC   C09Q50710   5.049   0.610  14.180
   72SBC   C09F50711   4.944   0.769  13.976
   72SBC   C09E50712   4.841   0.953  14.265
   72SBC   C0A050713   4.857   0.984  13.892
   72SBC   C0CU50714   4.747   1.246  13.919
   72SBC   C0CR50715   4.697   1.381  13.923
   72SBC   C0CZ50716   4.657   1.428  14.045
   72SBC   C0DA50717   4.811   1.066  14.357
   72SBC   C0D950718   4.531   1.253  14.435
   72SBC   H00V50719   4.494   1.156  14.465
   72SBC   C0CY50720   4.686   1.357  14.166
   72SBC   C0DF50721   4.453   1.375  14.411
   72SBC   C0DE50722   4.318   1.417  14.395
   72SBC   C0GI50723   4.188   1.369  14.436
   72SBC   H01K50724   4.179   1.277  14.493
   72SBC   C0GJ50725   4.084   1.433  14.395
   72SBC   H01J50726   3.990   1.390  14.427
   72SBC   O00I50727   4.076   1.541  14.303
   72SBC   C0GH50728   4.197   1.592  14.254
   72SBC   C0GG50729   4.185   1.686  14.151
   72SBC   O00G50730   4.058   1.717  14.129
   72SBC   C0G850731   4.017   1.805  14.033
   72SBC   C0G950732   3.884   1.851  14.045
   72SBC   H01G50733   3.813   1.818  14.120
   72SBC   C0GA50734   3.840   1.948  13.956
   72SBC   H01H50735   3.739   1.986  13.966
   72SBC   C0GB50736   3.916   1.996  13.850
   72SBC   C0EP50737   4.043   1.935  13.829
   72SBC   C0E850738   4.114   1.964  13.705
   72SBC   C0CK50739   4.223   1.917  13.626
   72SBC   C0CL50740   4.338   1.884  13.699
   72SBC   C0E950741   4.337   1.838  13.836
   72SBC   C0GE50742   4.237   1.800  13.940
   72SBC   C0E750743   4.070   2.065  13.620
   72SBC   C0CJ50744   4.142   2.088  13.507
   72SBC   C0E650745   4.128   2.213  13.445
   72SBC   H00Y50746   4.199   2.248  13.372
   72SBC   C0EO50747   4.001   2.279  13.466
   72SBC   H01150748   3.979   2.365  13.404
   72SBC   C0G650749   3.913   2.244  13.572
   72SBC   C0G550750   3.778   2.298  13.605
   72SBC   H01F50751   3.732   2.369  13.538
   72SBC   C0GD50752   3.707   2.256  13.709
   72SBC   H01I50753   3.608   2.298  13.720
   72SBC   O00H50754   3.755   2.157  13.792
   72SBC   C0EQ50755   3.955   2.138  13.658
   72SBC   C0GC50756   3.877   2.104  13.771
   72SBC   C0G750757   4.102   1.844  13.926
   72SBC   C0DD50758   4.319   1.535  14.304
   72SBC   C0GF50759   4.281   1.729  14.062
   72SBC   C0CO50760   4.470   1.813  13.857
   72SBC   C0D050761   4.585   1.551  14.047
   72SBC   C0C450762   4.675   1.465  13.801
   72SBC   C0CN50763   4.553   1.835  13.750
   72SBC   C0CP50764   4.607   1.593  13.502
   72SBC   C0CM50765   4.475   1.891  13.646
   72SBC   C0CI50766   4.238   1.980  13.495
   72SBC   C0CD50767   4.385   2.070  13.026
   72SBC   C0BR50768   4.507   1.814  13.261
   72SBC   C0CS50769   4.631   1.647  13.118
   72SBC   C0B650770   4.740   1.575  12.874
   72SBC   C0CG50771   4.552   1.939  12.920
   72SBC   C0CF50772   4.473   2.051  12.920
   72SBC   C0E550773   4.303   2.267  12.918
   72SBC   C0DT50774   4.328   2.460  12.731
   72SBC   C0DL50775   4.567   2.218  12.612
   72SBC   C0DM50776   4.629   2.191  12.490
   72SBC   C0DY50777   4.575   2.403  12.400
   72SBC   C0DU50778   4.350   2.555  12.636
   72SBC   C0F050779   4.260   2.750  12.526
   72SBC   C0F450780   4.230   2.921  12.323
   72SBC   C0FG50781   4.540   2.731  12.246
   72SBC   O00B50782   4.313   2.971  12.096
   72SBC   C0FN50783   4.594   2.724  12.119
   72SBC   C0DZ50784   4.586   2.502  12.300
   72SBC   O00C50785   4.744   2.304  12.030
   72SBC   C0FR50786   4.799   2.185  12.004
   72SBC   O00D50787   4.837   2.164  11.890
   72SBC   C0E050788   4.623   2.278  12.380
   72SBC   C0E350789   4.805   2.089  12.118
   72SBC   C0AW50790   4.859   1.963  12.100
   72SBC   C0AV50791   4.925   1.910  11.981
   72SBC   H00Q50792   4.932   1.959  11.885
   72SBC   C0AU50793   4.967   1.775  11.976
   72SBC   H00R50794   5.003   1.737  11.881
   72SBC   C0AT50795   4.948   1.697  12.089
   72SBC   C0AS50796   4.973   1.560  12.115
   72SBC   C0AR50797   4.983   1.456  12.013
   72SBC   C0BE50798   4.897   1.752  12.202
   72SBC   C0DN50799   4.689   2.068  12.476
   72SBC   C0AX50800   4.846   1.882  12.210
   72SBC   C0BB50801   4.734   1.852  12.560
   72SBC   C0BD50802   4.901   1.656  12.297
   72SBC   C0B250803   4.796   1.626  12.640
   72SBC   C0AH50804   4.908   1.382  12.601
   72SBC   C0BF50805   4.949   1.537  12.258
   72SBC   C0AL50806   5.071   1.183  12.516
   72SBC   C07U50807   5.070   1.264  12.173
   72SBC   C0AQ50808   5.036   1.324  12.048
   72SBC   C0BG50809   4.918   1.437  11.883
   72SBC   C0FY50810   4.851   1.128  11.723
   72SBC   C0BJ50811   4.771   1.445  11.857
   72SBC   H00S50812   4.700   1.517  11.896
   72SBC   C0FZ50813   4.713   1.119  11.701
   72SBC   C07S50814   4.928   1.008  11.754
   72SBC   C0G150815   4.685   0.770  11.625
   72SBC   C07K50816   4.936   0.519  11.733
   72SBC   C07H50817   5.057   0.764  11.840
   72SBC   C06B50818   5.353   0.563  11.860
   72SBC   C06N50819   5.401   0.619  12.073
   72SBC   C06650820   5.158   0.910  12.029
   72SBC   C06250821   5.220   0.969  12.324
   72SBC   C05Y50822   5.443   0.657  12.326
   72SBC   C06150823   5.279   0.965  12.452
   72SBC   C05H50824   5.335   0.656  12.641
   72SBC   C06V50825   5.201   0.974  12.567
   72SBC   C06Y50826   5.074   0.969  12.810
   72SBC   C05C50827   5.293   0.689  12.908
   72SBC   C06Z50828   5.041   0.919  13.036
   72SBC   C07050829   5.105   0.772  13.262
   72SBC   C05B50830   5.318   0.606  13.024
   72SBC   C05750831   5.396   0.462  13.254
   72SBC   C05950832   5.242   0.596  13.378
   73SBC   C05850833   4.672   7.123   7.984
   73SBC   C05A50834   4.543   7.174   8.006
   73SBC   C06Q50835   4.528   7.298   8.060
   73SBC   C06R50836   4.403   7.352   8.067
   73SBC   C06S50837   4.286   7.279   8.039
   73SBC   C06T50838   4.161   7.348   8.038
   73SBC   C06U50839   4.034   7.291   7.992
   73SBC   C06X50840   3.983   7.160   7.966
   73SBC   C06050841   3.853   7.169   7.897
   73SBC   C05Z50842   3.738   7.082   7.920
   73SBC   C06850843   3.630   7.178   7.950
   73SBC   C06750844   3.491   7.144   7.995
   73SBC   C06950845   3.447   6.998   7.998
   73SBC   C06A50846   3.323   6.948   8.057
   73SBC   C07350847   3.235   7.001   8.153
   73SBC   C07P50848   3.192   6.917   8.257
   73SBC   C07O50849   3.257   6.796   8.298
   73SBC   H00D50850   3.346   6.774   8.242
   73SBC   C07N50851   3.222   6.714   8.402
   73SBC   H00E50852   3.275   6.623   8.423
   73SBC   C07M50853   3.112   6.759   8.475
   73SBC   H00F50854   3.085   6.700   8.561
   73SBC   C07L50855   3.041   6.876   8.443
   73SBC   C07Q50856   2.925   6.924   8.513
   73SBC   H00G50857   2.879   6.865   8.592
   73SBC   O00F50858   2.860   7.042   8.492
   73SBC   C07J50859   2.905   7.122   8.393
   73SBC   C07I50860   3.015   7.079   8.309
   73SBC   N00450861   3.069   7.168   8.214
   73SBC   C07R50862   3.009   7.293   8.195
   73SBC   C07T50863   2.913   7.338   8.288
   73SBC   C0FX50864   2.863   7.468   8.295
   73SBC   C0FW50865   2.784   7.517   8.397
   73SBC   C0G050866   2.727   7.422   8.492
   73SBC   C0G250867   2.660   7.468   8.607
   73SBC   H01E50868   2.620   7.393   8.674
   73SBC   C0G350869   2.642   7.604   8.626
   73SBC   H01C50870   2.602   7.639   8.720
   73SBC   C0G450871   2.691   7.693   8.528
   73SBC   H01D50872   2.663   7.796   8.540
   73SBC   O00E50873   2.758   7.292   8.475
   73SBC   C0FV50874   2.764   7.652   8.413
   73SBC   C0FU50875   2.811   7.738   8.314
   73SBC   H01B50876   2.795   7.844   8.324
   73SBC   C0FT50877   2.877   7.687   8.198
   73SBC   C0FS50878   2.960   7.744   8.098
   73SBC   C0BI50879   3.001   7.629   8.019
   73SBC   C0BH50880   3.118   7.658   7.949
   73SBC   C07F50881   3.240   7.587   7.974
   73SBC   C07E50882   3.262   7.453   7.991
   73SBC   C07G50883   3.174   7.358   8.042
   73SBC   C07450884   3.251   7.241   8.066
   73SBC   C06550885   3.388   7.394   7.994
   73SBC   C06450886   3.496   7.487   7.974
   73SBC   C06350887   3.630   7.459   7.969
   73SBC   C07550888   3.697   7.589   7.960
   73SBC   C0AM50889   3.606   7.701   7.958
   73SBC   C0AN50890   3.635   7.841   7.945
   73SBC   C0AO50891   3.767   7.919   7.937
   73SBC   C0B150892   3.774   8.053   7.896
   73SBC   C0B050893   3.663   8.118   7.851
   73SBC   C0AZ50894   3.666   8.245   7.796
   73SBC   C0AY50895   3.544   8.309   7.771
   73SBC   N00750896   3.544   8.428   7.697
   73SBC   C0E250897   3.420   8.486   7.657
   73SBC   C0E150898   3.428   8.609   7.591
   73SBC   C0E450899   3.304   8.674   7.558
   73SBC   C0FF50900   3.299   8.798   7.490
   73SBC   C0FJ50901   3.191   8.891   7.450
   73SBC   C0FK50902   3.066   8.917   7.511
   73SBC   H01650903   3.020   8.852   7.584
   73SBC   C0FL50904   3.031   9.056   7.473
   73SBC   H01750905   2.960   9.132   7.503
   73SBC   C0FM50906   3.135   9.101   7.378
   73SBC   C0FH50907   3.206   9.212   7.323
   73SBC   C0FI50908   3.329   9.150   7.278
   73SBC   C0F350909   3.447   9.222   7.274
   73SBC   C0F250910   3.564   9.146   7.286
   73SBC   C0DW50911   3.571   9.018   7.346
   73SBC   C0FE50912   3.451   8.957   7.372
   73SBC   C0DV50913   3.684   8.966   7.399
   73SBC   C0DX50914   3.674   8.857   7.478
   73SBC   C0DK50915   3.789   8.813   7.543
   73SBC   C0DJ50916   3.907   8.887   7.535
   73SBC   C0DI50917   4.022   8.839   7.596
   73SBC   C0DH50918   4.021   8.714   7.652
   73SBC   C0DG50919   3.902   8.642   7.664
   73SBC   C0BV50920   3.901   8.517   7.721
   73SBC   C0BC50921   3.783   8.441   7.728
   73SBC   C0BA50922   4.017   8.462   7.774
   73SBC   C0B450923   4.017   8.335   7.833
   73SBC   C0B350924   3.895   8.258   7.833
   73SBC   C0B550925   4.133   8.283   7.887
   73SBC   C0BU50926   4.253   8.352   7.872
   73SBC   C0BT50927   4.256   8.475   7.802
   73SBC   C0BS50928   4.379   8.539   7.782
   73SBC   C0CC50929   4.377   8.679   7.740
   73SBC   C0CB50930   4.495   8.751   7.732
   73SBC   C0CH50931   4.478   8.890   7.723
   73SBC   C0DO50932   4.368   8.944   7.655
   73SBC   C0DP50933   4.359   9.077   7.613
   73SBC   C0EA50934   4.475   9.166   7.622
   73SBC   H01250935   4.564   9.135   7.676
   73SBC   O00950936   4.480   9.289   7.563
   73SBC   C0EH50937   4.363   9.337   7.515
   73SBC   C0EG50938   4.364   9.464   7.461
   73SBC   C0EJ50939   4.469   9.566   7.428
   73SBC   H01050940   4.573   9.538   7.425
   73SBC   C0EK50941   4.406   9.689   7.394
   73SBC   H00Z50942   4.448   9.784   7.362
   73SBC   C0EL50943   4.265   9.653   7.383
   73SBC   C0EM50944   4.150   9.737   7.348
   73SBC   C0EW50945   4.149   9.871   7.296
   73SBC   H01350946   4.236   9.935   7.306
   73SBC   C0EX50947   4.023   9.930   7.257
   73SBC   H01450948   4.026  10.029   7.215
   73SBC   C0F150949   3.896   9.855   7.264
   73SBC   C0EU50950   3.905   9.727   7.317
   73SBC   C0ET50951   3.800   9.633   7.318
   73SBC   C0ES50952   3.862   9.514   7.363
   73SBC   C0EE50953   4.002   9.535   7.385
   73SBC   C0ED50954   4.118   9.462   7.415
   73SBC   C0EC50955   4.122   9.322   7.446
   73SBC   C0EB50956   4.016   9.233   7.429
   73SBC   C0EN50957   3.896   9.269   7.357
   73SBC   C0ER50958   3.799   9.168   7.338
   73SBC   C0DS50959   4.023   9.096   7.477
   73SBC   C0DR50960   4.136   9.044   7.538
   73SBC   C0EY50961   3.823   9.393   7.316
   73SBC   C0EZ50962   3.686   9.369   7.281
   73SBC   C0F550963   3.559   9.440   7.276
   73SBC   C0F650964   3.555   9.582   7.269
   73SBC   N00850965   3.424   9.634   7.248
   73SBC   C0F750966   3.301   9.556   7.261
   73SBC   C0FQ50967   3.182   9.624   7.245
   73SBC   H01850968   3.090   9.570   7.260
   73SBC   C0FP50969   3.176   9.761   7.222
   73SBC   H01950970   3.082   9.810   7.200
   73SBC   C0FO50971   3.294   9.830   7.204
   73SBC   H01A50972   3.297   9.937   7.185
   73SBC   C0F850973   3.318   9.422   7.285
   73SBC   C0F950974   3.419   9.773   7.218
   73SBC   C0FA50975   3.529   9.861   7.209
   73SBC   H01550976   3.514   9.966   7.188
   73SBC   C0FB50977   3.653   9.808   7.242
   73SBC   C0FD50978   3.667   9.673   7.269
   73SBC   C0FC50979   3.765   9.902   7.228
   73SBC   O00A50980   3.755  10.016   7.196
   73SBC   C0EV50981   4.024   9.666   7.354
   73SBC   C0EF50982   4.248   9.521   7.419
   73SBC   C0EI50983   4.237   9.263   7.509
   73SBC   C0DQ50984   4.243   9.129   7.555
   73SBC   C0CE50985   4.255   8.866   7.646
   73SBC   H00U50986   4.570   8.942   7.746
   73SBC   C0CA50987   4.618   8.683   7.723
   73SBC   C0C950988   4.625   8.547   7.780
   73SBC   C0C850989   4.755   8.480   7.763
   73SBC   C0C750990   4.809   8.363   7.833
   73SBC   C0C650991   4.944   8.327   7.787
   73SBC   C0C550992   5.059   8.256   7.839
   73SBC   C0CQ50993   5.186   8.287   7.782
   73SBC   C0D150994   5.194   8.399   7.703
   73SBC   C0D850995   5.313   8.468   7.729
   73SBC   C0D750996   5.402   8.363   7.779
   73SBC   C0D650997   5.527   8.384   7.840
   73SBC   C0D550998   5.598   8.289   7.921
   73SBC   C0D450999   5.577   8.159   7.959
   73SBC   C0D351000   5.655   8.126   8.077
   73SBC   C0CX51001   5.596   8.022   8.152
   73SBC   C0CW51002   5.454   8.018   8.103
   73SBC   C0CV51003   5.330   7.943   8.126
   73SBC   C0D251004   5.333   7.813   8.189
   73SBC   C09D51005   5.450   7.743   8.231
   73SBC   C09C51006   5.440   7.604   8.258
   73SBC   C09B51007   5.544   7.513   8.267
   73SBC   C09A51008   5.670   7.570   8.282
   73SBC   C09951009   5.687   7.704   8.288
   73SBC   C09851010   5.822   7.740   8.273
   73SBC   C08Y51011   5.891   7.616   8.228
   73SBC   C08X51012   6.017   7.594   8.159
   73SBC   C08W51013   6.102   7.714   8.130
   73SBC   C08U51014   6.065   7.852   8.147
   73SBC   C08V51015   5.943   7.927   8.165
   73SBC   C0DC51016   5.982   8.067   8.174
   73SBC   H00W51017   5.917   8.148   8.205
   73SBC   C0DB51018   6.121   8.084   8.146
   73SBC   H00X51019   6.178   8.175   8.154
   73SBC   C08T51020   6.168   7.951   8.121
   73SBC   C08S51021   6.300   7.926   8.091
   73SBC   H00N51022   6.377   8.001   8.080
   73SBC   C08R51023   6.327   7.794   8.061
   73SBC   C08Q51024   6.455   7.758   8.017
   73SBC   H00O51025   6.529   7.835   8.000
   73SBC   C08P51026   6.500   7.627   7.990
   73SBC   C08O51027   6.640   7.595   7.955
   73SBC   H00P51028   6.715   7.672   7.944
   73SBC   C08N51029   6.677   7.461   7.932
   73SBC   C08M51030   6.813   7.429   7.896
   73SBC   O00851031   6.907   7.512   7.898
   73SBC   O00751032   6.843   7.289   7.862
   73SBC   C08H51033   6.744   7.196   7.856
   73SBC   C08G51034   6.770   7.065   7.809
   73SBC   C03V51035   6.881   7.017   7.737
   73SBC   H00951036   6.956   7.087   7.704
   73SBC   C03U51037   6.897   6.878   7.699
   73SBC   C03W51038   7.014   6.817   7.643
   73SBC   H00A51039   7.106   6.873   7.642
   73SBC   C03X51040   7.006   6.695   7.596
   73SBC   H00B51041   7.099   6.651   7.563
   73SBC   O00551042   6.896   6.618   7.593
   73SBC   C03O51043   6.784   6.667   7.651
   73SBC   C03N51044   6.671   6.593   7.647
   73SBC   O00051045   6.671   6.476   7.572
   73SBC   C01951046   6.560   6.402   7.560
   73SBC   C01851047   6.438   6.442   7.606
   73SBC   C01751048   6.432   6.562   7.683
   73SBC   C01651049   6.314   6.608   7.730
   73SBC   C01551050   6.202   6.529   7.694
   73SBC   C01451051   6.078   6.573   7.735
   73SBC   C01351052   6.055   6.693   7.811
   73SBC   C01251053   5.911   6.705   7.817
   73SBC   C01151054   5.870   6.613   7.720
   73SBC   C01051055   5.754   6.634   7.659
   73SBC   C00Z51056   5.697   6.556   7.560
   73SBC   C00Y51057   5.569   6.615   7.548
   73SBC   C01O51058   5.552   6.722   7.630
   73SBC   C01P51059   5.429   6.765   7.674
   73SBC   C02L51060   5.433   6.841   7.787
   73SBC   C02K51061   5.555   6.861   7.852
   73SBC   C01M51062   5.681   6.796   7.821
   73SBC   C02J51063   5.544   6.948   7.967
   73SBC   C02I51064   5.649   6.999   8.042
   73SBC   C02H51065   5.781   6.971   8.040
   73SBC   C01Q51066   5.863   6.880   7.970
   73SBC   C02G51067   5.999   6.908   7.996
   73SBC   C08951068   6.001   7.009   8.096
   73SBC   C08851069   6.112   7.091   8.063
   73SBC   C08751070   6.201   6.991   7.990
   73SBC   C08651071   6.328   7.028   7.931
   73SBC   C03S51072   6.429   6.938   7.868
   73SBC   N00651073   6.546   7.013   7.856
   73SBC   C08F51074   6.520   7.140   7.896
   73SBC   C01J51075   6.422   6.804   7.817
   73SBC   C03R51076   6.547   6.760   7.763
   73SBC   C03Q51077   6.663   6.843   7.763
   73SBC   C08E51078   6.394   7.154   7.945
   73SBC   C08D51079   6.354   7.281   7.994
   73SBC   C08K51080   6.442   7.389   7.975
   73SBC   C08C51081   6.231   7.315   8.054
   73SBC   C09151082   6.197   7.450   8.079
   73SBC   C09251083   6.279   7.562   8.056
   73SBC   C08B51084   6.117   7.236   8.086
   73SBC   C09051085   6.022   7.327   8.156
   73SBC   C09451086   5.902   7.280   8.218
   73SBC   C09551087   5.799   7.370   8.241
   73SBC   C09R51088   5.665   7.318   8.239
   73SBC   C09751089   5.688   7.191   8.180
   73SBC   C09651090   5.827   7.169   8.175
   73SBC   C01I51091   6.128   6.880   7.935
   73SBC   C08A51092   5.867   7.050   8.118
   73SBC   C09L51093   5.599   7.104   8.121
   73SBC   C09K51094   5.456   7.108   8.104
   73SBC   C09J51095   5.372   7.193   8.181
   73SBC   C09I51096   5.239   7.210   8.152
   73SBC   C09O51097   5.149   7.149   8.055
   73SBC   C09N51098   5.171   7.034   7.975
   73SBC   C09M51099   5.291   6.970   7.946
   73SBC   C06O51100   5.059   6.984   7.900
   73SBC   C05M51101   4.930   7.030   7.931
   73SBC   C06P51102   4.912   7.140   8.008
   73SBC   C04251103   4.820   6.968   7.875
   73SBC   C04151104   4.827   6.863   7.786
   73SBC   C04051105   4.716   6.789   7.742
   73SBC   C03Z51106   4.729   6.681   7.657
   73SBC   C03Y51107   4.851   6.646   7.609
   73SBC   C02751108   4.861   6.538   7.524
   73SBC   C02651109   4.985   6.500   7.488
   73SBC   C02851110   5.000   6.385   7.412
   73SBC   C02951111   4.894   6.304   7.381
   73SBC   C02B51112   4.911   6.183   7.317
   73SBC   C02C51113   4.802   6.106   7.292
   73SBC   C02X51114   4.821   5.987   7.233
   73SBC   C03E51115   4.709   5.909   7.215
   73SBC   C03G51116   4.580   5.935   7.254
   73SBC   C04Q51117   4.563   6.059   7.310
   73SBC   C04R51118   4.433   6.103   7.346
   73SBC   C04S51119   4.414   6.224   7.412
   73SBC   C04L51120   4.529   6.307   7.437
   73SBC   C04M51121   4.655   6.268   7.390
   73SBC   C04K51122   4.511   6.424   7.512
   73SBC   C04F51123   4.392   6.459   7.555
   73SBC   C04E51124   4.278   6.379   7.528
   73SBC   C04D51125   4.152   6.417   7.579
   73SBC   C05051126   4.042   6.343   7.550
   73SBC   C05151127   3.923   6.389   7.601
   73SBC   C05Q51128   3.812   6.308   7.576
   73SBC   C05V51129   3.695   6.342   7.639
   73SBC   N00551130   3.582   6.256   7.637
   73SBC   C07V51131   3.589   6.135   7.565
   73SBC   C08251132   3.491   6.041   7.576
   73SBC   C08151133   3.371   6.064   7.651
   73SBC   C07C51134   3.354   6.188   7.714
   73SBC   C07B51135   3.236   6.221   7.780
   73SBC   C08051136   3.134   6.125   7.794
   73SBC   C07Z51137   3.020   6.165   7.860
   73SBC   H00L51138   2.944   6.090   7.875
   73SBC   C07951139   3.008   6.287   7.929
   73SBC   C07851140   3.113   6.382   7.919
   73SBC   C07751141   3.098   6.512   7.970
   73SBC   C07X51142   2.981   6.539   8.039
   73SBC   H00I51143   2.952   6.637   8.072
   73SBC   C07Y51144   2.872   6.447   8.050
   73SBC   H00H51145   2.787   6.465   8.114
   73SBC   C07651146   3.202   6.605   7.963
   73SBC   C06C51147   3.186   6.735   8.016
   73SBC   H00C51148   3.098   6.766   8.071
   73SBC   C06F51149   3.317   6.568   7.894
   73SBC   C06E51150   3.421   6.653   7.881
   73SBC   C06G51151   3.544   6.627   7.826
   73SBC   C06H51152   3.556   6.500   7.763
   73SBC   C06I51153   3.450   6.409   7.765
   73SBC   C06L51154   3.649   6.719   7.834
   73SBC   C06M51155   3.635   6.854   7.888
   73SBC   C06K51156   3.774   6.678   7.788
   73SBC   C05S51157   3.786   6.548   7.722
   73SBC   C05U51158   3.886   6.750   7.816
   73SBC   C05X51159   3.875   6.880   7.880
   73SBC   C05G51160   4.009   6.927   7.922
   73SBC   C05F51161   4.122   6.864   7.878
   73SBC   C05E51162   4.233   6.932   7.918
   73SBC   C04851163   4.359   6.899   7.876
   73SBC   C05651164   4.458   6.984   7.901
   73SBC   C04551165   4.579   6.947   7.858
   73SBC   C04751166   4.363   6.789   7.794
   73SBC   C04951167   4.247   6.719   7.755
   73SBC   C04B51168   4.254   6.612   7.673
   73SBC   C04651169   4.482   6.753   7.744
   73SBC   C04H51170   4.491   6.644   7.662
   73SBC   C05D51171   4.197   7.051   7.979
   73SBC   C04A51172   4.123   6.759   7.796
   73SBC   C05T51173   4.008   6.695   7.776
   73SBC   C05551174   4.019   6.578   7.700
   73SBC   C06D51175   3.410   6.782   7.940
   73SBC   C07W51176   3.331   6.438   7.836
   73SBC   C08551177   2.888   6.327   7.992
   73SBC   H00M51178   2.812   6.251   7.990
   73SBC   C08451179   3.153   6.000   7.736
   73SBC   H00J51180   3.076   5.925   7.749
   73SBC   C07A51181   3.226   6.347   7.845
   73SBC   C08351182   3.270   5.970   7.658
   73SBC   H00K51183   3.274   5.878   7.601
   73SBC   O00K51184   3.502   5.922   7.515
   73SBC   C0GO51185   3.613   5.897   7.446
   73SBC   C0GN51186   3.630   5.769   7.391
   73SBC   H01L51187   3.542   5.707   7.396
   73SBC   C0GM51188   3.753   5.725   7.335
   73SBC   C0GL51189   3.756   5.601   7.288
   73SBC   H01M51190   3.661   5.550   7.284
   73SBC   O00J51191   3.872   5.547   7.230
   73SBC   C0GK51192   3.979   5.637   7.225
   73SBC   H01N51193   4.064   5.601   7.169
   73SBC   C05K51194   3.979   5.764   7.280
   73SBC   C05J51195   4.102   5.843   7.295
   73SBC   C04Y51196   4.241   5.804   7.263
   73SBC   C04X51197   4.351   5.884   7.285
   73SBC   O00651198   4.264   5.678   7.208
   73SBC   C05351199   4.386   5.627   7.176
   73SBC   C04O51200   4.497   5.714   7.185
   73SBC   C03C51201   4.636   5.690   7.141
   73SBC   C03B51202   4.715   5.576   7.095
   73SBC   C05451203   4.666   5.446   7.111
   73SBC   C0GR51204   4.745   5.330   7.088
   73SBC   C03M51205   4.890   5.304   7.073
   73SBC   C03I51206   4.996   5.398   7.079
   73SBC   C03J51207   5.127   5.347   7.080
   73SBC   N00251208   5.239   5.433   7.096
   73SBC   C02U51209   5.369   5.374   7.108
   73SBC   C02T51210   5.482   5.452   7.133
   73SBC   C02Z51211   5.605   5.394   7.154
   73SBC   N00151212   5.714   5.477   7.206
   73SBC   C02R51213   5.833   5.409   7.246
   73SBC   C03251214   5.843   5.271   7.235
   73SBC   C03151215   5.733   5.192   7.186
   73SBC   H00751216   5.733   5.085   7.180
   73SBC   C03351217   5.968   5.212   7.279
   73SBC   H00351218   5.986   5.106   7.269
   73SBC   O00451219   6.069   5.287   7.340
   73SBC   C03451220   6.041   5.422   7.362
   73SBC   C03551221   6.143   5.488   7.435
   73SBC   C03651222   6.120   5.620   7.476
   73SBC   H00551223   6.192   5.671   7.537
   73SBC   C03751224   6.006   5.686   7.423
   73SBC   H00651225   5.976   5.785   7.454
   73SBC   C00D51226   5.919   5.622   7.331
   73SBC   C00C51227   5.816   5.693   7.275
   73SBC   C00B51228   5.799   5.843   7.270
   73SBC   C00A51229   5.860   5.972   7.323
   73SBC   C00951230   5.752   6.059   7.320
   73SBC   C00851231   5.742   6.180   7.386
   73SBC   C00751232   5.855   6.229   7.450
   73SBC   C00651233   5.849   6.350   7.519
   73SBC   C00551234   5.963   6.401   7.580
   73SBC   C00451235   6.089   6.344   7.565
   73SBC   C00351236   6.090   6.225   7.491
   73SBC   C00251237   6.219   6.172   7.466
   73SBC   C01C51238   6.330   6.246   7.500
   73SBC   C01B51239   6.462   6.212   7.452
   73SBC   H00051240   6.473   6.127   7.387
   73SBC   C00151241   6.222   6.045   7.405
   73SBC   C00051242   6.111   5.992   7.344
   73SBC   C01U51243   6.156   5.869   7.287
   73SBC   H00251244   6.102   5.793   7.232
   73SBC   C01T51245   6.299   5.849   7.327
   73SBC   O00251246   6.379   5.762   7.292
   73SBC   O00151247   6.334   5.961   7.397
   73SBC   C01S51248   5.977   6.164   7.437
   73SBC   C00N51249   5.618   6.241   7.389
   73SBC   C00M51250   5.508   6.188   7.319
   73SBC   C00J51251   5.516   6.072   7.253
   73SBC   C00I51252   5.413   5.990   7.223
   73SBC   C00H51253   5.433   5.854   7.190
   73SBC   C00G51254   5.555   5.795   7.188
   73SBC   C00F51255   5.575   5.663   7.198
   73SBC   C01X51256   5.324   5.777   7.161
   73SBC   C01W51257   5.198   5.830   7.170
   73SBC   C01V51258   5.179   5.965   7.213
   73SBC   C02051259   5.057   6.018   7.228
   73SBC   C01Z51260   5.091   5.751   7.146
   73SBC   C02Y51261   4.972   5.816   7.157
   73SBC   C03951262   4.858   5.747   7.113
   73SBC   C02W51263   5.099   5.617   7.116
   73SBC   C01Y51264   5.341   5.638   7.142
   73SBC   C00U51265   5.290   6.043   7.242
   73SBC   C00S51266   5.275   6.170   7.297
   73SBC   C00T51267   5.151   6.224   7.312
   73SBC   C00R51268   5.382   6.240   7.335
   73SBC   C00Q51269   5.368   6.358   7.401
   73SBC   C00V51270   5.244   6.409   7.423
   73SBC   C02451271   5.226   6.530   7.490
   73SBC   C00X51272   5.332   6.607   7.523
   73SBC   C00P51273   5.481   6.430   7.439
   73SBC   C00O51274   5.612   6.372   7.439
   73SBC   C00K51275   5.641   6.007   7.262
   73SBC   N00051276   5.984   6.037   7.364
   73SBC   C00L51277   5.665   5.876   7.230
   73SBC   H00451278   6.233   5.432   7.457
   73SBC   C02Q51279   5.928   5.487   7.311
   73SBC   C00E51280   5.706   5.616   7.222
   73SBC   C03051281   5.621   5.257   7.138
   73SBC   O00351282   5.514   5.185   7.105
   73SBC   C02S51283   5.470   5.585   7.154
   73SBC   C03851284   5.390   5.237   7.094
   73SBC   C03L51285   5.284   5.157   7.067
   73SBC   H00851286   5.301   5.051   7.061
   73SBC   C02V51287   5.226   5.565   7.114
   73SBC   C03K51288   5.153   5.208   7.068
   73SBC   C0BK51289   5.048   5.123   7.059
   73SBC   H00T51290   5.062   5.018   7.040
   73SBC   C03H51291   4.984   5.536   7.091
   73SBC   C0BL51292   4.916   5.161   7.054
   73SBC   C0GU51293   4.812   5.065   7.057
   73SBC   H01O51294   4.828   4.960   7.038
   73SBC   C0GT51295   4.674   5.094   7.081
   73SBC   H01P51296   4.605   5.011   7.086
   73SBC   C0GS51297   4.644   5.226   7.090
   73SBC   C0GV51298   4.512   5.276   7.112
   73SBC   C0GW51299   4.390   5.204   7.124
   73SBC   H01Q51300   4.373   5.097   7.127
   73SBC   C0GX51301   4.283   5.283   7.144
   73SBC   H01R51302   4.189   5.235   7.167
   73SBC   O00L51303   4.280   5.423   7.150
   73SBC   C0GQ51304   4.524   5.416   7.121
   73SBC   C03A51305   4.855   5.608   7.092
   73SBC   C05L51306   4.403   5.489   7.143
   73SBC   C04W51307   4.090   5.973   7.356
   73SBC   C05I51308   3.960   6.016   7.398
   73SBC   C05O51309   3.847   5.938   7.395
   73SBC   C05251310   3.946   6.142   7.459
   73SBC   C04V51311   4.197   6.058   7.368
   73SBC   C04U51312   4.178   6.186   7.426
   73SBC   N00951313   3.863   5.811   7.339
   73SBC   C0GP51314   3.724   5.980   7.437
   73SBC   C05W51315   3.709   6.104   7.500
   73SBC   C07D51316   3.463   6.287   7.708
   73SBC   C06J51317   3.676   6.465   7.704
   73SBC   C05P51318   3.822   6.185   7.508
   73SBC   C05R51319   3.909   6.502   7.677
   73SBC   C04Z51320   4.053   6.225   7.479
   73SBC   C04C51321   4.141   6.534   7.652
   73SBC   C04G51322   4.378   6.572   7.629
   73SBC   C04J51323   4.623   6.505   7.532
   73SBC   C04T51324   4.291   6.264   7.454
   73SBC   N00351325   4.325   6.014   7.329
   73SBC   C04P51326   4.477   5.846   7.240
   73SBC   C03D51327   4.728   5.791   7.148
   73SBC   C02151328   4.949   5.941   7.205
   73SBC   C03F51329   4.673   6.147   7.332
   73SBC   C02251330   5.040   6.144   7.283
   73SBC   C02A51331   4.765   6.347   7.416
   73SBC   C02351332   5.131   6.342   7.374
   73SBC   C02551333   5.099   6.570   7.526
   73SBC   C02D51334   5.085   6.682   7.609
   73SBC   C02E51335   5.196   6.754   7.658
   73SBC   C02N51336   5.190   6.842   7.766
   73SBC   C04N51337   4.751   6.465   7.489
   73SBC   C02P51338   4.960   6.718   7.654
   73SBC   C04I51339   4.613   6.611   7.614
   73SBC   C04451340   4.592   6.833   7.779
   73SBC   C04351341   4.953   6.822   7.751
   73SBC   C05N51342   5.069   6.877   7.810
   73SBC   C09U51343   5.020   7.204   8.070
   73SBC   C09V51344   4.992   7.326   8.136
   73SBC   C09X51345   5.091   7.403   8.186
   73SBC   C09Y51346   5.088   7.542   8.206
   73SBC   C0A151347   4.970   7.600   8.177
   73SBC   C0A251348   4.858   7.522   8.152
   73SBC   C0A451349   4.734   7.584   8.140
   73SBC   C07151350   4.624   7.507   8.122
   73SBC   C0A551351   4.499   7.569   8.117
   73SBC   C0A951352   4.491   7.710   8.123
   73SBC   C0A851353   4.604   7.783   8.133
   73SBC   C0AP51354   4.603   7.918   8.119
   73SBC   C0BY51355   4.722   7.981   8.099
   73SBC   C0BX51356   4.845   7.927   8.108
   73SBC   C0C251357   4.960   8.000   8.078
   73SBC   C0C351358   5.084   7.936   8.096
   73SBC   C0CT51359   5.088   7.814   8.153
   73SBC   C0C151360   4.954   8.122   8.014
   73SBC   C0C051361   4.825   8.188   8.008
   73SBC   C0A751362   4.847   7.796   8.149
   73SBC   C0BZ51363   4.718   8.117   8.058
   73SBC   C0BO51364   4.597   8.181   8.034
   73SBC   C0BN51365   4.476   8.108   8.041
   73SBC   C0BM51366   4.364   8.167   7.984
   73SBC   C0B951367   4.243   8.096   7.992
   73SBC   C0B851368   4.244   7.966   8.041
   73SBC   C0AD51369   4.365   7.907   8.087
   73SBC   C0AF51370   4.126   7.898   8.046
   73SBC   C0AG51371   4.010   7.948   7.989
   73SBC   C0B751372   4.012   8.080   7.943
   73SBC   C0AE51373   4.140   7.765   8.073
   73SBC   C0AB51374   4.260   7.692   8.098
   73SBC   C0AA51375   4.267   7.555   8.078
   73SBC   C0AJ51376   4.030   7.687   8.045
   73SBC   C0AK51377   4.033   7.547   8.065
   73SBC   C06W51378   3.919   7.500   8.012
   73SBC   C0AI51379   3.907   7.725   8.005
   73SBC   C0BP51380   4.613   8.295   7.956
   73SBC   C0BQ51381   4.493   8.357   7.892
   73SBC   C0BW51382   4.482   7.976   8.082
   73SBC   C0AC51383   4.372   7.769   8.111
   73SBC   C0A651384   4.727   7.720   8.146
   73SBC   C0A351385   4.966   7.737   8.161
   73SBC   C09Z51386   5.203   7.612   8.226
   73SBC   C09W51387   4.869   7.390   8.128
   73SBC   C07251388   4.763   7.315   8.088
   73SBC   C09H51389   5.206   7.332   8.211
   73SBC   C09G51390   5.308   7.405   8.261
   73SBC   C09P51391   5.411   7.317   8.240
   73SBC   C02O51392   5.422   7.011   8.004
   73SBC   C02M51393   5.305   6.889   7.831
   73SBC   C02F51394   5.317   6.715   7.611
   73SBC   C00W51395   5.456   6.550   7.498
   73SBC   C01R51396   5.726   6.427   7.500
   73SBC   C01N51397   5.667   6.722   7.704
   73SBC   C01L51398   5.812   6.793   7.875
   73SBC   C01H51399   6.166   6.768   7.853
   73SBC   C01K51400   5.963   6.520   7.674
   73SBC   C01E51401   6.205   6.413   7.614
   73SBC   C01G51402   6.302   6.725   7.806
   73SBC   C01D51403   6.325   6.365   7.569
   73SBC   C01A51404   6.573   6.292   7.482
   73SBC   H00151405   6.668   6.263   7.440
   73SBC   C01F51406   6.551   6.640   7.699
   73SBC   C03P51407   6.783   6.795   7.709
   73SBC   C03T51408   6.667   6.972   7.810
   73SBC   C08I51409   6.615   7.233   7.901
   73SBC   C08J51410   6.578   7.360   7.938
   73SBC   C08L51411   6.406   7.525   8.007
   73SBC   C09351412   6.233   7.693   8.076
   73SBC   C08Z51413   6.062   7.463   8.130
   73SBC   C09T51414   5.817   7.870   8.212
   73SBC   C09S51415   5.797   7.510   8.261
   73SBC   C09Q51416   5.538   7.376   8.253
   73SBC   C09F51417   5.315   7.548   8.254
   73SBC   C09E51418   5.588   7.788   8.241
   73SBC   C0A051419   5.206   7.751   8.192
   73SBC   C0CU51420   5.207   7.997   8.073
   73SBC   C0CR51421   5.201   8.111   7.986
   73SBC   C0CZ51422   5.323   8.163   7.938
   73SBC   C0DA51423   5.667   7.907   8.211
   73SBC   C0D951424   5.697   8.259   8.123
   73SBC   H00V51425   5.730   8.288   8.222
   73SBC   C0CY51426   5.444   8.114   7.996
   73SBC   C0DF51427   5.672   8.355   8.016
   73SBC   C0DE51428   5.670   8.492   7.978
   73SBC   C0GI51429   5.745   8.596   8.035
   73SBC   H01K51430   5.819   8.578   8.112
   73SBC   C0GJ51431   5.726   8.714   7.978
   73SBC   H01J51432   5.800   8.788   8.005
   73SBC   O00I51433   5.633   8.744   7.880
   73SBC   C0GH51434   5.550   8.647   7.832
   73SBC   C0GG51435   5.435   8.693   7.761
   73SBC   O00G51436   5.429   8.826   7.747
   73SBC   C0G851437   5.320   8.887   7.688
   73SBC   C0G951438   5.350   9.017   7.644
   73SBC   H01G51439   5.451   9.055   7.644
   73SBC   C0GA51440   5.247   9.081   7.579
   73SBC   H01H51441   5.271   9.178   7.537
   73SBC   C0GB51442   5.110   9.034   7.561
   73SBC   C0EP51443   5.086   8.910   7.619
   73SBC   C0E851444   4.944   8.864   7.633
   73SBC   C0CK51445   4.874   8.750   7.692
   73SBC   C0CL51446   4.935   8.625   7.673
   73SBC   C0E951447   5.076   8.604   7.677
   73SBC   C0GE51448   5.198   8.684   7.688
   73SBC   C0E751449   4.851   8.930   7.562
   73SBC   C0CJ51450   4.728   8.865   7.566
   73SBC   C0E651451   4.633   8.910   7.477
   73SBC   H00Y51452   4.538   8.858   7.477
   73SBC   C0EO51453   4.657   9.030   7.412
   73SBC   H01151454   4.574   9.066   7.354
   73SBC   C0G651455   4.777   9.100   7.424
   73SBC   C0G551456   4.800   9.239   7.381
   73SBC   H01F51457   4.722   9.296   7.332
   73SBC   C0GD51458   4.926   9.288   7.385
   73SBC   H01I51459   4.937   9.389   7.351
   73SBC   O00H51460   5.034   9.219   7.433
   73SBC   C0EQ51461   4.878   9.048   7.503
   73SBC   C0GC51462   5.005   9.102   7.500
   73SBC   C0G751463   5.194   8.821   7.663
   73SBC   C0DD51464   5.580   8.516   7.873
   73SBC   C0GF51465   5.321   8.612   7.722
   73SBC   C0CO51466   5.077   8.464   7.668
   73SBC   C0D051467   5.313   8.266   7.839
   73SBC   C0C451468   5.070   8.165   7.948
   73SBC   C0CN51469   4.953   8.403   7.669
   73SBC   C0CP51470   4.760   8.306   7.949
   73SBC   C0CM51471   4.856   8.506   7.674
   73SBC   C0CI51472   4.731   8.764   7.668
   73SBC   C0CD51473   4.257   8.737   7.700
   73SBC   C0BR51474   4.501   8.481   7.820
   73SBC   C0CS51475   4.371   8.288   7.915
   73SBC   C0B651476   4.130   8.154   7.941
   73SBC   C0CG51477   4.138   8.532   7.757
   73SBC   C0CF51478   4.138   8.660   7.703
   73SBC   C0E551479   4.141   8.915   7.589
   73SBC   C0DT51480   3.914   9.010   7.463
   73SBC   C0DL51481   3.786   8.689   7.606
   73SBC   C0DM51482   3.666   8.616   7.610
   73SBC   C0DY51483   3.550   8.794   7.499
   73SBC   C0DU51484   3.800   9.041   7.399
   73SBC   C0F051485   3.681   9.222   7.292
   73SBC   C0F451486   3.446   9.363   7.280
   73SBC   C0FG51487   3.333   9.022   7.319
   73SBC   O00B51488   3.201   9.353   7.320
   73SBC   C0FN51489   3.214   8.987   7.357
   73SBC   C0DZ51490   3.431   8.846   7.451
   73SBC   O00C51491   3.187   8.623   7.600
   73SBC   C0FR51492   3.174   8.510   7.667
   73SBC   O00D51493   3.062   8.475   7.704
   73SBC   C0E051494   3.550   8.675   7.561
   73SBC   C0E351495   3.297   8.434   7.698
   73SBC   C0AW51496   3.304   8.305   7.750
   73SBC   C0AV51497   3.188   8.223   7.771
   73SBC   H00Q51498   3.088   8.252   7.741
   73SBC   C0AU51499   3.192   8.096   7.832
   73SBC   H00R51500   3.098   8.043   7.846
   73SBC   C0AT51501   3.319   8.042   7.867
   73SBC   C0AS51502   3.378   7.926   7.927
   73SBC   C0AR51503   3.302   7.815   7.981
   73SBC   C0BE51504   3.428   8.122   7.839
   73SBC   C0DN51505   3.668   8.494   7.672
   73SBC   C0AX51506   3.425   8.253   7.781
   73SBC   C0BB51507   3.780   8.313   7.783
   73SBC   C0BD51508   3.543   8.057   7.871
   73SBC   C0B251509   3.894   8.128   7.886
   73SBC   C0AH51510   3.890   7.869   7.976
   73SBC   C0BF51511   3.522   7.933   7.923
   73SBC   C0AL51512   3.834   7.606   8.000
   73SBC   C07U51513   3.484   7.632   7.957
   73SBC   C0AQ51514   3.350   7.679   7.967
   73SBC   C0BG51515   3.156   7.798   7.984
   73SBC   C0FY51516   2.974   7.508   8.088
   73SBC   C0BJ51517   3.052   7.854   8.076
   73SBC   H00S51518   3.060   7.948   8.130
   73SBC   C0FZ51519   2.893   7.550   8.192
   73SBC   C07S51520   3.049   7.383   8.097
   73SBC   C0G151521   2.861   7.252   8.391
   73SBC   C07K51522   3.080   6.958   8.336
   73SBC   C07H51523   3.187   7.133   8.132
   73SBC   C06B51524   3.295   6.818   8.004
   73SBC   C06N51525   3.505   6.882   7.938
   73SBC   C06651526   3.387   7.251   8.015
   73SBC   C06251527   3.682   7.325   7.940
   73SBC   C05Y51528   3.748   6.938   7.896
   73SBC   C06151529   3.814   7.309   7.904
   73SBC   C05H51530   4.058   7.044   7.995
   73SBC   C06V51531   3.919   7.370   7.973
   73SBC   C06Y51532   4.155   7.481   8.068
   73SBC   C05C51533   4.307   7.149   7.996
   73SBC   C06Z51534   4.390   7.491   8.093
   73SBC   C07051535   4.636   7.372   8.092
   73SBC   C05B51536   4.436   7.099   7.973
   73SBC   C05751537   4.692   7.012   7.907
   73SBC   C05951538   4.784   7.187   8.032
   74SBC   C05851539   6.732   1.765   6.141
   74SBC   C05A51540   6.775   1.786   6.268
   74SBC   C06Q51541   6.694   1.846   6.361
   74SBC   C06R51542   6.739   1.877   6.490
   74SBC   C06S51543   6.872   1.845   6.527
   74SBC   C06T51544   6.921   1.891   6.654
   74SBC   C06U51545   7.048   1.868   6.731
   74SBC   C06X51546   7.155   1.785   6.706
   74SBC   C06051547   7.263   1.809   6.800
   74SBC   C05Z51548   7.359   1.718   6.856
   74SBC   C06851549   7.373   1.783   6.995
   74SBC   C06751550   7.480   1.755   7.099
   74SBC   C06951551   7.583   1.658   7.071
   74SBC   C06A51552   7.704   1.635   7.147
   74SBC   C07351553   7.781   1.733   7.212
   74SBC   C07P51554   7.922   1.729   7.189
   74SBC   C07O51555   7.981   1.676   7.069
   74SBC   H00D51556   7.927   1.629   6.988
   74SBC   C07N51557   8.120   1.686   7.052
   74SBC   H00E51558   8.165   1.659   6.958
   74SBC   C07M51559   8.198   1.746   7.143
   74SBC   H00F51560   8.304   1.758   7.131
   74SBC   C07L51561   8.146   1.799   7.259
   74SBC   C07Q51562   8.225   1.857   7.372
   74SBC   H00G51563   8.331   1.870   7.354
   74SBC   O00F51564   8.172   1.904   7.486
   74SBC   C07J51565   8.038   1.900   7.495
   74SBC   C07I51566   7.954   1.838   7.401
   74SBC   N00451567   7.811   1.842   7.421
   74SBC   C07R51568   7.761   1.898   7.538
   74SBC   C07T51569   7.850   1.963   7.622
   74SBC   C0FX51570   7.806   2.038   7.729
   74SBC   C0FW51571   7.884   2.117   7.817
   74SBC   C0G051572   8.025   2.103   7.805
   74SBC   C0G251573   8.110   2.164   7.901
   74SBC   H01E51574   8.216   2.153   7.885
   74SBC   C0G351575   8.049   2.238   8.005
   74SBC   H01C51576   8.094   2.289   8.089
   74SBC   C0G451577   7.912   2.250   8.009
   74SBC   H01D51578   7.868   2.295   8.097
   74SBC   O00E51579   8.070   2.037   7.696
   74SBC   C0FV51580   7.818   2.188   7.923
   74SBC   C0FU51581   7.675   2.200   7.938
   74SBC   H01B51582   7.617   2.258   8.008
   74SBC   C0FT51583   7.599   2.114   7.853
   74SBC   C0FS51584   7.463   2.089   7.824
   74SBC   C0BI51585   7.449   1.970   7.748
   74SBC   C0BH51586   7.329   1.978   7.673
   74SBC   C07F51587   7.326   1.972   7.529
   74SBC   C07E51588   7.411   1.907   7.432
   74SBC   C07G51589   7.542   1.874   7.453
   74SBC   C07451590   7.587   1.828   7.335
   74SBC   C06551591   7.377   1.893   7.301
   74SBC   C06451592   7.263   1.959   7.262
   74SBC   C06351593   7.216   1.966   7.131
   74SBC   C07551594   7.094   2.050   7.148
   74SBC   C0AM51595   7.071   2.097   7.281
   74SBC   C0AN51596   6.970   2.190   7.337
   74SBC   C0AO51597   6.840   2.239   7.272
   74SBC   C0B151598   6.764   2.346   7.327
   74SBC   C0B051599   6.810   2.416   7.435
   74SBC   C0AZ51600   6.757   2.534   7.482
   74SBC   C0AY51601   6.835   2.615   7.568
   74SBC   N00751602   6.793   2.745   7.603
   74SBC   C0E251603   6.869   2.831   7.686
   74SBC   C0E151604   6.812   2.954   7.714
   74SBC   C0E451605   6.897   3.046   7.781
   74SBC   C0FF51606   6.860   3.186   7.799
   74SBC   C0FJ51607   6.937   3.296   7.840
   74SBC   C0FK51608   7.072   3.309   7.802
   74SBC   H01651609   7.133   3.227   7.765
   74SBC   C0FL51610   7.108   3.451   7.783
   74SBC   H01751611   7.192   3.501   7.737
   74SBC   C0FM51612   6.985   3.515   7.816
   74SBC   C0FH51613   6.905   3.629   7.767
   74SBC   C0FI51614   6.770   3.586   7.775
   74SBC   C0F351615   6.679   3.625   7.675
   74SBC   C0F251616   6.578   3.534   7.651
   74SBC   C0DW51617   6.574   3.398   7.689
   74SBC   C0FE51618   6.677   3.354   7.770
   74SBC   C0DV51619   6.496   3.305   7.620
   74SBC   C0DX51620   6.532   3.175   7.619
   74SBC   C0DK51621   6.452   3.079   7.545
   74SBC   C0DJ51622   6.345   3.125   7.465
   74SBC   C0DI51623   6.265   3.042   7.402
   74SBC   C0DH51624   6.298   2.906   7.392
   74SBC   C0DG51625   6.417   2.862   7.447
   74SBC   C0BV51626   6.459   2.731   7.429
   74SBC   C0BC51627   6.584   2.691   7.481
   74SBC   C0BA51628   6.382   2.645   7.352
   74SBC   C0B451629   6.439   2.532   7.304
   74SBC   C0B351630   6.568   2.501   7.342
   74SBC   C0B551631   6.373   2.456   7.212
   74SBC   C0BU51632   6.246   2.496   7.166
   74SBC   C0BT51633   6.185   2.610   7.215
   74SBC   C0BS51634   6.061   2.647   7.163
   74SBC   C0CC51635   6.014   2.775   7.189
   74SBC   C0CB51636   5.889   2.815   7.150
   74SBC   C0CH51637   5.874   2.957   7.137
   74SBC   C0DO51638   5.966   3.048   7.186
   74SBC   C0DP51639   5.961   3.189   7.162
   74SBC   C0EA51640   5.865   3.243   7.072
   74SBC   H01251641   5.782   3.184   7.035
   74SBC   O00951642   5.866   3.370   7.024
   74SBC   C0EH51643   5.975   3.442   7.057
   74SBC   C0EG51644   6.001   3.558   6.990
   74SBC   C0EJ51645   5.937   3.624   6.873
   74SBC   H01051646   5.846   3.586   6.827
   74SBC   C0EK51647   6.015   3.736   6.835
   74SBC   H00Z51648   5.994   3.805   6.755
   74SBC   C0EL51649   6.127   3.736   6.919
   74SBC   C0EM51650   6.244   3.819   6.933
   74SBC   C0EW51651   6.277   3.934   6.851
   74SBC   H01351652   6.212   3.958   6.768
   74SBC   C0EX51653   6.406   4.009   6.879
   74SBC   H01451654   6.430   4.103   6.834
   74SBC   C0F151655   6.476   3.978   6.998
   74SBC   C0EU51656   6.443   3.866   7.073
   74SBC   C0ET51657   6.503   3.819   7.197
   74SBC   C0ES51658   6.425   3.704   7.236
   74SBC   C0EE51659   6.326   3.684   7.139
   74SBC   C0ED51660   6.211   3.603   7.120
   74SBC   C0EC51661   6.171   3.489   7.200
   74SBC   C0EB51662   6.245   3.443   7.310
   74SBC   C0EN51663   6.338   3.536   7.384
   74SBC   C0ER51664   6.395   3.486   7.501
   74SBC   C0DS51665   6.233   3.313   7.358
   74SBC   C0DR51666   6.148   3.226   7.303
   74SBC   C0EY51667   6.409   3.658   7.360
   74SBC   C0EZ51668   6.511   3.685   7.463
   74SBC   C0F551669   6.638   3.759   7.476
   74SBC   C0F651670   6.674   3.861   7.381
   74SBC   N00851671   6.795   3.930   7.416
   74SBC   C0F751672   6.884   3.891   7.517
   74SBC   C0FQ51673   6.998   3.962   7.543
   74SBC   H01851674   7.064   3.929   7.621
   74SBC   C0FP51675   7.024   4.085   7.478
   74SBC   H01951676   7.103   4.149   7.514
   74SBC   C0FO51677   6.939   4.125   7.380
   74SBC   H01A51678   6.969   4.217   7.333
   74SBC   C0F851679   6.846   3.777   7.593
   74SBC   C0F951680   6.834   4.041   7.332
   74SBC   C0FA51681   6.757   4.081   7.218
   74SBC   H01551682   6.777   4.177   7.173
   74SBC   C0FB51683   6.645   4.006   7.183
   74SBC   C0FD51684   6.611   3.895   7.258
   74SBC   C0FC51685   6.586   4.053   7.051
   74SBC   O00A51686   6.622   4.157   6.995
   74SBC   C0EV51687   6.332   3.790   7.044
   74SBC   C0EF51688   6.116   3.627   7.017
   74SBC   C0EI51689   6.069   3.403   7.156
   74SBC   C0DQ51690   6.059   3.274   7.211
   74SBC   C0CE51691   6.071   2.996   7.266
   74SBC   H00U51692   5.784   2.987   7.086
   74SBC   C0CA51693   5.793   2.714   7.105
   74SBC   C0C951694   5.845   2.584   7.057
   74SBC   C0C851695   5.755   2.496   6.985
   74SBC   C0C751696   5.782   2.404   6.875
   74SBC   C0C651697   5.676   2.326   6.825
   74SBC   C0C551698   5.633   2.277   6.693
   74SBC   C0CQ51699   5.492   2.266   6.665
   74SBC   C0D151700   5.408   2.339   6.747
   74SBC   C0D851701   5.310   2.406   6.670
   74SBC   C0D751702   5.305   2.319   6.553
   74SBC   C0D651703   5.215   2.353   6.443
   74SBC   C0D551704   5.241   2.291   6.317
   74SBC   C0D451705   5.327   2.193   6.268
   74SBC   C0D351706   5.326   2.201   6.127
   74SBC   C0CX51707   5.453   2.158   6.070
   74SBC   C0CW51708   5.545   2.161   6.186
   74SBC   C0CV51709   5.687   2.135   6.211
   74SBC   C0D251710   5.777   2.088   6.109
   74SBC   C09D51711   5.746   2.080   5.971
   74SBC   C09C51712   5.852   2.051   5.875
   74SBC   C09B51713   5.836   2.036   5.736
   74SBC   C09A51714   5.711   2.063   5.684
   74SBC   C09951715   5.611   2.097   5.764
   74SBC   C09851716   5.487   2.056   5.710
   74SBC   C08Y51717   5.512   1.973   5.598
   74SBC   C08X51718   5.429   1.878   5.526
   74SBC   C08W51719   5.295   1.859   5.570
   74SBC   C08U51720   5.224   1.910   5.695
   74SBC   C08V51721   5.268   1.984   5.811
   74SBC   C0DC51722   5.151   2.010   5.890
   74SBC   H00W51723   5.168   2.054   5.987
   74SBC   C0DB51724   5.032   1.978   5.823
   74SBC   H00X51725   4.939   2.005   5.871
   74SBC   C08T51726   5.079   1.908   5.705
   74SBC   C08S51727   4.996   1.851   5.609
   74SBC   H00N51728   4.889   1.855   5.619
   74SBC   C08R51729   5.060   1.772   5.513
   74SBC   C08Q51730   4.989   1.682   5.425
   74SBC   H00O51731   4.883   1.669   5.444
   74SBC   C08P51732   5.043   1.605   5.317
   74SBC   C08O51733   4.971   1.515   5.230
   74SBC   H00P51734   4.863   1.518   5.238
   74SBC   C08N51735   5.036   1.434   5.132
   74SBC   C08M51736   4.956   1.344   5.049
   74SBC   O00851737   4.833   1.324   5.046
   74SBC   O00751738   5.027   1.277   4.953
   74SBC   C08H51739   5.166   1.278   4.941
   74SBC   C08G51740   5.232   1.190   4.859
   74SBC   C03V51741   5.177   1.104   4.764
   74SBC   H00951742   5.069   1.106   4.753
   74SBC   C03U51743   5.257   1.016   4.686
   74SBC   C03W51744   5.210   0.925   4.584
   74SBC   H00A51745   5.105   0.913   4.560
   74SBC   C03X51746   5.302   0.839   4.532
   74SBC   H00B51747   5.265   0.775   4.453
   74SBC   O00551748   5.428   0.824   4.568
   74SBC   C03O51749   5.476   0.915   4.657
   74SBC   C03N51750   5.610   0.916   4.691
   74SBC   O00051751   5.689   0.829   4.617
   74SBC   C01951752   5.815   0.815   4.653
   74SBC   C01851753   5.879   0.915   4.723
   74SBC   C01751754   5.805   1.021   4.774
   74SBC   C01651755   5.872   1.128   4.836
   74SBC   C01551756   6.010   1.115   4.842
   74SBC   C01451757   6.083   1.223   4.890
   74SBC   C01351758   6.026   1.326   4.962
   74SBC   C01251759   6.137   1.404   5.022
   74SBC   C01151760   6.255   1.337   4.966
   74SBC   C01051761   6.379   1.382   5.002
   74SBC   C00Z51762   6.499   1.318   4.981
   74SBC   C00Y51763   6.586   1.379   5.072
   74SBC   C01O51764   6.528   1.484   5.136
   74SBC   C01P51765   6.560   1.516   5.275
   74SBC   C02L51766   6.464   1.583   5.348
   74SBC   C02K51767   6.339   1.603   5.289
   74SBC   C01M51768   6.291   1.541   5.168
   74SBC   C02J51769   6.261   1.692   5.362
   74SBC   C02I51770   6.126   1.723   5.340
   74SBC   C02H51771   6.033   1.671   5.246
   74SBC   C01Q51772   6.039   1.578   5.152
   74SBC   C02G51773   5.906   1.553   5.106
   74SBC   C08951774   5.827   1.659   5.151
   74SBC   C08851775   5.693   1.616   5.162
   74SBC   C08751776   5.694   1.487   5.085
   74SBC   C08651777   5.576   1.413   5.051
   74SBC   C03S51778   5.567   1.306   4.960
   74SBC   N00651779   5.431   1.286   4.941
   74SBC   C08F51780   5.363   1.373   5.019
   74SBC   C01J51781   5.656   1.228   4.890
   74SBC   C03R51782   5.595   1.121   4.815
   74SBC   C03Q51783   5.458   1.112   4.791
   74SBC   C08E51784   5.444   1.451   5.094
   74SBC   C08D51785   5.383   1.540   5.187
   74SBC   C08K51786   5.241   1.536   5.206
   74SBC   C08C51787   5.452   1.641   5.252
   74SBC   C09151788   5.389   1.717   5.352
   74SBC   C09251789   5.254   1.701   5.385
   74SBC   C08B51790   5.590   1.677   5.250
   74SBC   C09051791   5.601   1.783   5.347
   74SBC   C09451792   5.724   1.851   5.384
   74SBC   C09551793   5.747   1.942   5.495
   74SBC   C09R51794   5.884   1.939   5.529
   74SBC   C09751795   5.952   1.861   5.440
   74SBC   C09651796   5.860   1.813   5.350
   74SBC   C01I51797   5.829   1.454   5.037
   74SBC   C08A51798   5.906   1.718   5.254
   74SBC   C09L51799   6.084   1.811   5.437
   74SBC   C09K51800   6.194   1.843   5.523
   74SBC   C09J51801   6.174   1.892   5.655
   74SBC   C09I51802   6.264   1.874   5.764
   74SBC   C09O51803   6.397   1.814   5.786
   74SBC   C09N51804   6.470   1.741   5.688
   74SBC   C09M51805   6.429   1.705   5.557
   74SBC   C06O51806   6.596   1.697   5.735
   74SBC   C05M51807   6.641   1.722   5.872
   74SBC   C06P51808   6.564   1.786   5.963
   74SBC   C04251809   6.762   1.666   5.922
   74SBC   C04151810   6.834   1.585   5.837
   74SBC   C04051811   6.955   1.528   5.884
   74SBC   C03Z51812   7.021   1.433   5.809
   74SBC   C03Y51813   6.977   1.404   5.681
   74SBC   C02751814   7.043   1.303   5.609
   74SBC   C02651815   6.999   1.270   5.487
   74SBC   C02851816   7.064   1.172   5.414
   74SBC   C02951817   7.163   1.101   5.473
   74SBC   C02B51818   7.217   0.995   5.407
   74SBC   C02C51819   7.323   0.924   5.465
   74SBC   C02X51820   7.377   0.817   5.400
   74SBC   C03E51821   7.471   0.739   5.465
   74SBC   C03G51822   7.514   0.753   5.595
   74SBC   C04Q51823   7.463   0.864   5.659
   74SBC   C04R51824   7.492   0.887   5.789
   74SBC   C04S51825   7.438   0.992   5.855
   74SBC   C04L51826   7.350   1.079   5.787
   74SBC   C04M51827   7.310   1.054   5.660
   74SBC   C04K51828   7.292   1.184   5.857
   74SBC   C04F51829   7.331   1.210   5.988
   74SBC   C04E51830   7.426   1.131   6.052
   74SBC   C04D51831   7.468   1.157   6.183
   74SBC   C05051832   7.563   1.080   6.249
   74SBC   C05151833   7.597   1.111   6.382
   74SBC   C05Q51834   7.679   1.022   6.447
   74SBC   C05V51835   7.718   1.056   6.577
   74SBC   N00551836   7.808   0.970   6.644
   74SBC   C07V51837   7.854   0.855   6.578
   74SBC   C08251838   7.944   0.768   6.646
   74SBC   C08151839   7.988   0.791   6.778
   74SBC   C07C51840   7.942   0.908   6.839
   74SBC   C07B51841   7.987   0.941   6.963
   74SBC   C08051842   8.084   0.863   7.031
   74SBC   C07Z51843   8.151   0.912   7.143
   74SBC   H00L51844   8.238   0.855   7.173
   74SBC   C07951845   8.115   1.032   7.205
   74SBC   C07851846   8.009   1.105   7.144
   74SBC   C07751847   7.971   1.223   7.200
   74SBC   C07X51848   8.042   1.273   7.321
   74SBC   H00I51849   8.009   1.361   7.374
   74SBC   C07Y51850   8.156   1.209   7.374
   74SBC   H00H51851   8.210   1.257   7.454
   74SBC   C07651852   7.872   1.296   7.140
   74SBC   C06C51853   7.835   1.419   7.200
   74SBC   H00C51854   7.875   1.469   7.287
   74SBC   C06F51855   7.812   1.258   7.020
   74SBC   C06E51856   7.717   1.332   6.959
   74SBC   C06G51857   7.662   1.311   6.835
   74SBC   C06H51858   7.709   1.202   6.767
   74SBC   C06I51859   7.802   1.109   6.834
   74SBC   C06L51860   7.570   1.400   6.778
   74SBC   C06M51861   7.517   1.515   6.851
   74SBC   C06K51862   7.531   1.368   6.646
   74SBC   C05S51863   7.583   1.255   6.573
   74SBC   C05U51864   7.437   1.452   6.584
   74SBC   C05X51865   7.371   1.561   6.655
   74SBC   C05G51866   7.259   1.613   6.571
   74SBC   C05F51867   7.239   1.581   6.439
   74SBC   C05E51868   7.135   1.644   6.382
   74SBC   C04851869   7.097   1.625   6.249
   74SBC   C05651870   6.971   1.666   6.215
   74SBC   C04551871   6.932   1.647   6.088
   74SBC   C04751872   7.168   1.532   6.179
   74SBC   C04951873   7.269   1.456   6.243
   74SBC   C04B51874   7.322   1.345   6.180
   74SBC   C04651875   7.118   1.493   6.055
   74SBC   C04H51876   7.176   1.389   5.989
   74SBC   C05D51877   7.067   1.712   6.479
   74SBC   C04A51878   7.310   1.481   6.375
   74SBC   C05T51879   7.398   1.409   6.451
   74SBC   C05551880   7.447   1.299   6.379
   74SBC   C06D51881   7.681   1.455   7.018
   74SBC   C07W51882   7.855   1.139   6.961
   74SBC   C08551883   8.189   1.088   7.312
   74SBC   H00M51884   8.268   1.027   7.352
   74SBC   C08451885   8.116   0.739   6.977
   74SBC   H00J51886   8.183   0.674   7.032
   74SBC   C07A51887   7.948   1.059   7.025
   74SBC   C08351888   8.069   0.704   6.849
   74SBC   H00K51889   8.101   0.609   6.809
   74SBC   O00K51890   7.992   0.660   6.579
   74SBC   C0GO51891   7.978   0.651   6.444
   74SBC   C0GN51892   8.043   0.551   6.378
   74SBC   H01L51893   8.103   0.487   6.442
   74SBC   C0GM51894   8.013   0.520   6.247
   74SBC   C0GL51895   8.083   0.425   6.184
   74SBC   H01M51896   8.165   0.374   6.233
   74SBC   O00J51897   8.042   0.378   6.064
   74SBC   C0GK51898   7.951   0.452   5.997
   74SBC   H01N51899   7.949   0.447   5.889
   74SBC   C05K51900   7.890   0.557   6.054
   74SBC   C05J51901   7.788   0.633   5.981
   74SBC   C04Y51902   7.743   0.605   5.847
   74SBC   C04X51903   7.642   0.687   5.777
   74SBC   O00651904   7.778   0.490   5.780
   74SBC   C05351905   7.736   0.461   5.652
   74SBC   C04O51906   7.646   0.546   5.580
   74SBC   C03C51907   7.591   0.528   5.446
   74SBC   C03B51908   7.591   0.423   5.349
   74SBC   C05451909   7.676   0.314   5.354
   74SBC   C0GR51910   7.694   0.229   5.235
   74SBC   C03M51911   7.625   0.213   5.098
   74SBC   C03I51912   7.514   0.290   5.055
   74SBC   C03J51913   7.443   0.244   4.939
   74SBC   N00251914   7.323   0.310   4.894
   74SBC   C02U51915   7.244   0.260   4.784
   74SBC   C02T51916   7.135   0.325   4.736
   74SBC   C02Z51917   7.050   0.267   4.640
   74SBC   N00151918   6.930   0.325   4.597
   74SBC   C02R51919   6.846   0.255   4.504
   74SBC   C03251920   6.889   0.138   4.446
   74SBC   C03151921   7.010   0.079   4.492
   74SBC   H00751922   7.041  -0.017   4.455
   74SBC   C03351923   6.798   0.085   4.350
   74SBC   H00351924   6.799  -0.016   4.310
   74SBC   O00451925   6.676   0.138   4.319
   74SBC   C03451926   6.635   0.244   4.392
   74SBC   C03551927   6.509   0.298   4.359
   74SBC   C03651928   6.473   0.427   4.400
   74SBC   H00551929   6.380   0.471   4.367
   74SBC   C03751930   6.560   0.504   4.482
   74SBC   H00651931   6.542   0.609   4.500
   74SBC   C00D51932   6.683   0.444   4.523
   74SBC   C00C51933   6.766   0.514   4.610
   74SBC   C00B51934   6.730   0.646   4.672
   74SBC   C00A51935   6.626   0.756   4.671
   74SBC   C00951936   6.696   0.860   4.740
   74SBC   C00851937   6.639   0.976   4.807
   74SBC   C00751938   6.504   0.985   4.805
   74SBC   C00651939   6.447   1.105   4.856
   74SBC   C00551940   6.306   1.111   4.853
   74SBC   C00451941   6.232   1.004   4.804
   74SBC   C00351942   6.292   0.882   4.769
   74SBC   C00251943   6.219   0.766   4.738
   74SBC   C01C51944   6.087   0.780   4.711
   74SBC   C01B51945   6.013   0.670   4.653
   74SBC   H00051946   6.057   0.581   4.610
   74SBC   C00151947   6.285   0.639   4.748
   74SBC   C00051948   6.422   0.637   4.755
   74SBC   C01U51949   6.457   0.504   4.762
   74SBC   H00251950   6.553   0.455   4.762
   74SBC   C01T51951   6.323   0.430   4.755
   74SBC   O00251952   6.303   0.308   4.739
   74SBC   O00151953   6.227   0.515   4.753
   74SBC   C01S51954   6.430   0.875   4.767
   74SBC   C00N51955   6.716   1.044   4.905
   74SBC   C00M51956   6.832   0.989   4.947
   74SBC   C00J51957   6.879   0.872   4.901
   74SBC   C00I51958   6.992   0.812   4.944
   74SBC   C00H51959   7.036   0.689   4.890
   74SBC   C00G51960   6.958   0.627   4.791
   74SBC   C00F51961   6.982   0.507   4.738
   74SBC   C01X51962   7.138   0.619   4.944
   74SBC   C01W51963   7.207   0.680   5.051
   74SBC   C01V51964   7.159   0.792   5.111
   74SBC   C02051965   7.223   0.846   5.217
   74SBC   C01Z51966   7.314   0.609   5.101
   74SBC   C02Y51967   7.364   0.660   5.219
   74SBC   C03951968   7.469   0.595   5.270
   74SBC   C02W51969   7.359   0.487   5.046
   74SBC   C01Y51970   7.179   0.499   4.894
   74SBC   C00U51971   7.059   0.866   5.054
   74SBC   C00S51972   7.015   0.985   5.108
   74SBC   C00T51973   7.069   1.029   5.224
   74SBC   C00R51974   6.904   1.047   5.052
   74SBC   C00Q51975   6.859   1.159   5.113
   74SBC   C00V51976   6.911   1.205   5.233
   74SBC   C02451977   6.854   1.307   5.305
   74SBC   C00X51978   6.747   1.372   5.247
   74SBC   C00P51979   6.742   1.215   5.062
   74SBC   C00O51980   6.667   1.160   4.957
   74SBC   C00K51981   6.814   0.812   4.793
   74SBC   N00051982   6.496   0.751   4.732
   74SBC   C00L51983   6.840   0.690   4.749
   74SBC   H00451984   6.437   0.251   4.293
   74SBC   C02Q51985   6.720   0.318   4.477
   74SBC   C00E51986   6.890   0.453   4.649
   74SBC   C03051987   7.092   0.143   4.588
   74SBC   O00351988   7.201   0.078   4.638
   74SBC   C02S51989   7.099   0.442   4.794
   74SBC   C03851990   7.285   0.141   4.725
   74SBC   C03L51991   7.402   0.081   4.767
   74SBC   H00851992   7.429  -0.011   4.717
   74SBC   C02V51993   7.285   0.432   4.949
   74SBC   C03K51994   7.484   0.128   4.869
   74SBC   C0BK51995   7.611   0.080   4.910
   74SBC   H00T51996   7.663   0.013   4.843
   74SBC   C03H51997   7.463   0.411   5.107
   74SBC   C0BL51998   7.683   0.116   5.022
   74SBC   C0GU51999   7.805   0.052   5.063
   74SBC   H01O52000   7.850  -0.017   4.994
   74SBC   C0GT52001   7.867   0.064   5.187
   74SBC   H01P52002   7.961   0.014   5.203
   74SBC   C0GS52003   7.801   0.146   5.281
   74SBC   C0GV52004   7.839   0.175   5.420
   74SBC   C0GW52005   7.934   0.110   5.503
   74SBC   H01Q52006   7.990   0.028   5.461
   74SBC   C0GX52007   7.952   0.163   5.624
   74SBC   H01R52008   8.023   0.120   5.693
   74SBC   O00L52009   7.876   0.267   5.681
   74SBC   C0GQ52010   7.767   0.283   5.465
   74SBC   C03A52011   7.510   0.464   5.233
   74SBC   C05L52012   7.794   0.341   5.596
   74SBC   C04W52013   7.727   0.745   6.048
   74SBC   C05I52014   7.762   0.777   6.177
   74SBC   C05O52015   7.852   0.705   6.250
   74SBC   C05252016   7.701   0.883   6.247
   74SBC   C04V52017   7.628   0.824   5.985
   74SBC   C04U52018   7.569   0.936   6.050
   74SBC   N00952019   7.914   0.593   6.184
   74SBC   C0GP52020   7.882   0.728   6.379
   74SBC   C05W52021   7.822   0.834   6.447
   74SBC   C07D52022   7.848   0.992   6.774
   74SBC   C06J52023   7.669   1.173   6.638
   74SBC   C05P52024   7.732   0.912   6.380
   74SBC   C05R52025   7.541   1.227   6.444
   74SBC   C04Z52026   7.611   0.967   6.183
   74SBC   C04C52027   7.416   1.269   6.246
   74SBC   C04G52028   7.279   1.316   6.054
   74SBC   C04J52029   7.190   1.263   5.798
   74SBC   C04T52030   7.478   1.020   5.986
   74SBC   N00352031   7.589   0.798   5.850
   74SBC   C04P52032   7.597   0.654   5.651
   74SBC   C03D52033   7.512   0.627   5.398
   74SBC   C02152034   7.324   0.774   5.276
   74SBC   C03F52035   7.370   0.949   5.595
   74SBC   C02252036   7.173   0.960   5.283
   74SBC   C02A52037   7.208   1.130   5.598
   74SBC   C02352038   7.015   1.135   5.288
   74SBC   C02552039   6.896   1.339   5.432
   74SBC   C02D52040   6.825   1.435   5.505
   74SBC   C02E52041   6.712   1.498   5.450
   74SBC   C02N52042   6.634   1.587   5.522
   74SBC   C04N52043   7.144   1.232   5.669
   74SBC   C02P52044   6.864   1.466   5.633
   74SBC   C04I52045   7.126   1.358   5.862
   74SBC   C04452046   7.005   1.563   6.005
   74SBC   C04352047   6.790   1.554   5.711
   74SBC   C05N52048   6.676   1.616   5.654
   74SBC   C09U52049   6.437   1.825   5.923
   74SBC   C09V52050   6.358   1.880   6.024
   74SBC   C09X52051   6.229   1.921   6.001
   74SBC   C09Y52052   6.130   1.966   6.092
   74SBC   C0A152053   6.171   1.974   6.219
   74SBC   C0A252054   6.305   1.938   6.252
   74SBC   C0A452055   6.351   1.963   6.383
   74SBC   C07152056   6.481   1.935   6.417
   74SBC   C0A552057   6.530   1.966   6.540
   74SBC   C0A952058   6.449   2.038   6.629
   74SBC   C0A852059   6.316   2.068   6.594
   74SBC   C0AP52060   6.239   2.149   6.678
   74SBC   C0BY52061   6.115   2.181   6.633
   74SBC   C0BX52062   6.059   2.144   6.520
   74SBC   C0C252063   5.928   2.170   6.493
   74SBC   C0C352064   5.872   2.124   6.374
   74SBC   C0CT52065   5.956   2.066   6.279
   74SBC   C0C152066   5.853   2.239   6.586
   74SBC   C0C052067   5.924   2.321   6.689
   74SBC   C0A752068   6.141   2.070   6.433
   74SBC   C0BZ52069   6.051   2.286   6.702
   74SBC   C0BO52070   6.106   2.335   6.822
   74SBC   C0BN52071   6.226   2.285   6.873
   74SBC   C0BM52072   6.265   2.335   6.992
   74SBC   C0B952073   6.387   2.294   7.037
   74SBC   C0B852074   6.463   2.211   6.959
   74SBC   C0AD52075   6.416   2.163   6.838
   74SBC   C0AF52076   6.592   2.182   6.997
   74SBC   C0AG52077   6.652   2.232   7.111
   74SBC   C0B752078   6.578   2.328   7.176
   74SBC   C0AE52079   6.663   2.107   6.912
   74SBC   C0AB52080   6.626   2.058   6.786
   74SBC   C0AA52081   6.704   1.988   6.699
   74SBC   C0AJ52082   6.792   2.080   6.942
   74SBC   C0AK52083   6.874   2.007   6.859
   74SBC   C06W52084   6.990   1.998   6.924
   74SBC   C0AI52085   6.860   2.121   7.062
   74SBC   C0BP52086   6.019   2.414   6.889
   74SBC   C0BQ52087   6.054   2.461   7.021
   74SBC   C0BW52088   6.291   2.201   6.796
   74SBC   C0AC52089   6.496   2.090   6.753
   74SBC   C0A652090   6.268   2.026   6.473
   74SBC   C0A352091   6.088   2.037   6.309
   74SBC   C09Z52092   6.003   2.006   6.055
   74SBC   C09W52093   6.395   1.884   6.156
   74SBC   C07252094   6.521   1.851   6.196
   74SBC   C09H52095   6.190   1.927   5.870
   74SBC   C09G52096   6.068   1.970   5.838
   74SBC   C09P52097   6.055   1.950   5.708
   74SBC   C02O52098   6.303   1.751   5.491
   74SBC   C02M52099   6.508   1.628   5.472
   74SBC   C02F52100   6.675   1.466   5.321
   74SBC   C00W52101   6.701   1.323   5.127
   74SBC   C01R52102   6.537   1.196   4.924
   74SBC   C01N52103   6.392   1.481   5.100
   74SBC   C01L52104   6.154   1.513   5.118
   74SBC   C01H52105   5.881   1.338   4.964
   74SBC   C01K52106   6.228   1.221   4.897
   74SBC   C01E52107   6.090   1.007   4.799
   74SBC   C01G52108   5.798   1.236   4.899
   74SBC   C01D52109   6.020   0.901   4.742
   74SBC   C01A52110   5.877   0.686   4.621
   74SBC   H00152111   5.815   0.621   4.562
   74SBC   C01F52112   5.670   1.023   4.759
   74SBC   C03P52113   5.398   1.019   4.709
   74SBC   C03T52114   5.372   1.193   4.858
   74SBC   C08I52115   5.229   1.368   5.026
   74SBC   C08J52116   5.170   1.445   5.125
   74SBC   C08L52117   5.179   1.617   5.301
   74SBC   C09352118   5.202   1.783   5.492
   74SBC   C08Z52119   5.477   1.800   5.414
   74SBC   C09T52120   5.401   2.050   5.823
   74SBC   C09S52121   5.653   1.998   5.575
   74SBC   C09Q52122   5.930   1.977   5.651
   74SBC   C09F52123   5.967   2.008   5.925
   74SBC   C09E52124   5.622   2.094   5.903
   74SBC   C0A052125   5.908   2.049   6.149
   74SBC   C0CU52126   5.737   2.159   6.343
   74SBC   C0CR52127   5.655   2.203   6.453
   74SBC   C0CZ52128   5.515   2.216   6.434
   74SBC   C0DA52129   5.490   2.095   5.940
   74SBC   C0D952130   5.250   2.325   6.089
   74SBC   H00V52131   5.263   2.395   6.008
   74SBC   C0CY52132   5.468   2.194   6.302
   74SBC   C0DF52133   5.197   2.374   6.214
   74SBC   C0DE52134   5.135   2.489   6.275
   74SBC   C0GI52135   5.058   2.600   6.221
   74SBC   H01K52136   5.049   2.608   6.113
   74SBC   C0GJ52137   5.006   2.692   6.310
   74SBC   H01J52138   4.953   2.776   6.268
   74SBC   O00I52139   5.013   2.679   6.451
   74SBC   C0GH52140   5.101   2.580   6.506
   74SBC   C0GG52141   5.149   2.610   6.634
   74SBC   O00G52142   5.085   2.712   6.698
   74SBC   C0G852143   5.125   2.753   6.824
   74SBC   C0G952144   5.028   2.833   6.889
   74SBC   H01G52145   4.930   2.850   6.847
   74SBC   C0GA52146   5.056   2.871   7.021
   74SBC   H01H52147   4.983   2.935   7.068
   74SBC   C0GB52148   5.184   2.852   7.083
   74SBC   C0EP52149   5.278   2.775   7.010
   74SBC   C0E852150   5.416   2.773   7.052
   74SBC   C0CK52151   5.538   2.713   7.018
   74SBC   C0CL52152   5.527   2.578   6.975
   74SBC   C0E952153   5.420   2.532   6.892
   74SBC   C0GE52154   5.305   2.594   6.826
   74SBC   C0E752155   5.448   2.835   7.178
   74SBC   C0CJ52156   5.587   2.824   7.211
   74SBC   C0E652157   5.638   2.881   7.331
   74SBC   H00Y52158   5.738   2.866   7.369
   74SBC   C0EO52159   5.537   2.948   7.403
   74SBC   H01152160   5.567   3.008   7.488
   74SBC   C0G652161   5.396   2.956   7.370
   74SBC   C0G552162   5.288   3.005   7.456
   74SBC   H01F52163   5.316   3.044   7.553
   74SBC   C0GD52164   5.167   3.006   7.415
   74SBC   H01I52165   5.094   3.039   7.488
   74SBC   O00H52166   5.123   2.961   7.293
   74SBC   C0EQ52167   5.350   2.899   7.254
   74SBC   C0GC52168   5.219   2.905   7.210
   74SBC   C0G752169   5.241   2.707   6.887
   74SBC   C0DD52170   5.149   2.478   6.418
   74SBC   C0GF52171   5.251   2.532   6.705
   74SBC   C0CO52172   5.457   2.404   6.856
   74SBC   C0D052173   5.439   2.258   6.541
   74SBC   C0C452174   5.715   2.243   6.577
   74SBC   C0CN52175   5.576   2.361   6.921
   74SBC   C0CP52176   5.899   2.406   6.807
   74SBC   C0CM52177   5.617   2.470   7.010
   74SBC   C0CI52178   5.650   2.749   7.109
   74SBC   C0CD52179   6.096   2.863   7.264
   74SBC   C0BR52180   5.986   2.565   7.080
   74SBC   C0CS52181   6.186   2.423   7.063
   74SBC   C0B652182   6.443   2.356   7.148
   74SBC   C0CG52183   6.257   2.690   7.304
   74SBC   C0CF52184   6.213   2.821   7.327
   74SBC   C0E552185   6.157   3.088   7.327
   74SBC   C0DT52186   6.325   3.261   7.451
   74SBC   C0DL52187   6.493   2.943   7.531
   74SBC   C0DM52188   6.610   2.903   7.593
   74SBC   C0DY52189   6.647   3.130   7.689
   74SBC   C0DU52190   6.403   3.342   7.525
   74SBC   C0F052191   6.493   3.574   7.554
   74SBC   C0F452192   6.716   3.723   7.586
   74SBC   C0FG52193   6.763   3.450   7.828
   74SBC   O00B52194   6.938   3.740   7.693
   74SBC   C0FN52195   6.890   3.419   7.868
   74SBC   C0DZ52196   6.727   3.221   7.762
   74SBC   O00C52197   7.020   3.011   7.837
   74SBC   C0FR52198   7.073   2.889   7.812
   74SBC   O00D52199   7.173   2.862   7.877
   74SBC   C0E052200   6.688   2.997   7.668
   74SBC   C0E352201   7.000   2.794   7.727
   74SBC   C0AW52202   7.038   2.663   7.697
   74SBC   C0AV52203   7.164   2.599   7.742
   74SBC   H00Q52204   7.247   2.649   7.789
   74SBC   C0AU52205   7.198   2.468   7.706
   74SBC   H00R52206   7.294   2.430   7.738
   74SBC   C0AT52207   7.112   2.389   7.630
   74SBC   C0AS52208   7.108   2.259   7.563
   74SBC   C0AR52209   7.193   2.146   7.598
   74SBC   C0BE52210   6.992   2.446   7.594
   74SBC   C0DN52211   6.658   2.779   7.560
   74SBC   C0AX52212   6.953   2.579   7.622
   74SBC   C0BB52213   6.641   2.575   7.433
   74SBC   C0BD52214   6.927   2.372   7.499
   74SBC   C0B252215   6.636   2.392   7.284
   74SBC   C0AH52216   6.784   2.194   7.154
   74SBC   C0BF52217   7.001   2.259   7.462
   74SBC   C0AL52218   6.993   2.067   7.047
   74SBC   C07U52219   7.184   2.042   7.350
   74SBC   C0AQ52220   7.226   2.056   7.485
   74SBC   C0BG52221   7.255   2.095   7.718
   74SBC   C0FY52222   7.577   1.950   7.691
   74SBC   C0BJ52223   7.346   2.169   7.811
   74SBC   H00S52224   7.333   2.273   7.838
   74SBC   C0FZ52225   7.667   2.031   7.765
   74SBC   C07S52226   7.623   1.894   7.562
   74SBC   C0G152227   7.987   1.970   7.607
   74SBC   C07K52228   8.007   1.788   7.280
   74SBC   C07H52229   7.725   1.799   7.321
   74SBC   C06B52230   7.742   1.497   7.132
   74SBC   C06N52231   7.594   1.551   6.968
   74SBC   C06652232   7.483   1.826   7.233
   74SBC   C06252233   7.268   1.887   7.014
   74SBC   C05Y52234   7.413   1.598   6.791
   74SBC   C06152235   7.218   1.912   6.881
   74SBC   C05H52236   7.153   1.703   6.595
   74SBC   C06V52237   7.082   1.927   6.854
   74SBC   C06Y52238   6.834   1.964   6.732
   74SBC   C05C52239   6.944   1.773   6.438
   74SBC   C06Z52240   6.658   1.944   6.576
   74SBC   C07052241   6.565   1.875   6.325
   74SBC   C05B52242   6.895   1.743   6.307
   74SBC   C05752243   6.811   1.698   6.047
   74SBC   C05952244   6.606   1.801   6.097
   75SBC   C05852245   5.796   3.805  14.627
   75SBC   C05A52246   5.817   3.703  14.718
   75SBC   C06Q52247   5.745   3.696  14.837
   75SBC   C06R52248   5.761   3.601  14.932
   75SBC   C06S52249   5.855   3.490  14.906
   75SBC   C06T52250   5.868   3.392  15.007
   75SBC   C06U52251   5.955   3.268  15.010
   75SBC   C06X52252   6.068   3.231  14.936
   75SBC   C06052253   6.134   3.114  14.991
   75SBC   C05Z52254   6.277   3.105  15.026
   75SBC   C06852255   6.285   3.056  15.174
   75SBC   C06752256   6.397   3.044  15.267
   75SBC   C06952257   6.525   3.062  15.216
   75SBC   C06A52258   6.648   3.078  15.296
   75SBC   C07352259   6.678   3.115  15.425
   75SBC   C07P52260   6.772   3.219  15.449
   75SBC   C07O52261   6.842   3.295  15.354
   75SBC   H00D52262   6.815   3.286  15.249
   75SBC   C07N52263   6.927   3.402  15.380
   75SBC   H00E52264   6.976   3.463  15.306
   75SBC   C07M52265   6.942   3.437  15.511
   75SBC   H00F52266   7.021   3.507  15.536
   75SBC   C07L52267   6.881   3.361  15.617
   75SBC   C07Q52268   6.900   3.387  15.761
   75SBC   H00G52269   6.968   3.468  15.787
   75SBC   O00F52270   6.856   3.309  15.860
   75SBC   C07J52271   6.766   3.217  15.823
   75SBC   C07I52272   6.742   3.178  15.685
   75SBC   N00452273   6.644   3.075  15.662
   75SBC   C07R52274   6.591   2.995  15.774
   75SBC   C07T52275   6.619   3.041  15.904
   75SBC   C0FX52276   6.544   3.000  16.011
   75SBC   C0FW52277   6.546   3.048  16.143
   75SBC   C0G052278   6.639   3.153  16.160
   75SBC   C0G252279   6.651   3.219  16.286
   75SBC   H01E52280   6.727   3.292  16.307
   75SBC   C0G352281   6.565   3.169  16.389
   75SBC   H01C52282   6.567   3.202  16.492
   75SBC   C0G452283   6.473   3.063  16.368
   75SBC   H01D52284   6.409   3.035  16.450
   75SBC   O00E52285   6.726   3.189  16.055
   75SBC   C0FV52286   6.454   3.004  16.240
   75SBC   C0FU52287   6.356   2.914  16.201
   75SBC   H01B52288   6.266   2.899  16.259
   75SBC   C0FT52289   6.361   2.853  16.072
   75SBC   C0FS52290   6.272   2.764  16.001
   75SBC   C0BI52291   6.336   2.732  15.878
   75SBC   C0BH52292   6.237   2.696  15.781
   75SBC   C07F52293   6.220   2.793  15.675
   75SBC   C07E52294   6.315   2.867  15.595
   75SBC   C07G52295   6.447   2.893  15.617
   75SBC   C07452296   6.490   2.974  15.508
   75SBC   C06552297   6.274   2.927  15.474
   75SBC   C06452298   6.141   2.951  15.459
   75SBC   C06352299   6.085   3.023  15.355
   75SBC   C07552300   5.951   3.043  15.406
   75SBC   C0AM52301   5.928   2.985  15.535
   75SBC   C0AN52302   5.809   2.992  15.623
   75SBC   C0AO52303   5.695   3.089  15.624
   75SBC   C0B152304   5.583   3.074  15.712
   75SBC   C0B052305   5.562   2.961  15.783
   75SBC   C0AZ52306   5.454   2.930  15.861
   75SBC   C0AY52307   5.454   2.814  15.928
   75SBC   N00752308   5.336   2.780  16.010
   75SBC   C0E252309   5.338   2.658  16.082
   75SBC   C0E152310   5.221   2.627  16.148
   75SBC   C0E452311   5.211   2.507  16.217
   75SBC   C0FF52312   5.094   2.464  16.281
   75SBC   C0FJ52313   5.062   2.347  16.364
   75SBC   C0FK52314   5.155   2.285  16.446
   75SBC   H01652315   5.259   2.314  16.445
   75SBC   C0FL52316   5.081   2.228  16.557
   75SBC   H01752317   5.110   2.201  16.657
   75SBC   C0FM52318   4.943   2.257  16.536
   75SBC   C0FH52319   4.821   2.299  16.609
   75SBC   C0FI52320   4.760   2.391  16.519
   75SBC   C0F352321   4.691   2.507  16.562
   75SBC   C0F252322   4.681   2.610  16.471
   75SBC   C0DW52323   4.775   2.634  16.368
   75SBC   C0FE52324   4.865   2.536  16.341
   75SBC   C0DV52325   4.800   2.760  16.326
   75SBC   C0DX52326   4.903   2.783  16.247
   75SBC   C0DK52327   4.919   2.909  16.190
   75SBC   C0DJ52328   4.841   3.017  16.236
   75SBC   C0DI52329   4.858   3.144  16.185
   75SBC   C0DH52330   4.953   3.169  16.090
   75SBC   C0DG52331   5.041   3.059  16.053
   75SBC   C0BV52332   5.150   3.090  15.969
   75SBC   C0BC52333   5.247   2.997  15.946
   75SBC   C0BA52334   5.163   3.219  15.913
   75SBC   C0B452335   5.269   3.243  15.826
   75SBC   C0B352336   5.367   3.147  15.811
   75SBC   C0B552337   5.286   3.369  15.767
   75SBC   C0BU52338   5.197   3.471  15.801
   75SBC   C0BT52339   5.092   3.444  15.894
   75SBC   C0BS52340   4.998   3.544  15.916
   75SBC   C0CC52341   4.909   3.525  16.025
   75SBC   C0CB52342   4.838   3.633  16.076
   75SBC   C0CH52343   4.802   3.620  16.211
   75SBC   C0DO52344   4.771   3.488  16.266
   75SBC   C0DP52345   4.707   3.471  16.387
   75SBC   C0EA52346   4.659   3.583  16.461
   75SBC   H01252347   4.682   3.685  16.434
   75SBC   O00952348   4.577   3.572  16.572
   75SBC   C0EH52349   4.556   3.443  16.623
   75SBC   C0EG52350   4.473   3.440  16.735
   75SBC   C0EJ52351   4.423   3.529  16.839
   75SBC   H01052352   4.418   3.636  16.826
   75SBC   C0EK52353   4.367   3.452  16.951
   75SBC   H00Z52354   4.326   3.490  17.044
   75SBC   C0EL52355   4.393   3.318  16.913
   75SBC   C0EM52356   4.358   3.195  16.981
   75SBC   C0EW52357   4.287   3.180  17.100
   75SBC   H01352358   4.251   3.267  17.153
   75SBC   C0EX52359   4.271   3.050  17.164
   75SBC   H01452360   4.225   3.033  17.260
   75SBC   C0F152361   4.332   2.934  17.099
   75SBC   C0EU52362   4.396   2.953  16.977
   75SBC   C0ET52363   4.466   2.856  16.904
   75SBC   C0ES52364   4.521   2.926  16.794
   75SBC   C0EE52365   4.486   3.058  16.801
   75SBC   C0ED52366   4.500   3.181  16.728
   75SBC   C0EC52367   4.566   3.193  16.603
   75SBC   C0EB52368   4.612   3.081  16.526
   75SBC   C0EN52369   4.580   2.941  16.562
   75SBC   C0ER52370   4.628   2.846  16.469
   75SBC   C0DS52371   4.690   3.103  16.412
   75SBC   C0DR52372   4.714   3.228  16.365
   75SBC   C0EY52373   4.526   2.867  16.675
   75SBC   C0EZ52374   4.561   2.733  16.663
   75SBC   C0F552375   4.583   2.617  16.752
   75SBC   C0F652376   4.535   2.615  16.884
   75SBC   N00852377   4.543   2.488  16.951
   75SBC   C0F752378   4.623   2.379  16.904
   75SBC   C0FQ52379   4.635   2.260  16.987
   75SBC   H01852380   4.708   2.183  16.968
   75SBC   C0FP52381   4.574   2.249  17.111
   75SBC   H01952382   4.589   2.167  17.180
   75SBC   C0FO52383   4.486   2.352  17.147
   75SBC   H01A52384   4.429   2.328  17.235
   75SBC   C0F852385   4.684   2.395  16.778
   75SBC   C0F952386   4.475   2.474  17.073
   75SBC   C0FA52387   4.394   2.573  17.131
   75SBC   H01552388   4.339   2.554  17.221
   75SBC   C0FB52389   4.396   2.701  17.075
   75SBC   C0FD52390   4.467   2.724  16.952
   75SBC   C0FC52391   4.332   2.803  17.151
   75SBC   O00A52392   4.292   2.782  17.263
   75SBC   C0EV52393   4.407   3.076  16.913
   75SBC   C0EF52394   4.458   3.312  16.788
   75SBC   C0EI52395   4.597   3.326  16.555
   75SBC   C0DQ52396   4.672   3.341  16.433
   75SBC   C0CE52397   4.819   3.379  16.199
   75SBC   H00U52398   4.771   3.711  16.261
   75SBC   C0CA52399   4.807   3.744  15.986
   75SBC   C0C952400   4.881   3.750  15.861
   75SBC   C0C852401   4.820   3.832  15.757
   75SBC   C0C752402   4.872   3.882  15.631
   75SBC   C0C652403   4.782   3.971  15.560
   75SBC   C0C552404   4.788   4.080  15.468
   75SBC   C0CQ52405   4.686   4.183  15.476
   75SBC   C0D152406   4.601   4.190  15.584
   75SBC   C0D852407   4.592   4.326  15.629
   75SBC   C0D752408   4.625   4.402  15.515
   75SBC   C0D652409   4.634   4.543  15.501
   75SBC   C0D552410   4.675   4.611  15.392
   75SBC   C0D452411   4.717   4.568  15.267
   75SBC   C0D352412   4.806   4.671  15.213
   75SBC   C0CX52413   4.892   4.610  15.110
   75SBC   C0CW52414   4.891   4.467  15.145
   75SBC   C0CV52415   4.954   4.348  15.087
   75SBC   C0D252416   5.020   4.346  14.958
   75SBC   C09D52417   5.000   4.440  14.854
   75SBC   C09C52418   5.066   4.424  14.725
   75SBC   C09B52419   5.065   4.516  14.618
   75SBC   C09A52420   4.979   4.628  14.637
   75SBC   C09952421   4.895   4.639  14.742
   75SBC   C09852422   4.867   4.777  14.768
   75SBC   C08Y52423   4.948   4.853  14.677
   75SBC   C08X52424   4.976   4.993  14.677
   75SBC   C08W52425   4.920   5.080  14.773
   75SBC   C08U52426   4.841   5.047  14.891
   75SBC   C08V52427   4.836   4.925  14.966
   75SBC   C0DC52428   4.716   4.949  15.047
   75SBC   H00W52429   4.669   4.872  15.107
   75SBC   C0DB52430   4.672   5.081  15.042
   75SBC   H00X52431   4.592   5.116  15.104
   75SBC   C08T52432   4.756   5.143  14.945
   75SBC   C08S52433   4.762   5.282  14.922
   75SBC   H00N52434   4.708   5.354  14.981
   75SBC   C08R52435   4.860   5.325  14.828
   75SBC   C08Q52436   4.889   5.460  14.795
   75SBC   H00O52437   4.827   5.532  14.845
   75SBC   C08P52438   4.988   5.512  14.710
   75SBC   C08O52439   5.019   5.655  14.699
   75SBC   H00P52440   4.946   5.728  14.731
   75SBC   C08N52441   5.136   5.697  14.630
   75SBC   C08M52442   5.161   5.834  14.617
   75SBC   O00852443   5.103   5.924  14.678
   75SBC   O00752444   5.262   5.868  14.533
   75SBC   C08H52445   5.351   5.774  14.484
   75SBC   C08G52446   5.453   5.808  14.391
   75SBC   C03V52447   5.495   5.937  14.353
   75SBC   H00952448   5.442   6.020  14.396
   75SBC   C03U52449   5.606   5.960  14.274
   75SBC   C03W52450   5.663   6.090  14.242
   75SBC   H00A52451   5.609   6.178  14.274
   75SBC   C03X52452   5.782   6.102  14.183
   75SBC   H00B52453   5.832   6.197  14.175
   75SBC   O00552454   5.849   5.995  14.136
   75SBC   C03O52455   5.793   5.874  14.153
   75SBC   C03N52456   5.870   5.763  14.118
   75SBC   O00052457   5.991   5.784  14.057
   75SBC   C01952458   6.071   5.681  14.021
   75SBC   C01852459   6.018   5.549  14.009
   75SBC   C01752460   5.890   5.525  14.072
   75SBC   C01652461   5.836   5.399  14.073
   75SBC   C01552462   5.918   5.304  14.007
   75SBC   C01452463   5.872   5.171  14.007
   75SBC   C01352464   5.757   5.132  14.080
   75SBC   C01252465   5.753   4.984  14.058
   75SBC   C01152466   5.873   4.959  13.983
   75SBC   C01052467   5.898   4.835  13.943
   75SBC   C00Z52468   6.011   4.788  13.884
   75SBC   C00Y52469   5.993   4.653  13.899
   75SBC   C01O52470   5.874   4.616  13.961
   75SBC   C01P52471   5.865   4.497  14.038
   75SBC   C02L52472   5.769   4.493  14.134
   75SBC   C02K52473   5.698   4.615  14.151
   75SBC   C01M52474   5.728   4.742  14.092
   75SBC   C02J52475   5.580   4.586  14.227
   75SBC   C02I52476   5.474   4.675  14.250
   75SBC   C02H52477   5.458   4.813  14.214
   75SBC   C01Q52478   5.550   4.907  14.166
   75SBC   C02G52479   5.503   5.031  14.200
   75SBC   C08952480   5.368   5.011  14.240
   75SBC   C08852481   5.337   5.122  14.317
   75SBC   C08752482   5.445   5.222  14.288
   75SBC   C08652483   5.447   5.352  14.339
   75SBC   C03S52484   5.535   5.455  14.291
   75SBC   N00652485   5.487   5.570  14.346
   75SBC   C08F52486   5.385   5.548  14.425
   75SBC   C01J52487   5.646   5.478  14.206
   75SBC   C03R52488   5.694   5.610  14.191
   75SBC   C03Q52489   5.624   5.719  14.238
   75SBC   C08E52490   5.354   5.412  14.427
   75SBC   C08D52491   5.246   5.356  14.501
   75SBC   C08K52492   5.170   5.453  14.567
   75SBC   C08C52493   5.204   5.226  14.503
   75SBC   C09152494   5.098   5.184  14.593
   75SBC   C09252495   5.032   5.278  14.672
   75SBC   C08B52496   5.239   5.114  14.426
   75SBC   C09052497   5.148   5.006  14.465
   75SBC   C09452498   5.134   4.873  14.409
   75SBC   C09552499   5.084   4.759  14.479
   75SBC   C09R52500   5.156   4.644  14.445
   75SBC   C09752501   5.259   4.674  14.363
   75SBC   C09652502   5.244   4.813  14.339
   75SBC   C01I52503   5.550   5.168  14.205
   75SBC   C08A52504   5.344   4.880  14.265
   75SBC   C09L52505   5.370   4.604  14.319
   75SBC   C09K52506   5.417   4.471  14.335
   75SBC   C09J52507   5.361   4.375  14.425
   75SBC   C09I52508   5.425   4.259  14.481
   75SBC   C09O52509   5.551   4.191  14.466
   75SBC   C09N52510   5.654   4.228  14.374
   75SBC   C09M52511   5.657   4.351  14.297
   75SBC   C06O52512   5.761   4.137  14.367
   75SBC   C05M52513   5.769   4.023  14.452
   75SBC   C06P52514   5.681   4.008  14.555
   75SBC   C04252515   5.871   3.932  14.437
   75SBC   C04152516   5.966   3.954  14.337
   75SBC   C04052517   6.073   3.864  14.324
   75SBC   C03Z52518   6.170   3.872  14.221
   75SBC   C03Y52519   6.162   3.985  14.138
   75SBC   C02752520   6.276   4.013  14.054
   75SBC   C02652521   6.273   4.130  13.980
   75SBC   C02852522   6.382   4.166  13.900
   75SBC   C02952523   6.488   4.075  13.886
   75SBC   C02B52524   6.601   4.113  13.817
   75SBC   C02C52525   6.712   4.024  13.809
   75SBC   C02X52526   6.823   4.071  13.750
   75SBC   C03E52527   6.932   3.988  13.747
   75SBC   C03G52528   6.942   3.867  13.803
   75SBC   C04Q52529   6.822   3.819  13.869
   75SBC   C04R52530   6.821   3.709  13.946
   75SBC   C04S52531   6.712   3.675  14.032
   75SBC   C04L52532   6.597   3.752  14.027
   75SBC   C04M52533   6.595   3.870  13.947
   75SBC   C04K52534   6.490   3.720  14.110
   75SBC   C04F52535   6.501   3.610  14.194
   75SBC   C04E52536   6.618   3.533  14.201
   75SBC   C04D52537   6.634   3.428  14.297
   75SBC   C05052538   6.748   3.354  14.302
   75SBC   C05152539   6.766   3.265  14.403
   75SBC   C05Q52540   6.890   3.211  14.421
   75SBC   C05V52541   6.908   3.133  14.540
   75SBC   N00552542   7.036   3.084  14.564
   75SBC   C07V52543   7.128   3.092  14.462
   75SBC   C08252544   7.255   3.042  14.488
   75SBC   C08152545   7.291   2.975  14.603
   75SBC   C07C52546   7.200   2.967  14.706
   75SBC   C07B52547   7.237   2.913  14.833
   75SBC   C08052548   7.369   2.863  14.856
   75SBC   C07Z52549   7.398   2.813  14.980
   75SBC   H00L52550   7.499   2.790  15.012
   75SBC   C07952551   7.309   2.814  15.090
   75SBC   C07852552   7.182   2.873  15.064
   75SBC   C07752553   7.090   2.885  15.167
   75SBC   C07X52554   7.126   2.840  15.298
   75SBC   H00I52555   7.056   2.847  15.381
   75SBC   C07Y52556   7.249   2.785  15.323
   75SBC   H00H52557   7.286   2.738  15.412
   75SBC   C07652558   6.968   2.941  15.140
   75SBC   C06C52559   6.879   2.969  15.250
   75SBC   H00C52560   6.910   2.989  15.352
   75SBC   C06F52561   6.928   2.974  15.009
   75SBC   C06E52562   6.797   3.017  14.985
   75SBC   C06G52563   6.747   3.061  14.863
   75SBC   C06H52564   6.842   3.065  14.760
   75SBC   C06I52565   6.974   3.020  14.780
   75SBC   C06L52566   6.614   3.108  14.845
   75SBC   C06M52567   6.515   3.103  14.953
   75SBC   C06K52568   6.581   3.164  14.722
   75SBC   C05S52569   6.680   3.180  14.622
   75SBC   C05U52570   6.448   3.211  14.693
   75SBC   C05X52571   6.344   3.192  14.792
   75SBC   C05G52572   6.219   3.257  14.749
   75SBC   C05F52573   6.213   3.335  14.637
   75SBC   C05E52574   6.110   3.426  14.644
   75SBC   C04852575   6.102   3.537  14.561
   75SBC   C05652576   5.997   3.624  14.586
   75SBC   C04552577   5.988   3.731  14.499
   75SBC   C04752578   6.200   3.547  14.461
   75SBC   C04952579   6.316   3.473  14.467
   75SBC   C04B52580   6.415   3.486  14.371
   75SBC   C04652581   6.188   3.657  14.380
   75SBC   C04H52582   6.291   3.677  14.286
   75SBC   C05D52583   6.032   3.400  14.760
   75SBC   C04A52584   6.329   3.371  14.564
   75SBC   C05T52585   6.438   3.295  14.580
   75SBC   C05552586   6.543   3.312  14.486
   75SBC   C06D52587   6.708   3.039  15.088
   75SBC   C07W52588   7.013   2.963  14.907
   75SBC   C08552589   7.345   2.782  15.223
   75SBC   H00M52590   7.431   2.719  15.239
   75SBC   C08452591   7.455   2.865  14.747
   75SBC   H00J52592   7.555   2.824  14.743
   75SBC   C07A52593   7.140   2.915  14.933
   75SBC   C08352594   7.419   2.923  14.624
   75SBC   H00K52595   7.487   2.927  14.540
   75SBC   O00K52596   7.351   3.044  14.390
   75SBC   C0GO52597   7.337   3.136  14.284
   75SBC   C0GN52598   7.441   3.154  14.200
   75SBC   H01L52599   7.526   3.090  14.220
   75SBC   C0GM52600   7.431   3.238  14.084
   75SBC   C0GL52601   7.533   3.258  13.998
   75SBC   H01M52602   7.629   3.223  14.032
   75SBC   O00J52603   7.522   3.336  13.881
   75SBC   C0GK52604   7.403   3.402  13.880
   75SBC   H01N52605   7.410   3.479  13.805
   75SBC   C05K52606   7.295   3.393  13.964
   75SBC   C05J52607   7.184   3.478  13.954
   75SBC   C04Y52608   7.171   3.591  13.871
   75SBC   C04X52609   7.052   3.670  13.863
   75SBC   O00652610   7.285   3.637  13.804
   75SBC   C05352611   7.302   3.766  13.761
   75SBC   C04O52612   7.182   3.843  13.739
   75SBC   C03C52613   7.174   3.982  13.690
   75SBC   C03B52614   7.268   4.076  13.645
   75SBC   C05452615   7.406   4.060  13.648
   75SBC   C0GR52616   7.493   4.165  13.612
   75SBC   C03M52617   7.479   4.311  13.581
   75SBC   C03I52618   7.360   4.395  13.582
   75SBC   C03J52619   7.374   4.538  13.563
   75SBC   N00252620   7.257   4.627  13.569
   75SBC   C02U52621   7.269   4.767  13.563
   75SBC   C02T52622   7.154   4.844  13.566
   75SBC   C02Z52623   7.172   4.985  13.550
   75SBC   N00152624   7.066   5.074  13.583
   75SBC   C02R52625   7.086   5.213  13.586
   75SBC   C03252626   7.212   5.268  13.544
   75SBC   C03152627   7.315   5.174  13.507
   75SBC   H00752628   7.415   5.207  13.485
   75SBC   C03352629   7.227   5.410  13.558
   75SBC   H00352630   7.319   5.460  13.532
   75SBC   O00452631   7.122   5.493  13.592
   75SBC   C03452632   7.013   5.424  13.642
   75SBC   C03552633   6.917   5.501  13.711
   75SBC   C03652634   6.801   5.444  13.764
   75SBC   H00552635   6.732   5.507  13.819
   75SBC   C03752636   6.777   5.308  13.750
   75SBC   H00652637   6.693   5.261  13.797
   75SBC   C00D52638   6.865   5.232  13.675
   75SBC   C00C52639   6.835   5.103  13.644
   75SBC   C00B52640   6.696   5.048  13.640
   75SBC   C00A52641   6.556   5.079  13.692
   75SBC   C00952642   6.491   4.953  13.682
   75SBC   C00852643   6.362   4.917  13.733
   75SBC   C00752644   6.284   5.016  13.780
   75SBC   C00652645   6.162   4.979  13.835
   75SBC   C00552646   6.082   5.083  13.891
   75SBC   C00452647   6.123   5.217  13.886
   75SBC   C00352648   6.250   5.248  13.832
   75SBC   C00252649   6.283   5.380  13.813
   75SBC   C01C52650   6.214   5.486  13.882
   75SBC   C01B52651   6.265   5.621  13.896
   75SBC   H00052652   6.359   5.660  13.860
   75SBC   C00152653   6.393   5.413  13.732
   75SBC   C00052654   6.477   5.308  13.686
   75SBC   C01U52655   6.535   5.359  13.569
   75SBC   H00252656   6.593   5.309  13.493
   75SBC   C01T52657   6.502   5.504  13.567
   75SBC   O00252658   6.539   5.587  13.482
   75SBC   O00152659   6.409   5.530  13.666
   75SBC   C01S52660   6.330   5.147  13.783
   75SBC   C00N52661   6.339   4.777  13.738
   75SBC   C00M52662   6.437   4.682  13.713
   75SBC   C00J52663   6.551   4.715  13.653
   75SBC   C00I52664   6.656   4.629  13.642
   75SBC   C00H52665   6.781   4.681  13.605
   75SBC   C00G52666   6.799   4.817  13.584
   75SBC   C00F52667   6.923   4.877  13.584
   75SBC   C01X52668   6.889   4.601  13.601
   75SBC   C01W52669   6.874   4.467  13.626
   75SBC   C01V52670   6.749   4.416  13.668
   75SBC   C02052671   6.732   4.284  13.713
   75SBC   C01Z52672   6.983   4.384  13.628
   75SBC   C02Y52673   6.957   4.256  13.659
   75SBC   C03952674   7.064   4.172  13.653
   75SBC   C02W52675   7.117   4.430  13.601
   75SBC   C01Y52676   7.015   4.653  13.587
   75SBC   C00U52677   6.638   4.501  13.678
   75SBC   C00S52678   6.522   4.461  13.734
   75SBC   C00T52679   6.507   4.324  13.772
   75SBC   C00R52680   6.422   4.548  13.750
   75SBC   C00Q52681   6.306   4.514  13.811
   75SBC   C00V52682   6.291   4.382  13.857
   75SBC   C02452683   6.178   4.348  13.936
   75SBC   C00X52684   6.071   4.436  13.943
   75SBC   C00P52685   6.207   4.605  13.831
   75SBC   C00O52686   6.225   4.744  13.791
   75SBC   C00K52687   6.574   4.850  13.627
   75SBC   N00052688   6.458   5.177  13.718
   75SBC   C00L52689   6.692   4.910  13.604
   75SBC   H00452690   6.935   5.607  13.721
   75SBC   C02Q52691   6.988   5.289  13.627
   75SBC   C00E52692   6.938   5.019  13.601
   75SBC   C03052693   7.302   5.038  13.523
   75SBC   O00352694   7.414   4.959  13.518
   75SBC   C02S52695   7.031   4.794  13.581
   75SBC   C03852696   7.398   4.824  13.538
   75SBC   C03L52697   7.508   4.737  13.523
   75SBC   H00852698   7.598   4.785  13.488
   75SBC   C02V52699   7.126   4.569  13.583
   75SBC   C03K52700   7.500   4.597  13.542
   75SBC   C0BK52701   7.602   4.515  13.523
   75SBC   H00T52702   7.696   4.562  13.503
   75SBC   C03H52703   7.226   4.344  13.597
   75SBC   C0BL52704   7.600   4.378  13.554
   75SBC   C0GU52705   7.722   4.305  13.556
   75SBC   H01O52706   7.817   4.352  13.540
   75SBC   C0GT52707   7.742   4.175  13.592
   75SBC   H01P52708   7.834   4.119  13.587
   75SBC   C0GS52709   7.625   4.104  13.624
   75SBC   C0GV52710   7.614   3.973  13.666
   75SBC   C0GW52711   7.713   3.875  13.697
   75SBC   H01Q52712   7.819   3.888  13.677
   75SBC   C0GX52713   7.662   3.758  13.748
   75SBC   H01R52714   7.737   3.684  13.773
   75SBC   O00L52715   7.530   3.723  13.764
   75SBC   C0GQ52716   7.473   3.940  13.684
   75SBC   C03A52717   7.198   4.202  13.618
   75SBC   C05L52718   7.432   3.809  13.732
   75SBC   C04W52719   7.074   3.448  14.037
   75SBC   C05I52720   7.084   3.346  14.137
   75SBC   C05O52721   7.196   3.276  14.150
   75SBC   C05252722   6.973   3.319  14.222
   75SBC   C04V52723   6.953   3.523  14.032
   75SBC   C04U52724   6.846   3.495  14.124
   75SBC   N00952725   7.305   3.300  14.068
   75SBC   C0GP52726   7.214   3.195  14.262
   75SBC   C05W52727   7.109   3.174  14.348
   75SBC   C07D52728   7.066   3.019  14.681
   75SBC   C06J52729   6.811   3.124  14.639
   75SBC   C05P52730   6.986   3.230  14.325
   75SBC   C05R52731   6.663   3.250  14.504
   75SBC   C04Z52732   6.853   3.388  14.211
   75SBC   C04C52733   6.529   3.407  14.384
   75SBC   C04G52734   6.400   3.592  14.283
   75SBC   C04J52735   6.382   3.806  14.116
   75SBC   C04T52736   6.725   3.565  14.121
   75SBC   N00352737   6.943   3.636  13.948
   75SBC   C04P52738   7.059   3.792  13.795
   75SBC   C03D52739   7.050   4.042  13.693
   75SBC   C02152740   6.837   4.203  13.707
   75SBC   C03F52741   6.708   3.901  13.871
   75SBC   C02252742   6.612   4.238  13.770
   75SBC   C02A52743   6.484   3.951  13.952
   75SBC   C02352744   6.388   4.284  13.834
   75SBC   C02552745   6.169   4.224  13.997
   75SBC   C02D52746   6.066   4.193  14.082
   75SBC   C02E52747   5.962   4.285  14.096
   75SBC   C02N52748   5.862   4.269  14.193
   75SBC   C04N52749   6.382   3.920  14.039
   75SBC   C02P52750   6.066   4.082  14.155
   75SBC   C04I52751   6.279   3.784  14.202
   75SBC   C04452752   6.082   3.751  14.403
   75SBC   C04352753   5.960   4.057  14.249
   75SBC   C05N52754   5.860   4.155  14.272
   75SBC   C09U52755   5.569   4.088  14.564
   75SBC   C09V52756   5.481   4.064  14.670
   75SBC   C09X52757   5.362   4.131  14.686
   75SBC   C09Y52758   5.280   4.132  14.795
   75SBC   C0A152759   5.314   4.050  14.898
   75SBC   C0A252760   5.426   3.968  14.884
   75SBC   C0A452761   5.459   3.877  14.982
   75SBC   C07152762   5.566   3.787  14.968
   75SBC   C0A552763   5.593   3.701  15.068
   75SBC   C0A952764   5.525   3.710  15.189
   75SBC   C0A852765   5.425   3.804  15.209
   75SBC   C0AP52766   5.356   3.807  15.328
   75SBC   C0BY52767   5.253   3.894  15.338
   75SBC   C0BX52768   5.203   3.972  15.236
   75SBC   C0C252769   5.093   4.050  15.255
   75SBC   C0C352770   5.060   4.140  15.155
   75SBC   C0CT52771   5.134   4.147  15.037
   75SBC   C0C152772   5.010   4.038  15.368
   75SBC   C0C052773   5.062   3.951  15.477
   75SBC   C0A752774   5.275   3.964  15.117
   75SBC   C0BZ52775   5.183   3.894  15.463
   75SBC   C0BO52776   5.214   3.813  15.567
   75SBC   C0BN52777   5.310   3.714  15.547
   75SBC   C0BM52778   5.304   3.609  15.630
   75SBC   C0B952779   5.402   3.513  15.614
   75SBC   C0B852780   5.492   3.524  15.508
   75SBC   C0AD52781   5.484   3.627  15.411
   75SBC   C0AF52782   5.584   3.423  15.488
   75SBC   C0AG52783   5.592   3.312  15.569
   75SBC   C0B752784   5.493   3.294  15.663
   75SBC   C0AE52785   5.651   3.430  15.370
   75SBC   C0AB52786   5.644   3.526  15.271
   75SBC   C0AA52787   5.712   3.512  15.149
   75SBC   C0AJ52788   5.730   3.313  15.337
   75SBC   C0AK52789   5.793   3.303  15.214
   75SBC   C06W52790   5.865   3.188  15.223
   75SBC   C0AI52791   5.758   3.211  15.426
   75SBC   C0BP52792   5.106   3.805  15.654
   75SBC   C0BQ52793   5.095   3.682  15.743
   75SBC   C0BW52794   5.385   3.720  15.428
   75SBC   C0AC52795   5.559   3.629  15.294
   75SBC   C0A652796   5.386   3.879  15.101
   75SBC   C0A352797   5.241   4.055  15.019
   75SBC   C09Z52798   5.176   4.222  14.810
   75SBC   C09W52799   5.506   3.973  14.768
   75SBC   C07252800   5.614   3.887  14.755
   75SBC   C09H52801   5.339   4.220  14.588
   75SBC   C09G52802   5.235   4.308  14.598
   75SBC   C09P52803   5.241   4.404  14.497
   75SBC   C02O52804   5.554   4.460  14.291
   75SBC   C02M52805   5.764   4.372  14.206
   75SBC   C02F52806   5.964   4.403  14.021
   75SBC   C00W52807   6.094   4.560  13.888
   75SBC   C01R52808   6.136   4.841  13.837
   75SBC   C01N52809   5.821   4.734  13.991
   75SBC   C01L52810   5.674   4.878  14.111
   75SBC   C01H52811   5.666   5.227  14.143
   75SBC   C01K52812   5.955   5.066  13.963
   75SBC   C01E52813   6.046   5.321  13.946
   75SBC   C01G52814   5.712   5.368  14.142
   75SBC   C01D52815   6.092   5.451  13.944
   75SBC   C01A52816   6.191   5.718  13.964
   75SBC   H00152817   6.215   5.823  13.977
   75SBC   C01F52818   5.819   5.629  14.130
   75SBC   C03P52819   5.673   5.851  14.218
   75SBC   C03T52820   5.517   5.704  14.318
   75SBC   C08I52821   5.315   5.639  14.496
   75SBC   C08J52822   5.206   5.591  14.562
   75SBC   C08L52823   5.065   5.413  14.649
   75SBC   C09352824   4.936   5.225  14.759
   75SBC   C08Z52825   5.068   5.050  14.578
   75SBC   C09T52826   4.861   4.792  14.911
   75SBC   C09S52827   4.999   4.757  14.586
   75SBC   C09Q52828   5.159   4.519  14.514
   75SBC   C09F52829   5.150   4.314  14.712
   75SBC   C09E52830   4.923   4.565  14.858
   75SBC   C0A052831   5.109   4.237  14.935
   75SBC   C0CU52832   4.962   4.237  15.177
   75SBC   C0CR52833   4.875   4.225  15.291
   75SBC   C0CZ52834   4.789   4.332  15.320
   75SBC   C0DA52835   4.885   4.656  14.969
   75SBC   C0D952836   4.835   4.771  15.316
   75SBC   H00V52837   4.913   4.845  15.306
   75SBC   C0CY52838   4.792   4.448  15.245
   75SBC   C0DF52839   4.743   4.730  15.430
   75SBC   C0DE52840   4.716   4.748  15.567
   75SBC   C0GI52841   4.735   4.859  15.656
   75SBC   H01K52842   4.766   4.957  15.623
   75SBC   C0GJ52843   4.705   4.836  15.782
   75SBC   H01J52844   4.731   4.917  15.849
   75SBC   O00I52845   4.645   4.722  15.833
   75SBC   C0GH52846   4.627   4.609  15.754
   75SBC   C0GG52847   4.578   4.489  15.820
   75SBC   O00G52848   4.551   4.510  15.955
   75SBC   C0G852849   4.520   4.409  16.034
   75SBC   C0G952850   4.459   4.435  16.155
   75SBC   H01G52851   4.451   4.535  16.196
   75SBC   C0GA52852   4.426   4.332  16.243
   75SBC   H01H52853   4.370   4.359  16.331
   75SBC   C0GB52854   4.445   4.190  16.212
   75SBC   C0EP52855   4.525   4.165  16.093
   75SBC   C0E852856   4.589   4.036  16.084
   75SBC   C0CK52857   4.686   3.980  16.004
   75SBC   C0CL52858   4.667   4.003  15.865
   75SBC   C0E952859   4.614   4.123  15.808
   75SBC   C0GE52860   4.582   4.256  15.861
   75SBC   C0E752861   4.539   3.932  16.164
   75SBC   C0CJ52862   4.588   3.807  16.128
   75SBC   C0E652863   4.520   3.698  16.184
   75SBC   H00Y52864   4.546   3.596  16.159
   75SBC   C0EO52865   4.416   3.721  16.283
   75SBC   H01152866   4.385   3.631  16.333
   75SBC   C0G652867   4.377   3.848  16.322
   75SBC   C0G552868   4.274   3.875  16.416
   75SBC   H01F52869   4.228   3.798  16.476
   75SBC   C0GD52870   4.229   4.004  16.433
   75SBC   H01I52871   4.157   4.023  16.511
   75SBC   O00H52872   4.289   4.114  16.372
   75SBC   C0EQ52873   4.438   3.961  16.258
   75SBC   C0GC52874   4.393   4.084  16.289
   75SBC   C0G752875   4.552   4.271  15.999
   75SBC   C0DD52876   4.651   4.628  15.612
   75SBC   C0GF52877   4.584   4.361  15.769
   75SBC   C0CO52878   4.608   4.094  15.672
   75SBC   C0D052879   4.709   4.312  15.437
   75SBC   C0C452880   4.892   4.114  15.378
   75SBC   C0CN52881   4.662   3.968  15.638
   75SBC   C0CP52882   5.009   3.895  15.602
   75SBC   C0CM52883   4.692   3.900  15.760
   75SBC   C0CI52884   4.703   3.836  16.041
   75SBC   C0CD52885   4.903   3.399  16.086
   75SBC   C0BR52886   4.995   3.661  15.838
   75SBC   C0CS52887   5.201   3.592  15.725
   75SBC   C0B652888   5.393   3.397  15.690
   75SBC   C0CG52889   5.077   3.318  15.943
   75SBC   C0CF52890   4.976   3.297  16.037
   75SBC   C0E552891   4.791   3.248  16.247
   75SBC   C0DT52892   4.755   2.998  16.346
   75SBC   C0DL52893   5.025   2.934  16.106
   75SBC   C0DM52894   5.124   2.836  16.088
   75SBC   C0DY52895   4.999   2.685  16.217
   75SBC   C0DU52896   4.728   2.869  16.375
   75SBC   C0F052897   4.608   2.718  16.524
   75SBC   C0F452898   4.658   2.513  16.698
   75SBC   C0FG52899   4.842   2.409  16.402
   75SBC   O00B52900   4.774   2.291  16.742
   75SBC   C0FN52901   4.937   2.317  16.407
   75SBC   C0DZ52902   4.987   2.554  16.273
   75SBC   O00C52903   5.325   2.427  16.228
   75SBC   C0FR52904   5.448   2.460  16.176
   75SBC   O00D52905   5.544   2.390  16.216
   75SBC   C0E052906   5.113   2.714  16.148
   75SBC   C0E352907   5.448   2.580  16.087
   75SBC   C0AW52908   5.560   2.607  16.008
   75SBC   C0AV52909   5.684   2.523  15.999
   75SBC   H00Q52910   5.706   2.434  16.054
   75SBC   C0AU52911   5.796   2.567  15.926
   75SBC   H00R52912   5.887   2.511  15.930
   75SBC   C0AT52913   5.777   2.683  15.851
   75SBC   C0AS52914   5.863   2.764  15.764
   75SBC   C0AR52915   6.011   2.762  15.764
   75SBC   C0BE52916   5.663   2.754  15.855
   75SBC   C0DN52917   5.233   2.871  16.009
   75SBC   C0AX52918   5.552   2.718  15.931
   75SBC   C0BB52919   5.356   3.024  15.871
   75SBC   C0BD52920   5.666   2.869  15.780
   75SBC   C0B252921   5.485   3.167  15.727
   75SBC   C0AH52922   5.689   3.206  15.551
   75SBC   C0BF52923   5.790   2.881  15.713
   75SBC   C0AL52924   5.852   3.129  15.349
   75SBC   C07U52925   6.050   2.911  15.559
   75SBC   C0AQ52926   6.088   2.828  15.665
   75SBC   C0BG52927   6.110   2.691  15.847
   75SBC   C0FY52928   6.443   2.830  15.859
   75SBC   C0BJ52929   6.131   2.728  15.989
   75SBC   H00S52930   6.054   2.753  16.060
   75SBC   C0FZ52931   6.465   2.890  15.983
   75SBC   C07S52932   6.495   2.890  15.743
   75SBC   C0G152933   6.698   3.151  15.924
   75SBC   C07K52934   6.797   3.251  15.582
   75SBC   C07H52935   6.606   3.048  15.527
   75SBC   C06B52936   6.751   3.024  15.216
   75SBC   C06N52937   6.573   3.073  15.079
   75SBC   C06652938   6.391   2.989  15.405
   75SBC   C06252939   6.144   3.045  15.219
   75SBC   C05Y52940   6.377   3.139  14.926
   75SBC   C06152941   6.057   3.074  15.106
   75SBC   C05H52942   6.094   3.283  14.817
   75SBC   C06V52943   5.949   3.171  15.117
   75SBC   C06Y52944   5.793   3.402  15.119
   75SBC   C05C52945   5.927   3.496  14.789
   75SBC   C06Z52946   5.696   3.612  15.054
   75SBC   C07052947   5.639   3.790  14.853
   75SBC   C05B52948   5.914   3.607  14.695
   75SBC   C05752949   5.884   3.822  14.516
   75SBC   C05952950   5.696   3.897  14.642
   76SBC   C05852951   2.910  11.478   9.813
   76SBC   C05A52952   2.975  11.413   9.707
   76SBC   C06Q52953   2.930  11.285   9.660
   76SBC   C06R52954   2.990  11.222   9.548
   76SBC   C06S52955   3.100  11.277   9.477
   76SBC   C06T52956   3.149  11.205   9.367
   76SBC   C06U52957   3.241  11.255   9.255
   76SBC   C06X52958   3.317  11.369   9.237
   76SBC   C06052959   3.369  11.381   9.106
   76SBC   C05Z52960   3.497  11.435   9.052
   76SBC   C06852961   3.532  11.331   8.944
   76SBC   C06752962   3.650  11.329   8.852
   76SBC   C06952963   3.750  11.433   8.862
   76SBC   C06A52964   3.873  11.428   8.789
   76SBC   C07352965   3.953  11.330   8.725
   76SBC   C07P52966   4.092  11.348   8.739
   76SBC   C07O52967   4.162  11.412   8.846
   76SBC   H00D52968   4.111  11.448   8.934
   76SBC   C07N52969   4.302  11.436   8.846
   76SBC   H00E52970   4.350  11.496   8.921
   76SBC   C07M52971   4.373  11.373   8.741
   76SBC   H00F52972   4.476  11.405   8.730
   76SBC   C07L52973   4.315  11.288   8.648
   76SBC   C07Q52974   4.387  11.215   8.546
   76SBC   H00G52975   4.495  11.219   8.542
   76SBC   O00F52976   4.333  11.128   8.456
   76SBC   C07J52977   4.199  11.128   8.452
   76SBC   C07I52978   4.117  11.201   8.538
   76SBC   N00452979   3.974  11.188   8.534
   76SBC   C07R52980   3.919  11.110   8.427
   76SBC   C07T52981   4.012  11.033   8.349
   76SBC   C0FX52982   3.965  10.934   8.270
   76SBC   C0FW52983   4.035  10.837   8.209
   76SBC   C0G052984   4.172  10.851   8.223
   76SBC   C0G252985   4.258  10.751   8.168
   76SBC   H01E52986   4.365  10.758   8.187
   76SBC   C0G352987   4.202  10.643   8.108
   76SBC   H01C52988   4.266  10.567   8.066
   76SBC   C0G452989   4.067  10.624   8.099
   76SBC   H01D52990   4.028  10.532   8.056
   76SBC   O00E52991   4.230  10.948   8.297
   76SBC   C0FV52992   3.976  10.725   8.147
   76SBC   C0FU52993   3.834  10.716   8.149
   76SBC   H01B52994   3.772  10.634   8.117
   76SBC   C0FT52995   3.756  10.823   8.195
   76SBC   C0FS52996   3.622  10.851   8.230
   76SBC   C0BI52997   3.609  10.992   8.264
   76SBC   C0BH52998   3.484  11.009   8.332
   76SBC   C07F52999   3.481  11.041   8.469
   76SBC   C07E53000   3.570  11.112   8.547
   76SBC   C07G53001   3.701  11.146   8.522
   76SBC   C07453002   3.750  11.217   8.629
   76SBC   C06553003   3.543  11.149   8.683
   76SBC   C06453004   3.440  11.075   8.742
   76SBC   C06353005   3.404  11.091   8.873
   76SBC   C07553006   3.298  10.987   8.892
   76SBC   C0AM53007   3.273  10.905   8.775
   76SBC   C0AN53008   3.184  10.785   8.750
   76SBC   C0AO53009   3.094  10.715   8.852
   76SBC   C0B153010   3.022  10.597   8.810
   76SBC   C0B053011   3.044  10.538   8.686
   76SBC   C0AZ53012   2.986  10.420   8.643
   76SBC   C0AY53013   3.017  10.367   8.520
   76SBC   N00753014   2.962  10.247   8.472
   76SBC   C0E253015   3.001  10.193   8.348
   76SBC   C0E153016   2.953  10.072   8.310
   76SBC   C0E453017   3.005  10.011   8.197
   76SBC   C0FF53018   2.973   9.872   8.165
   76SBC   C0FJ53019   3.030   9.783   8.064
   76SBC   C0FK53020   3.158   9.788   7.991
   76SBC   H01653021   3.223   9.873   7.982
   76SBC   C0FL53022   3.182   9.644   7.967
   76SBC   H01753023   3.270   9.602   7.921
   76SBC   C0FM53024   3.076   9.563   8.013
   76SBC   C0FH53025   3.016   9.433   8.047
   76SBC   C0FI53026   2.890   9.462   8.107
   76SBC   C0F353027   2.850   9.392   8.228
   76SBC   C0F253028   2.776   9.468   8.315
   76SBC   C0DW53029   2.761   9.605   8.318
   76SBC   C0FE53030   2.827   9.682   8.224
   76SBC   C0DV53031   2.714   9.670   8.435
   76SBC   C0DX53032   2.741   9.802   8.450
   76SBC   C0DK53033   2.696   9.861   8.566
   76SBC   C0DJ53034   2.630   9.788   8.669
   76SBC   C0DI53035   2.586   9.844   8.784
   76SBC   C0DH53036   2.603   9.983   8.803
   76SBC   C0DG53037   2.688  10.052   8.712
   76SBC   C0BV53038   2.731  10.180   8.745
   76SBC   C0BC53039   2.826  10.247   8.664
   76SBC   C0BA53040   2.690  10.238   8.861
   76SBC   C0B453041   2.750  10.356   8.906
   76SBC   C0B353042   2.857  10.411   8.841
   76SBC   C0B553043   2.715  10.408   9.032
   76SBC   C0BU53044   2.605  10.354   9.100
   76SBC   C0BT53045   2.548  10.236   9.053
   76SBC   C0BS53046   2.447  10.171   9.130
   76SBC   C0CC53047   2.417  10.040   9.104
   76SBC   C0CB53048   2.331   9.964   9.184
   76SBC   C0CH53049   2.361   9.827   9.195
   76SBC   C0DO53050   2.433   9.757   9.097
   76SBC   C0DP53051   2.440   9.619   9.098
   76SBC   C0EA53052   2.389   9.538   9.211
   76SBC   H01253053   2.338   9.583   9.295
   76SBC   O00953054   2.389   9.400   9.208
   76SBC   C0EH53055   2.457   9.337   9.104
   76SBC   C0EG53056   2.495   9.200   9.113
   76SBC   C0EJ53057   2.486   9.102   9.217
   76SBC   H01053058   2.441   9.115   9.314
   76SBC   C0EK53059   2.547   8.982   9.173
   76SBC   H00Z53060   2.571   8.898   9.236
   76SBC   C0EL53061   2.583   9.009   9.037
   76SBC   C0EM53062   2.676   8.931   8.953
   76SBC   C0EW53063   2.729   8.804   8.978
   76SBC   H01353064   2.704   8.745   9.065
   76SBC   C0EX53065   2.820   8.749   8.876
   76SBC   H01453066   2.866   8.653   8.890
   76SBC   C0F153067   2.856   8.826   8.758
   76SBC   C0EU53068   2.799   8.951   8.740
   76SBC   C0ET53069   2.822   9.040   8.631
   76SBC   C0ES53070   2.742   9.149   8.669
   76SBC   C0EE53071   2.679   9.133   8.796
   76SBC   C0ED53072   2.599   9.201   8.889
   76SBC   C0EC53073   2.571   9.344   8.875
   76SBC   C0EB53074   2.602   9.423   8.764
   76SBC   C0EN53075   2.649   9.366   8.635
   76SBC   C0ER53076   2.658   9.457   8.528
   76SBC   C0DS53077   2.593   9.567   8.766
   76SBC   C0DR53078   2.535   9.632   8.878
   76SBC   C0EY53079   2.713   9.250   8.589
   76SBC   C0EZ53080   2.778   9.269   8.460
   76SBC   C0F553081   2.876   9.200   8.375
   76SBC   C0F653082   2.940   9.083   8.406
   76SBC   N00853083   3.048   9.043   8.320
   76SBC   C0F753084   3.092   9.121   8.206
   76SBC   C0FQ53085   3.206   9.074   8.137
   76SBC   H01853086   3.235   9.129   8.049
   76SBC   C0FP53087   3.267   8.958   8.175
   76SBC   H01953088   3.357   8.926   8.125
   76SBC   C0FO53089   3.217   8.876   8.278
   76SBC   H01A53090   3.266   8.783   8.304
   76SBC   C0F853091   3.019   9.235   8.187
   76SBC   C0F953092   3.114   8.923   8.354
   76SBC   C0FA53093   3.083   8.846   8.467
   76SBC   H01553094   3.145   8.760   8.490
   76SBC   C0FB53095   2.977   8.885   8.549
   76SBC   C0FD53096   2.912   9.004   8.521
   76SBC   C0FC53097   2.957   8.796   8.661
   76SBC   O00A53098   3.033   8.698   8.682
   76SBC   C0EV53099   2.707   8.997   8.833
   76SBC   C0EF53100   2.557   9.143   9.009
   76SBC   C0EI53101   2.504   9.409   8.985
   76SBC   C0DQ53102   2.496   9.553   8.985
   76SBC   C0CE53103   2.478   9.834   8.995
   76SBC   H00U53104   2.313   9.775   9.277
   76SBC   C0CA53105   2.233  10.041   9.259
   76SBC   C0C953106   2.258  10.184   9.283
   76SBC   C0C853107   2.155  10.270   9.334
   76SBC   C0C753108   2.161  10.395   9.411
   76SBC   C0C653109   2.032  10.449   9.440
   76SBC   C0C553110   1.975  10.541   9.544
   76SBC   C0CQ53111   1.847  10.514   9.595
   76SBC   C0D153112   1.797  10.389   9.576
   76SBC   C0D853113   1.730  10.344   9.681
   76SBC   C0D753114   1.703  10.461   9.749
   76SBC   C0D653115   1.632  10.480   9.865
   76SBC   C0D553116   1.584  10.600   9.915
   76SBC   C0D453117   1.633  10.735   9.893
   76SBC   C0D353118   1.619  10.805  10.021
   76SBC   C0CX53119   1.728  10.889  10.044
   76SBC   C0CW53120   1.825  10.858   9.943
   76SBC   C0CV53121   1.972  10.888   9.912
   76SBC   C0D253122   2.050  10.977  10.000
   76SBC   C09D53123   2.008  11.045  10.117
   76SBC   C09C53124   2.092  11.129  10.187
   76SBC   C09B53125   2.056  11.205  10.303
   76SBC   C09A53126   1.930  11.175  10.356
   76SBC   C09953127   1.858  11.070  10.319
   76SBC   C09853128   1.730  11.087  10.363
   76SBC   C08Y53129   1.719  11.218  10.431
   76SBC   C08X53130   1.610  11.306  10.470
   76SBC   C08W53131   1.474  11.265  10.441
   76SBC   C08U53132   1.431  11.153  10.356
   76SBC   C08V53133   1.502  11.058  10.276
   76SBC   C0DC53134   1.402  10.980  10.212
   76SBC   H00W53135   1.420  10.906  10.135
   76SBC   C0DB53136   1.274  11.019  10.247
   76SBC   H00X53137   1.181  10.986  10.203
   76SBC   C08T53138   1.293  11.125  10.337
   76SBC   C08S53139   1.188  11.207  10.391
   76SBC   H00N53140   1.084  11.191  10.369
   76SBC   C08R53141   1.228  11.323  10.455
   76SBC   C08Q53142   1.133  11.416  10.495
   76SBC   H00O53143   1.030  11.394  10.468
   76SBC   C08P53144   1.154  11.531  10.574
   76SBC   C08O53145   1.048  11.614  10.628
   76SBC   H00P53146   0.946  11.578  10.619
   76SBC   C08N53147   1.081  11.733  10.702
   76SBC   C08M53148   0.971  11.810  10.756
   76SBC   O00853149   0.859  11.767  10.763
   76SBC   O00753150   1.009  11.935  10.811
   76SBC   C08H53151   1.144  11.977  10.802
   76SBC   C08G53152   1.180  12.106  10.848
   76SBC   C03V53153   1.090  12.196  10.915
   76SBC   H00953154   0.990  12.163  10.936
   76SBC   C03U53155   1.138  12.333  10.948
   76SBC   C03W53156   1.067  12.442  11.021
   76SBC   H00A53157   0.964  12.434  11.055
   76SBC   C03X53158   1.121  12.563  11.029
   76SBC   H00B53159   1.064  12.647  11.066
   76SBC   O00553160   1.250  12.597  11.000
   76SBC   C03O53161   1.322  12.495  10.939
   76SBC   C03N53162   1.450  12.531  10.908
   76SBC   O00053163   1.485  12.662  10.918
   76SBC   C01953164   1.613  12.705  10.891
   76SBC   C01853165   1.701  12.610  10.832
   76SBC   C01753166   1.667  12.476  10.816
   76SBC   C01653167   1.761  12.386  10.767
   76SBC   C01553168   1.885  12.439  10.725
   76SBC   C01453169   1.979  12.348  10.675
   76SBC   C01353170   1.951  12.209  10.656
   76SBC   C01253171   2.081  12.157  10.603
   76SBC   C01153172   2.161  12.271  10.593
   76SBC   C01053173   2.284  12.265  10.556
   76SBC   C00Z53174   2.372  12.364  10.524
   76SBC   C00Y53175   2.477  12.297  10.469
   76SBC   C01O53176   2.458  12.163  10.463
   76SBC   C01P53177   2.511  12.077  10.366
   76SBC   C02L53178   2.458  11.952  10.356
   76SBC   C02K53179   2.347  11.929  10.433
   76SBC   C01M53180   2.267  12.025  10.504
   76SBC   C02J53181   2.309  11.792  10.424
   76SBC   C02I53182   2.203  11.727  10.485
   76SBC   C02H53183   2.094  11.782  10.549
   76SBC   C01Q53184   2.055  11.916  10.579
   76SBC   C02G53185   1.927  11.922  10.624
   76SBC   C08953186   1.887  11.790  10.625
   76SBC   C08853187   1.762  11.765  10.670
   76SBC   C08753188   1.716  11.905  10.692
   76SBC   C08653189   1.583  11.944  10.741
   76SBC   C03S53190   1.535  12.078  10.766
   76SBC   N00653191   1.401  12.064  10.788
   76SBC   C08F53192   1.366  11.935  10.764
   76SBC   C01J53193   1.586  12.206  10.782
   76SBC   C03R53194   1.495  12.303  10.826
   76SBC   C03Q53195   1.359  12.275  10.859
   76SBC   C08E53196   1.470  11.857  10.728
   76SBC   C08D53197   1.454  11.722  10.679
   76SBC   C08K53198   1.323  11.685  10.660
   76SBC   C08C53199   1.547  11.624  10.651
   76SBC   C09153200   1.512  11.501  10.591
   76SBC   C09253201   1.381  11.469  10.550
   76SBC   C08B53202   1.690  11.634  10.657
   76SBC   C09053203   1.740  11.511  10.593
   76SBC   C09453204   1.875  11.474  10.570
   76SBC   C09553205   1.920  11.366  10.495
   76SBC   C09R53206   2.049  11.385  10.451
   76SBC   C09753207   2.089  11.516  10.483
   76SBC   C09653208   1.982  11.569  10.554
   76SBC   C01I53209   1.823  12.008  10.674
   76SBC   C08A53210   1.984  11.703  10.582
   76SBC   C09L53211   2.206  11.590  10.455
   76SBC   C09K53212   2.319  11.568  10.376
   76SBC   C09J53213   2.346  11.447  10.303
   76SBC   C09I53214   2.437  11.434  10.196
   76SBC   C09O53215   2.548  11.506  10.133
   76SBC   C09N53216   2.577  11.642  10.174
   76SBC   C09M53217   2.502  11.727  10.265
   76SBC   C06O53218   2.689  11.698  10.103
   76SBC   C05M53219   2.764  11.620  10.013
   76SBC   C06P53220   2.728  11.492   9.977
   76SBC   C04253221   2.874  11.677   9.940
   76SBC   C04153222   2.916  11.808   9.966
   76SBC   C04053223   3.029  11.865   9.912
   76SBC   C03Z53224   3.060  11.999   9.921
   76SBC   C03Y53225   2.980  12.075  10.006
   76SBC   C02753226   3.002  12.211  10.005
   76SBC   C02653227   2.916  12.293  10.077
   76SBC   C02853228   2.929  12.432  10.077
   76SBC   C02953229   3.032  12.489  10.013
   76SBC   C02B53230   3.049  12.625  10.016
   76SBC   C02C53231   3.151  12.684   9.949
   76SBC   C02X53232   3.173  12.818   9.967
   76SBC   C03E53233   3.289  12.868   9.915
   76SBC   C03G53234   3.383  12.796   9.843
   76SBC   C04Q53235   3.355  12.663   9.821
   76SBC   C04R53236   3.445  12.586   9.750
   76SBC   C04S53237   3.420  12.450   9.729
   76SBC   C04L53238   3.308  12.394   9.789
   76SBC   C04M53239   3.222  12.471   9.869
   76SBC   C04K53240   3.289  12.259   9.783
   76SBC   C04F53241   3.362  12.181   9.698
   76SBC   C04E53242   3.469  12.240   9.630
   76SBC   C04D53243   3.535  12.167   9.529
   76SBC   C05053244   3.624  12.228   9.448
   76SBC   C05153245   3.682  12.157   9.343
   76SBC   C05Q53246   3.768  12.225   9.256
   76SBC   C05V53247   3.818  12.154   9.149
   76SBC   N00553248   3.908  12.223   9.066
   76SBC   C07V53249   3.938  12.359   9.090
   76SBC   C08253250   4.024  12.428   9.008
   76SBC   C08153251   4.096  12.364   8.908
   76SBC   C07C53252   4.070  12.227   8.888
   76SBC   C07B53253   4.143  12.153   8.795
   76SBC   C08053254   4.251  12.213   8.731
   76SBC   C07Z53255   4.327  12.135   8.641
   76SBC   H00L53256   4.418  12.180   8.604
   76SBC   C07953257   4.303  11.999   8.622
   76SBC   C07853258   4.195  11.942   8.685
   76SBC   C07753259   4.162  11.805   8.663
   76SBC   C07X53260   4.251  11.725   8.584
   76SBC   H00I53261   4.238  11.618   8.576
   76SBC   C07Y53262   4.362  11.786   8.525
   76SBC   H00H53263   4.433  11.729   8.467
   76SBC   C07653264   4.045  11.754   8.722
   76SBC   C06C53265   4.007  11.624   8.681
   76SBC   H00C53266   4.049  11.576   8.594
   76SBC   C06F53267   3.972  11.828   8.813
   76SBC   C06E53268   3.864  11.775   8.879
   76SBC   C06G53269   3.802  11.830   8.987
   76SBC   C06H53270   3.844  11.960   9.018
   76SBC   C06I53271   3.940  12.028   8.940
   76SBC   C06L53272   3.705  11.758   9.054
   76SBC   C06M53273   3.664  11.625   9.024
   76SBC   C06K53274   3.645  11.821   9.168
   76SBC   C05S53275   3.691  11.955   9.203
   76SBC   C05U53276   3.554  11.760   9.253
   76SBC   C05X53277   3.504  11.628   9.222
   76SBC   C05G53278   3.409  11.571   9.320
   76SBC   C05F53279   3.376  11.653   9.431
   76SBC   C05E53280   3.286  11.592   9.518
   76SBC   C04853281   3.225  11.652   9.623
   76SBC   C05653282   3.130  11.586   9.691
   76SBC   C04553283   3.059  11.660   9.788
   76SBC   C04753284   3.268  11.781   9.648
   76SBC   C04953285   3.371  11.843   9.572
   76SBC   C04B53286   3.405  11.973   9.592
   76SBC   C04653287   3.205  11.851   9.748
   76SBC   C04H53288   3.235  11.986   9.759
   76SBC   C05D53289   3.248  11.471   9.460
   76SBC   C04A53290   3.431  11.778   9.460
   76SBC   C05T53291   3.516  11.832   9.370
   76SBC   C05553292   3.560  11.963   9.403
   76SBC   C06D53293   3.845  11.637   8.861
   76SBC   C07W53294   4.013  11.958   8.843
   76SBC   C08553295   4.389  11.920   8.543
   76SBC   H00M53296   4.478  11.961   8.498
   76SBC   C08453297   4.272  12.348   8.748
   76SBC   H00J53298   4.354  12.397   8.698
   76SBC   C07A53299   4.117  12.017   8.774
   76SBC   C08353300   4.195  12.431   8.832
   76SBC   H00K53301   4.199  12.538   8.844
   76SBC   O00K53302   4.054  12.561   9.027
   76SBC   C0GO53303   4.006  12.625   9.134
   76SBC   C0GN53304   4.046  12.753   9.163
   76SBC   H01L53305   4.119  12.799   9.098
   76SBC   C0GM53306   3.999  12.827   9.269
   76SBC   C0GL53307   4.041  12.952   9.292
   76SBC   H01M53308   4.107  13.005   9.224
   76SBC   O00J53309   3.999  13.023   9.401
   76SBC   C0GK53310   3.925  12.950   9.494
   76SBC   H01N53311   3.900  13.002   9.586
   76SBC   C05K53312   3.878  12.820   9.467
   76SBC   C05J53313   3.767  12.770   9.546
   76SBC   C04Y53314   3.701  12.837   9.657
   76SBC   C04X53315   3.585  12.781   9.715
   76SBC   O00653316   3.738  12.960   9.712
   76SBC   C05353317   3.670  13.036   9.809
   76SBC   C04O53318   3.542  12.989   9.850
   76SBC   C03C53319   3.445  13.053   9.936
   76SBC   C03B53320   3.436  13.181  10.002
   76SBC   C05453321   3.550  13.255  10.031
   76SBC   C0GR53322   3.548  13.363  10.131
   76SBC   C03M53323   3.446  13.423  10.225
   76SBC   C03I53324   3.321  13.372  10.256
   76SBC   C03J53325   3.243  13.443  10.356
   76SBC   N00253326   3.112  13.395  10.393
   76SBC   C02U53327   3.033  13.458  10.498
   76SBC   C02T53328   2.906  13.410  10.534
   76SBC   C02Z53329   2.827  13.488  10.618
   76SBC   N00153330   2.702  13.438  10.661
   76SBC   C02R53331   2.617  13.517  10.748
   76SBC   C03253332   2.658  13.646  10.783
   76SBC   C03153333   2.790  13.681  10.756
   76SBC   H00753334   2.819  13.774  10.803
   76SBC   C03353335   2.558  13.726  10.855
   76SBC   H00353336   2.577  13.820  10.906
   76SBC   O00453337   2.433  13.685  10.880
   76SBC   C03453338   2.422  13.550  10.879
   76SBC   C03553339   2.316  13.500  10.950
   76SBC   C03653340   2.314  13.358  10.969
   76SBC   H00553341   2.247  13.316  11.043
   76SBC   C03753342   2.397  13.269  10.892
   76SBC   H00653343   2.388  13.162  10.907
   76SBC   C00D53344   2.478  13.323  10.790
   76SBC   C00C53345   2.543  13.244  10.691
   76SBC   C00B53346   2.484  13.116  10.638
   76SBC   C00A53347   2.395  12.987  10.670
   76SBC   C00953348   2.443  12.895  10.574
   76SBC   C00853349   2.413  12.761  10.556
   76SBC   C00753350   2.304  12.716  10.622
   76SBC   C00653351   2.273  12.580  10.597
   76SBC   C00553352   2.147  12.535  10.639
   76SBC   C00453353   2.048  12.623  10.696
   76SBC   C00353354   2.086  12.758  10.721
   76SBC   C00253355   1.995  12.842  10.783
   76SBC   C01C53356   1.867  12.792  10.822
   76SBC   C01B53357   1.770  12.881  10.873
   76SBC   H00053358   1.772  12.988  10.888
   76SBC   C00153359   2.037  12.970  10.818
   76SBC   C00053360   2.162  13.012  10.778
   76SBC   C01U53361   2.151  13.153  10.786
   76SBC   H00253362   2.199  13.237  10.738
   76SBC   C01T53363   2.035  13.184  10.874
   76SBC   O00253364   1.998  13.289  10.922
   76SBC   O00153365   1.972  13.067  10.890
   76SBC   C01S53366   2.212  12.801  10.680
   76SBC   C00N53367   2.491  12.690  10.467
   76SBC   C00M53368   2.583  12.744  10.382
   76SBC   C00J53369   2.619  12.869  10.403
   76SBC   C00I53370   2.726  12.929  10.347
   76SBC   C00H53371   2.767  13.055  10.396
   76SBC   C00G53372   2.696  13.126  10.489
   76SBC   C00F53373   2.735  13.245  10.536
   76SBC   C01X53374   2.883  13.110  10.340
   76SBC   C01W53375   2.956  13.042  10.245
   76SBC   C01V53376   2.913  12.916  10.199
   76SBC   C02053377   2.988  12.838  10.112
   76SBC   C01Z53378   3.070  13.097  10.194
   76SBC   C02Y53379   3.131  13.018  10.097
   76SBC   C03953380   3.248  13.068  10.042
   76SBC   C02W53381   3.130  13.216  10.236
   76SBC   C01Y53382   2.933  13.231  10.391
   76SBC   C00U53383   2.795  12.864  10.250
   76SBC   C00S53384   2.773  12.727  10.231
   76SBC   C00T53385   2.855  12.644  10.153
   76SBC   C00R53386   2.670  12.668  10.304
   76SBC   C00Q53387   2.656  12.535  10.295
   76SBC   C00V53388   2.741  12.456  10.218
   76SBC   C02453389   2.729  12.319  10.215
   76SBC   C00X53390   2.637  12.257  10.298
   76SBC   C00P53391   2.564  12.482  10.376
   76SBC   C00O53392   2.472  12.556  10.459
   76SBC   C00K53393   2.541  12.946  10.491
   76SBC   N00053394   2.259  12.941  10.709
   76SBC   C00L53395   2.572  13.071  10.533
   76SBC   H00453396   2.244  13.568  10.993
   76SBC   C02Q53397   2.505  13.462  10.802
   76SBC   C00E53398   2.655  13.309  10.624
   76SBC   C03053399   2.875  13.608  10.672
   76SBC   O00353400   3.004  13.643  10.652
   76SBC   C02S53401   2.857  13.294  10.491
   76SBC   C03853402   3.079  13.575  10.558
   76SBC   C03L53403   3.199  13.633  10.507
   76SBC   H00853404   3.234  13.726  10.548
   76SBC   C02V53405   3.051  13.280  10.333
   76SBC   C03K53406   3.282  13.561  10.415
   76SBC   C0BK53407   3.407  13.602  10.380
   76SBC   H00T53408   3.439  13.697  10.421
   76SBC   C03H53409   3.253  13.264  10.191
   76SBC   C0BL53410   3.495  13.537  10.295
   76SBC   C0GU53411   3.625  13.592  10.268
   76SBC   H01O53412   3.653  13.687  10.311
   76SBC   C0GT53413   3.719  13.538  10.180
   76SBC   H01P53414   3.813  13.587  10.158
   76SBC   C0GS53415   3.673  13.424  10.112
   76SBC   C0GV53416   3.747  13.353  10.010
   76SBC   C0GW53417   3.886  13.366   9.977
   76SBC   H01Q53418   3.942  13.445  10.024
   76SBC   C0GX53419   3.936  13.270   9.896
   76SBC   H01R53420   4.043  13.273   9.879
   76SBC   O00L53421   3.861  13.169   9.835
   76SBC   C0GQ53422   3.676  13.242   9.963
   76SBC   C03A53423   3.315  13.187  10.082
   76SBC   C05L53424   3.731  13.150   9.872
   76SBC   C04W53425   3.729  12.634   9.521
   76SBC   C05I53426   3.793  12.561   9.423
   76SBC   C05O53427   3.884  12.624   9.338
   76SBC   C05253428   3.752  12.427   9.393
   76SBC   C04V53429   3.630  12.570   9.597
   76SBC   C04U53430   3.590  12.439   9.568
   76SBC   N00953431   3.918  12.755   9.357
   76SBC   C0GP53432   3.924  12.560   9.222
   76SBC   C05W53433   3.880  12.429   9.197
   76SBC   C07D53434   3.973  12.162   8.961
   76SBC   C06J53435   3.788  12.021   9.127
   76SBC   C05P53436   3.804  12.357   9.287
   76SBC   C05R53437   3.651  12.021   9.319
   76SBC   C04Z53438   3.656  12.364   9.467
   76SBC   C04C53439   3.500  12.032   9.508
   76SBC   C04G53440   3.334  12.046   9.684
   76SBC   C04J53441   3.187  12.199   9.853
   76SBC   C04T53442   3.498  12.375   9.648
   76SBC   N00353443   3.554  12.648   9.686
   76SBC   C04P53444   3.500  12.859   9.804
   76SBC   C03D53445   3.320  12.993   9.949
   76SBC   C02153446   3.095  12.897  10.055
   76SBC   C03F53447   3.239  12.609   9.877
   76SBC   C02253448   2.962  12.703  10.088
   76SBC   C02A53449   3.120  12.410   9.941
   76SBC   C02353450   2.840  12.511  10.145
   76SBC   C02553451   2.813  12.236  10.146
   76SBC   C02D53452   2.791  12.096  10.146
   76SBC   C02E53453   2.686  12.043  10.220
   76SBC   C02N53454   2.648  11.910  10.210
   76SBC   C04N53455   3.105  12.273   9.931
   76SBC   C02P53456   2.877  12.016  10.076
   76SBC   C04I53457   3.160  12.063   9.844
   76SBC   C04453458   3.100  11.795   9.819
   76SBC   C04353459   2.837  11.881  10.055
   76SBC   C05N53460   2.724  11.830  10.124
   76SBC   C09U53461   2.617  11.436  10.035
   76SBC   C09V53462   2.570  11.315   9.981
   76SBC   C09X53463   2.451  11.255  10.025
   76SBC   C09Y53464   2.388  11.147   9.972
   76SBC   C0A153465   2.439  11.091   9.863
   76SBC   C0A253466   2.560  11.141   9.815
   76SBC   C0A453467   2.621  11.076   9.710
   76SBC   C07153468   2.745  11.121   9.660
   76SBC   C0A553469   2.810  11.053   9.557
   76SBC   C0A953470   2.754  10.938   9.510
   76SBC   C0A853471   2.629  10.898   9.559
   76SBC   C0AP53472   2.576  10.782   9.515
   76SBC   C0BY53473   2.447  10.745   9.553
   76SBC   C0BX53474   2.367  10.821   9.636
   76SBC   C0C253475   2.237  10.780   9.667
   76SBC   C0C353476   2.170  10.850   9.773
   76SBC   C0CT53477   2.236  10.959   9.834
   76SBC   C0C153478   2.180  10.660   9.613
   76SBC   C0C053479   2.276  10.567   9.545
   76SBC   C0A753480   2.429  10.930   9.695
   76SBC   C0BZ53481   2.409  10.612   9.538
   76SBC   C0BO53482   2.482  10.528   9.453
   76SBC   C0BN53483   2.588  10.586   9.379
   76SBC   C0BM53484   2.629  10.521   9.267
   76SBC   C0B953485   2.735  10.580   9.195
   76SBC   C0B853486   2.802  10.694   9.238
   76SBC   C0AD53487   2.748  10.757   9.352
   76SBC   C0AF53488   2.904  10.749   9.171
   76SBC   C0AG53489   2.947  10.696   9.048
   76SBC   C0B753490   2.881  10.585   9.004
   76SBC   C0AE53491   2.965  10.857   9.230
   76SBC   C0AB53492   2.926  10.916   9.350
   76SBC   C0AA53493   2.984  11.033   9.396
   76SBC   C0AJ53494   3.063  10.917   9.163
   76SBC   C0AK53495   3.129  11.029   9.208
   76SBC   C06W53496   3.218  11.064   9.115
   76SBC   C0AI53497   3.120  10.874   9.042
   76SBC   C0BP53498   2.402  10.422   9.408
   76SBC   C0BQ53499   2.448  10.352   9.285
   76SBC   C0BW53500   2.643  10.705   9.417
   76SBC   C0AC53501   2.811  10.869   9.402
   76SBC   C0A653502   2.560  10.969   9.653
   76SBC   C0A353503   2.364  10.994   9.797
   76SBC   C09Z53504   2.266  11.103  10.019
   76SBC   C09W53505   2.625  11.251   9.876
   76SBC   C07253506   2.741  11.295   9.825
   76SBC   C09H53507   2.405  11.309  10.145
   76SBC   C09G53508   2.299  11.246  10.208
   76SBC   C09P53509   2.253  11.335  10.297
   76SBC   C02O53510   2.390  11.690  10.353
   76SBC   C02M53511   2.535  11.861  10.277
   76SBC   C02F53512   2.615  12.121  10.300
   76SBC   C00W53513   2.561  12.345  10.374
   76SBC   C01R53514   2.360  12.504  10.521
   76SBC   C01N53515   2.333  12.146  10.509
   76SBC   C01L53516   2.137  12.026  10.565
   76SBC   C01H53517   1.829  12.152  10.695
   76SBC   C01K53518   2.106  12.392  10.628
   76SBC   C01E53519   1.922  12.573  10.734
   76SBC   C01G53520   1.725  12.244  10.746
   76SBC   C01D53521   1.830  12.653  10.800
   76SBC   C01A53522   1.646  12.838  10.914
   76SBC   H00153523   1.578  12.914  10.950
   76SBC   C01F53524   1.541  12.432  10.851
   76SBC   C03P53525   1.272  12.367  10.907
   76SBC   C03T53526   1.311  12.153  10.833
   76SBC   C08I53527   1.241  11.890  10.758
   76SBC   C08J53528   1.216  11.771  10.705
   76SBC   C08L53529   1.286  11.565  10.591
   76SBC   C09353530   1.363  11.346  10.483
   76SBC   C08Z53531   1.629  11.430  10.542
   76SBC   C09T53532   1.645  11.038  10.258
   76SBC   C09S53533   1.855  11.257  10.438
   76SBC   C09Q53534   2.124  11.308  10.359
   76SBC   C09F53535   2.218  11.153  10.136
   76SBC   C09E53536   1.881  11.029  10.185
   76SBC   C0A053537   2.180  11.011   9.951
   76SBC   C0CU53538   2.036  10.816   9.801
   76SBC   C0CR53539   1.972  10.717   9.721
   76SBC   C0CZ53540   1.837  10.686   9.760
   76SBC   C0DA53541   1.744  10.987  10.153
   76SBC   C0D953542   1.580  10.711  10.125
   76SBC   H00V53543   1.595  10.728  10.231
   76SBC   C0CY53544   1.766  10.762   9.853
   76SBC   C0DF53545   1.558  10.584  10.052
   76SBC   C0DE53546   1.571  10.444  10.084
   76SBC   C0GI53547   1.531  10.359  10.194
   76SBC   H01K53548   1.485  10.392  10.286
   76SBC   C0GJ53549   1.547  10.227  10.182
   76SBC   H01J53550   1.510  10.160  10.258
   76SBC   O00I53551   1.626  10.170  10.080
   76SBC   C0GH53552   1.648  10.241   9.966
   76SBC   C0GG53553   1.702  10.166   9.855
   76SBC   O00G53554   1.718  10.028   9.889
   76SBC   C0G853555   1.761   9.941   9.795
   76SBC   C0G953556   1.752   9.813   9.842
   76SBC   H01G53557   1.709   9.797   9.939
   76SBC   C0GA53558   1.784   9.713   9.755
   76SBC   H01H53559   1.755   9.613   9.784
   76SBC   C0GB53560   1.843   9.736   9.631
   76SBC   C0EP53561   1.881   9.873   9.600
   76SBC   C0E853562   1.968   9.899   9.484
   76SBC   C0CK53563   2.043  10.009   9.437
   76SBC   C0CL53564   1.981  10.133   9.434
   76SBC   C0E953565   1.876  10.175   9.523
   76SBC   C0GE53566   1.805  10.119   9.640
   76SBC   C0E753567   1.988   9.799   9.386
   76SBC   C0CJ53568   2.067   9.838   9.277
   76SBC   C0E653569   2.086   9.746   9.172
   76SBC   H00Y53570   2.142   9.769   9.083
   76SBC   C0EO53571   2.020   9.619   9.181
   76SBC   H01153572   2.040   9.546   9.105
   76SBC   C0G653573   1.947   9.579   9.298
   76SBC   C0G553574   1.885   9.450   9.327
   76SBC   H01F53575   1.898   9.372   9.254
   76SBC   C0GD53576   1.822   9.425   9.441
   76SBC   H01I53577   1.769   9.332   9.458
   76SBC   O00H53578   1.810   9.510   9.544
   76SBC   C0EQ53579   1.929   9.673   9.410
   76SBC   C0GC53580   1.863   9.634   9.530
   76SBC   C0G753581   1.822   9.982   9.676
   76SBC   C0DD53582   1.624  10.377   9.969
   76SBC   C0GF53583   1.735  10.211   9.726
   76SBC   C0CO53584   1.856  10.307   9.485
   76SBC   C0D053585   1.796  10.561   9.710
   76SBC   C0C453586   2.041  10.637   9.623
   76SBC   C0CN53587   1.941  10.348   9.380
   76SBC   C0CP53588   2.273  10.438   9.475
   76SBC   C0CM53589   2.014  10.237   9.342
   76SBC   C0CI53590   2.122   9.966   9.318
   76SBC   C0CD53591   2.477   9.972   9.000
   76SBC   C0BR53592   2.382  10.241   9.233
   76SBC   C0CS53593   2.566  10.403   9.222
   76SBC   C0B653594   2.778  10.522   9.077
   76SBC   C0CG53595   2.595  10.175   8.939
   76SBC   C0CF53596   2.559  10.042   8.912
   76SBC   C0E553597   2.532   9.767   8.885
   76SBC   C0DT53598   2.625   9.653   8.659
   76SBC   C0DL53599   2.729   9.994   8.590
   76SBC   C0DM53600   2.813  10.067   8.502
   76SBC   C0DY53601   2.819   9.877   8.361
   76SBC   C0DU53602   2.661   9.596   8.537
   76SBC   C0F053603   2.728   9.395   8.423
   76SBC   C0F453604   2.908   9.271   8.264
   76SBC   C0FG53605   2.878   9.606   8.114
   76SBC   O00B53606   3.081   9.318   8.093
   76SBC   C0FN53607   2.978   9.659   8.044
   76SBC   C0DZ53608   2.873   9.811   8.249
   76SBC   O00C53609   3.093  10.078   8.115
   76SBC   C0FR53610   3.144  10.198   8.147
   76SBC   O00D53611   3.230  10.238   8.072
   76SBC   C0E053612   2.862  10.004   8.389
   76SBC   C0E353613   3.096  10.263   8.263
   76SBC   C0AW53614   3.131  10.394   8.302
   76SBC   C0AV53615   3.200  10.484   8.218
   76SBC   H00Q53616   3.233  10.467   8.116
   76SBC   C0AU53617   3.235  10.614   8.263
   76SBC   H00R53618   3.272  10.682   8.188
   76SBC   C0AT53619   3.226  10.638   8.397
   76SBC   C0AS53620   3.256  10.745   8.485
   76SBC   C0AR53621   3.334  10.864   8.446
   76SBC   C0BE53622   3.155  10.553   8.477
   76SBC   C0DN53623   2.868  10.186   8.549
   76SBC   C0AX53624   3.095  10.432   8.429
   76SBC   C0BB53625   2.891  10.362   8.718
   76SBC   C0BD53626   3.131  10.606   8.601
   76SBC   C0B253627   2.923  10.530   8.887
   76SBC   C0AH53628   3.060  10.760   8.983
   76SBC   C0BF53629   3.195  10.729   8.618
   76SBC   C0AL53630   3.217  10.969   9.010
   76SBC   C07U53631   3.363  10.971   8.682
   76SBC   C0AQ53632   3.383  10.958   8.540
   76SBC   C0BG53633   3.411  10.883   8.323
   76SBC   C0FY53634   3.740  11.030   8.300
   76SBC   C0BJ53635   3.499  10.786   8.265
   76SBC   H00S53636   3.485  10.679   8.257
   76SBC   C0FZ53637   3.825  10.929   8.253
   76SBC   C07S53638   3.780  11.107   8.412
   76SBC   C0G153639   4.146  11.044   8.361
   76SBC   C07K53640   4.180  11.281   8.641
   76SBC   C07H53641   3.885  11.250   8.631
   76SBC   C06B53642   3.914  11.564   8.766
   76SBC   C06N53643   3.753  11.565   8.929
   76SBC   C06653644   3.645  11.238   8.732
   76SBC   C06253645   3.428  11.224   8.944
   76SBC   C05Y53646   3.557  11.565   9.101
   76SBC   C06153647   3.334  11.261   9.041
   76SBC   C05H53648   3.331  11.454   9.341
   76SBC   C06V53649   3.272  11.186   9.141
   76SBC   C06Y53650   3.091  11.086   9.331
   76SBC   C05C53651   3.145  11.399   9.532
   76SBC   C06Z53652   2.932  11.104   9.503
   76SBC   C07053653   2.811  11.232   9.717
   76SBC   C05B53654   3.083  11.463   9.643
   76SBC   C05753655   2.953  11.603   9.852
   76SBC   C05953656   2.797  11.419   9.881
   77SBC   C05853657   6.219  10.336  10.260
   77SBC   C05A53658   6.321  10.271  10.189
   77SBC   C06Q53659   6.449  10.267  10.242
   77SBC   C06R53660   6.551  10.199  10.178
   77SBC   C06S53661   6.532  10.146  10.047
   77SBC   C06T53662   6.634  10.081   9.982
   77SBC   C06U53663   6.650  10.034   9.841
   77SBC   C06X53664   6.557  10.019   9.739
   77SBC   C06053665   6.617   9.967   9.617
   77SBC   C05Z53666   6.577   9.863   9.515
   77SBC   C06853667   6.710   9.807   9.480
   77SBC   C06753668   6.756   9.749   9.352
   77SBC   C06953669   6.658   9.709   9.253
   77SBC   C06A53670   6.681   9.664   9.115
   77SBC   C07353671   6.772   9.712   9.015
   77SBC   C07P53672   6.724   9.735   8.886
   77SBC   C07O53673   6.586   9.750   8.842
   77SBC   H00D53674   6.516   9.756   8.924
   77SBC   C07N53675   6.550   9.767   8.704
   77SBC   H00E53676   6.449   9.781   8.670
   77SBC   C07M53677   6.652   9.794   8.615
   77SBC   H00F53678   6.633   9.805   8.509
   77SBC   C07L53679   6.782   9.801   8.655
   77SBC   C07Q53680   6.888   9.841   8.559
   77SBC   H00G53681   6.853   9.879   8.464
   77SBC   O00F53682   7.017   9.840   8.588
   77SBC   C07J53683   7.051   9.796   8.716
   77SBC   C07I53684   6.954   9.757   8.815
   77SBC   N00453685   6.997   9.729   8.947
   77SBC   C07R53686   7.135   9.714   8.970
   77SBC   C07T53687   7.224   9.753   8.869
   77SBC   C0FX53688   7.360   9.755   8.892
   77SBC   C0FW53689   7.457   9.811   8.812
   77SBC   C0G053690   7.413   9.871   8.691
   77SBC   C0G253691   7.499   9.943   8.604
   77SBC   H01E53692   7.471   9.996   8.514
   77SBC   C0G353693   7.631   9.955   8.646
   77SBC   H01C53694   7.700  10.012   8.586
   77SBC   C0G453695   7.674   9.885   8.757
   77SBC   H01D53696   7.777   9.900   8.787
   77SBC   O00E53697   7.277   9.854   8.651
   77SBC   C0FV53698   7.592   9.817   8.849
   77SBC   C0FU53699   7.629   9.761   8.973
   77SBC   H01B53700   7.730   9.762   9.012
   77SBC   C0FT53701   7.540   9.684   9.052
   77SBC   C0FS53702   7.519   9.631   9.179
   77SBC   C0BI53703   7.388   9.566   9.186
   77SBC   C0BH53704   7.345   9.538   9.325
   77SBC   C07F53705   7.238   9.602   9.381
   77SBC   C07E53706   7.117   9.640   9.324
   77SBC   C07G53707   7.088   9.656   9.191
   77SBC   C07453708   6.956   9.697   9.186
   77SBC   C06553709   7.009   9.687   9.399
   77SBC   C06453710   7.043   9.731   9.529
   77SBC   C06353711   6.955   9.800   9.619
   77SBC   C07553712   7.039   9.818   9.741
   77SBC   C0AM53713   7.174   9.770   9.722
   77SBC   C0AN53714   7.286   9.767   9.815
   77SBC   C0AO53715   7.297   9.818   9.957
   77SBC   C0B153716   7.419   9.796  10.037
   77SBC   C0B053717   7.524   9.719   9.989
   77SBC   C0AZ53718   7.640   9.682  10.058
   77SBC   C0AY53719   7.733   9.595   9.999
   77SBC   N00753720   7.843   9.552  10.069
   77SBC   C0E253721   7.942   9.469  10.005
   77SBC   C0E153722   8.046   9.435  10.084
   77SBC   C0E453723   8.146   9.349  10.022
   77SBC   C0FF53724   8.258   9.303  10.093
   77SBC   C0FJ53725   8.388   9.239  10.047
   77SBC   C0FK53726   8.447   9.260   9.917
   77SBC   H01653727   8.403   9.298   9.826
   77SBC   C0FL53728   8.588   9.242   9.939
   77SBC   H01753729   8.669   9.251   9.867
   77SBC   C0FM53730   8.621   9.214  10.078
   77SBC   C0FH53731   8.711   9.242  10.189
   77SBC   C0FI53732   8.626   9.250  10.301
   77SBC   C0F353733   8.660   9.355  10.390
   77SBC   C0F253734   8.560   9.422  10.449
   77SBC   C0DW53735   8.425   9.411  10.408
   77SBC   C0FE53736   8.380   9.324  10.310
   77SBC   C0DV53737   8.334   9.506  10.452
   77SBC   C0DX53738   8.210   9.517  10.393
   77SBC   C0DK53739   8.122   9.602  10.452
   77SBC   C0DJ53740   8.153   9.683  10.567
   77SBC   C0DI53741   8.065   9.776  10.614
   77SBC   C0DH53742   7.944   9.797  10.556
   77SBC   C0DG53743   7.914   9.728  10.438
   77SBC   C0BV53744   7.799   9.757  10.373
   77SBC   C0BC53745   7.771   9.692  10.254
   77SBC   C0BA53746   7.704   9.842  10.430
   77SBC   C0B453747   7.586   9.865  10.365
   77SBC   C0B353748   7.558   9.807  10.242
   77SBC   C0B553749   7.485   9.940  10.426
   77SBC   C0BU53750   7.503   9.988  10.558
   77SBC   C0BT53751   7.627   9.967  10.624
   77SBC   C0BS53752   7.648  10.021  10.753
   77SBC   C0CC53753   7.777  10.014  10.809
   77SBC   C0CB53754   7.808  10.076  10.926
   77SBC   C0CH53755   7.945  10.102  10.941
   77SBC   C0DO53756   8.051  10.034  10.876
   77SBC   C0DP53757   8.188  10.047  10.910
   77SBC   C0EA53758   8.230  10.132  11.013
   77SBC   H01253759   8.155  10.180  11.074
   77SBC   O00953760   8.357  10.165  11.038
   77SBC   C0EH53761   8.446  10.082  10.978
   77SBC   C0EG53762   8.577  10.110  11.006
   77SBC   C0EJ53763   8.650  10.206  11.086
   77SBC   H01053764   8.606  10.276  11.156
   77SBC   C0EK53765   8.791  10.196  11.058
   77SBC   H00Z53766   8.869  10.259  11.098
   77SBC   C0EL53767   8.799  10.087  10.967
   77SBC   C0EM53768   8.917  10.017  10.909
   77SBC   C0EW53769   9.053  10.042  10.928
   77SBC   H01353770   9.084  10.129  10.986
   77SBC   C0EX53771   9.160   9.963  10.876
   77SBC   H01453772   9.262   9.996  10.890
   77SBC   C0F153773   9.124   9.855  10.791
   77SBC   C0EU53774   8.990   9.830  10.762
   77SBC   C0ET53775   8.933   9.730  10.680
   77SBC   C0ES53776   8.795   9.755  10.695
   77SBC   C0EE53777   8.763   9.866  10.778
   77SBC   C0ED53778   8.651   9.934  10.841
   77SBC   C0EC53779   8.514   9.907  10.816
   77SBC   C0EB53780   8.466   9.797  10.733
   77SBC   C0EN53781   8.554   9.697  10.676
   77SBC   C0ER53782   8.499   9.602  10.593
   77SBC   C0DS53783   8.330   9.776  10.706
   77SBC   C0DR53784   8.234   9.867  10.763
   77SBC   C0EY53785   8.696   9.670  10.657
   77SBC   C0EZ53786   8.723   9.563  10.563
   77SBC   C0F553787   8.837   9.495  10.499
   77SBC   C0F653788   8.969   9.535  10.522
   77SBC   N00853789   9.064   9.455  10.445
   77SBC   C0F753790   9.026   9.361  10.335
   77SBC   C0FQ53791   9.129   9.290  10.272
   77SBC   H01853792   9.095   9.211  10.208
   77SBC   C0FP53793   9.259   9.294  10.304
   77SBC   H01953794   9.332   9.236  10.249
   77SBC   C0FO53795   9.297   9.393  10.399
   77SBC   H01A53796   9.401   9.408  10.423
   77SBC   C0F853797   8.890   9.343  10.313
   77SBC   C0F953798   9.200   9.479  10.466
   77SBC   C0FA53799   9.249   9.583  10.554
   77SBC   H01553800   9.356   9.594  10.563
   77SBC   C0FB53801   9.158   9.664  10.627
   77SBC   C0FD53802   9.022   9.637  10.608
   77SBC   C0FC53803   9.213   9.768  10.719
   77SBC   O00A53804   9.338   9.767  10.727
   77SBC   C0EV53805   8.891   9.911  10.815
   77SBC   C0EF53806   8.667  10.039  10.934
   77SBC   C0EI53807   8.413   9.979  10.884
   77SBC   C0DQ53808   8.281   9.965  10.848
   77SBC   C0CE53809   8.010   9.947  10.779
   77SBC   H00U53810   7.967  10.175  11.018
   77SBC   C0CA53811   7.707  10.109  11.015
   77SBC   C0C953812   7.566  10.113  10.967
   77SBC   C0C853813   7.467  10.126  11.069
   77SBC   C0C753814   7.324  10.169  11.062
   77SBC   C0C653815   7.251  10.183  11.184
   77SBC   C0C553816   7.128  10.255  11.237
   77SBC   C0CQ53817   7.134  10.286  11.374
   77SBC   C0D153818   7.261  10.289  11.435
   77SBC   C0D853819   7.286  10.406  11.503
   77SBC   C0D753820   7.157  10.453  11.525
   77SBC   C0D653821   7.117  10.561  11.602
   77SBC   C0D553822   6.981  10.594  11.634
   77SBC   C0D453823   6.857  10.554  11.573
   77SBC   C0D353824   6.771  10.665  11.587
   77SBC   C0CX53825   6.688  10.664  11.473
   77SBC   C0CW53826   6.747  10.578  11.369
   77SBC   C0CV53827   6.721  10.535  11.234
   77SBC   C0D253828   6.607  10.597  11.162
   77SBC   C09D53829   6.499  10.678  11.209
   77SBC   C09C53830   6.393  10.727  11.126
   77SBC   C09B53831   6.271  10.781  11.177
   77SBC   C09A53832   6.266  10.797  11.323
   77SBC   C09953833   6.377  10.785  11.398
   77SBC   C09853834   6.342  10.772  11.533
   77SBC   C08Y53835   6.197  10.755  11.533
   77SBC   C08X53836   6.111  10.691  11.631
   77SBC   C08W53837   6.169  10.631  11.751
   77SBC   C08U53838   6.315  10.606  11.785
   77SBC   C08V53839   6.441  10.623  11.710
   77SBC   C0DC53840   6.545  10.598  11.806
   77SBC   H00W53841   6.650  10.596  11.783
   77SBC   C0DB53842   6.495  10.544  11.926
   77SBC   H00X53843   6.552  10.501  12.007
   77SBC   C08T53844   6.350  10.553  11.908
   77SBC   C08S53845   6.252  10.517  11.999
   77SBC   H00N53846   6.283  10.465  12.089
   77SBC   C08R53847   6.119  10.533  11.973
   77SBC   C08Q53848   6.020  10.507  12.069
   77SBC   H00O53849   6.061  10.475  12.163
   77SBC   C08P53850   5.881  10.512  12.048
   77SBC   C08O53851   5.787  10.478  12.153
   77SBC   H00P53852   5.826  10.446  12.249
   77SBC   C08N53853   5.646  10.481  12.128
   77SBC   C08M53854   5.557  10.447  12.237
   77SBC   O00853855   5.598  10.416  12.352
   77SBC   O00753856   5.419  10.469  12.205
   77SBC   C08H53857   5.377  10.479  12.074
   77SBC   C08G53858   5.241  10.460  12.029
   77SBC   C03V53859   5.123  10.429  12.103
   77SBC   H00953860   5.152  10.399  12.203
   77SBC   C03U53861   4.988  10.439  12.057
   77SBC   C03W53862   4.871  10.407  12.137
   77SBC   H00A53863   4.875  10.383  12.242
   77SBC   C03X53864   4.751  10.401  12.076
   77SBC   H00B53865   4.667  10.378  12.140
   77SBC   O00553866   4.729  10.421  11.942
   77SBC   C03O53867   4.836  10.453  11.863
   77SBC   C03N53868   4.823  10.468  11.728
   77SBC   O00053869   4.699  10.445  11.677
   77SBC   C01953870   4.680  10.462  11.549
   77SBC   C01853871   4.782  10.493  11.457
   77SBC   C01753872   4.907  10.512  11.506
   77SBC   C01653873   5.016  10.533  11.421
   77SBC   C01553874   4.982  10.547  11.285
   77SBC   C01453875   5.076  10.574  11.188
   77SBC   C01353876   5.215  10.597  11.230
   77SBC   C01253877   5.273  10.641  11.100
   77SBC   C01153878   5.173  10.635  11.001
   77SBC   C01053879   5.195  10.686  10.876
   77SBC   C00Z53880   5.112  10.680  10.767
   77SBC   C00Y53881   5.203  10.688  10.661
   77SBC   C01O53882   5.339  10.714  10.695
   77SBC   C01P53883   5.450  10.658  10.629
   77SBC   C02L53884   5.565  10.641  10.704
   77SBC   C02K53885   5.556  10.671  10.840
   77SBC   C01M53886   5.439  10.681  10.919
   77SBC   C02J53887   5.684  10.691  10.893
   77SBC   C02I53888   5.711  10.736  11.024
   77SBC   C02H53889   5.628  10.748  11.137
   77SBC   C01Q53890   5.495  10.712  11.158
   77SBC   C02G53891   5.476  10.699  11.300
   77SBC   C08953892   5.587  10.764  11.364
   77SBC   C08853893   5.601  10.716  11.494
   77SBC   C08753894   5.473  10.642  11.511
   77SBC   C08653895   5.421  10.594  11.638
   77SBC   C03S53896   5.292  10.552  11.674
   77SBC   N00653897   5.301  10.523  11.809
   77SBC   C08F53898   5.429  10.537  11.852
   77SBC   C01J53899   5.168  10.539  11.608
   77SBC   C03R53900   5.063  10.505  11.698
   77SBC   C03Q53901   5.079  10.486  11.833
   77SBC   C08E53902   5.509  10.573  11.748
   77SBC   C08D53903   5.647  10.596  11.770
   77SBC   C08K53904   5.696  10.558  11.899
   77SBC   C08C53905   5.745  10.652  11.684
   77SBC   C09153906   5.884  10.640  11.714
   77SBC   C09253907   5.933  10.592  11.832
   77SBC   C08B53908   5.733  10.707  11.558
   77SBC   C09053909   5.866  10.742  11.514
   77SBC   C09453910   5.902  10.814  11.389
   77SBC   C09553911   6.031  10.807  11.339
   77SBC   C09R53912   6.033  10.802  11.197
   77SBC   C09753913   5.903  10.784  11.159
   77SBC   C09653914   5.823  10.797  11.274
   77SBC   C01I53915   5.385  10.637  11.397
   77SBC   C08A53916   5.688  10.775  11.262
   77SBC   C09L53917   5.850  10.752  11.032
   77SBC   C09K53918   5.911  10.721  10.906
   77SBC   C09J53919   6.046  10.731  10.873
   77SBC   C09I53920   6.102  10.654  10.768
   77SBC   C09O53921   6.059  10.574  10.649
   77SBC   C09N53922   5.923  10.560  10.615
   77SBC   C09M53923   5.810  10.611  10.687
   77SBC   C06O53924   5.901  10.498  10.490
   77SBC   C05M53925   6.010  10.439  10.413
   77SBC   C06P53926   6.138  10.454  10.457
   77SBC   C04253927   5.981  10.376  10.294
   77SBC   C04153928   5.854  10.365  10.245
   77SBC   C04053929   5.822  10.296  10.127
   77SBC   C03Z53930   5.693  10.281  10.072
   77SBC   C03Y53931   5.591  10.341  10.144
   77SBC   C02753932   5.460  10.315  10.108
   77SBC   C02653933   5.356  10.370  10.178
   77SBC   C02853934   5.224  10.342  10.141
   77SBC   C02953935   5.199  10.262  10.027
   77SBC   C02B53936   5.068  10.225   9.994
   77SBC   C02C53937   5.045  10.133   9.890
   77SBC   C02X53938   4.915  10.094   9.860
   77SBC   C03E53939   4.895  10.008   9.761
   77SBC   C03G53940   4.993   9.954   9.684
   77SBC   C04Q53941   5.127   9.991   9.711
   77SBC   C04R53942   5.232   9.939   9.640
   77SBC   C04S53943   5.364   9.970   9.673
   77SBC   C04L53944   5.388  10.061   9.775
   77SBC   C04M53945   5.282  10.118   9.851
   77SBC   C04K53946   5.515  10.089   9.815
   77SBC   C04F53947   5.619  10.033   9.743
   77SBC   C04E53948   5.600   9.944   9.644
   77SBC   C04D53949   5.707   9.880   9.579
   77SBC   C05053950   5.687   9.790   9.473
   77SBC   C05153951   5.791   9.741   9.400
   77SBC   C05Q53952   5.765   9.644   9.302
   77SBC   C05V53953   5.876   9.596   9.235
   77SBC   N00553954   5.857   9.504   9.130
   77SBC   C07V53955   5.725   9.463   9.101
   77SBC   C08253956   5.700   9.376   8.995
   77SBC   C08153957   5.802   9.322   8.923
   77SBC   C07C53958   5.935   9.354   8.955
   77SBC   C07B53959   6.044   9.305   8.876
   77SBC   C08053960   6.020   9.222   8.767
   77SBC   C07Z53961   6.128   9.161   8.708
   77SBC   H00L53962   6.118   9.089   8.628
   77SBC   C07953963   6.263   9.194   8.739
   77SBC   C07853964   6.283   9.294   8.834
   77SBC   C07753965   6.415   9.329   8.866
   77SBC   C07X53966   6.526   9.268   8.810
   77SBC   H00I53967   6.626   9.285   8.846
   77SBC   C07Y53968   6.511   9.176   8.701
   77SBC   H00H53969   6.593   9.122   8.657
   77SBC   C07653970   6.431   9.432   8.958
   77SBC   C06C53971   6.556   9.494   8.974
   77SBC   H00C53972   6.631   9.480   8.897
   77SBC   C06F53973   6.326   9.470   9.045
   77SBC   C06E53974   6.346   9.554   9.152
   77SBC   C06G53975   6.246   9.605   9.230
   77SBC   C06H53976   6.116   9.576   9.190
   77SBC   C06I53977   6.094   9.483   9.088
   77SBC   C06L53978   6.281   9.694   9.337
   77SBC   C06M53979   6.417   9.735   9.369
   77SBC   C06K53980   6.167   9.756   9.399
   77SBC   C05S53981   6.032   9.725   9.361
   77SBC   C05U53982   6.192   9.854   9.503
   77SBC   C05X53983   6.327   9.889   9.544
   77SBC   C05G53984   6.327   9.975   9.662
   77SBC   C05F53985   6.209  10.024   9.716
   77SBC   C05E53986   6.229  10.085   9.836
   77SBC   C04853987   6.130  10.154   9.899
   77SBC   C05653988   6.162  10.209  10.020
   77SBC   C04553989   6.057  10.259  10.097
   77SBC   C04753990   6.005  10.128   9.857
   77SBC   C04953991   5.978  10.048   9.742
   77SBC   C04B53992   5.851  10.016   9.704
   77SBC   C04653993   5.900  10.175   9.931
   77SBC   C04H53994   5.776  10.149   9.886
   77SBC   C05D53995   6.369  10.090   9.867
   77SBC   C04A53996   6.084   9.991   9.672
   77SBC   C05T53997   6.072   9.905   9.565
   77SBC   C05553998   5.943   9.874   9.531
   77SBC   C06D53999   6.475   9.597   9.176
   77SBC   C07W54000   6.199   9.431   9.016
   77SBC   C08554001   6.377   9.140   8.674
   77SBC   H00M54002   6.357   9.069   8.594
   77SBC   C08454003   5.892   9.178   8.743
   77SBC   H00J54004   5.877   9.100   8.670
   77SBC   C07A54005   6.175   9.341   8.909
   77SBC   C08354006   5.787   9.231   8.819
   77SBC   H00K54007   5.685   9.211   8.792
   77SBC   O00K54008   5.576   9.350   8.950
   77SBC   C0GO54009   5.473   9.391   9.031
   77SBC   C0GN54010   5.339   9.369   8.990
   77SBC   H01L54011   5.330   9.307   8.903
   77SBC   C0GM54012   5.227   9.413   9.061
   77SBC   C0GL54013   5.102   9.376   9.023
   77SBC   H01M54014   5.077   9.311   8.941
   77SBC   O00J54015   4.995   9.420   9.091
   77SBC   C0GK54016   5.018   9.499   9.200
   77SBC   H01N54017   4.927   9.547   9.231
   77SBC   C05K54018   5.144   9.532   9.243
   77SBC   C05J54019   5.155   9.633   9.349
   77SBC   C04Y54020   5.050   9.697   9.430
   77SBC   C04X54021   5.071   9.800   9.518
   77SBC   O00654022   4.922   9.647   9.420
   77SBC   C05354023   4.812   9.699   9.477
   77SBC   C04O54024   4.831   9.800   9.572
   77SBC   C03C54025   4.728   9.862   9.656
   77SBC   C03B54026   4.589   9.840   9.683
   77SBC   C05454027   4.525   9.720   9.644
   77SBC   C0GR54028   4.396   9.680   9.690
   77SBC   C03M54029   4.300   9.741   9.788
   77SBC   C03I54030   4.324   9.848   9.881
   77SBC   C03J54031   4.221   9.875   9.980
   77SBC   N00254032   4.243   9.976  10.087
   77SBC   C02U54033   4.142  10.001  10.185
   77SBC   C02T54034   4.172  10.090  10.289
   77SBC   C02Z54035   4.078  10.112  10.390
   77SBC   N00154036   4.104  10.198  10.502
   77SBC   C02R54037   4.005  10.208  10.603
   77SBC   C03254038   3.890  10.137  10.598
   77SBC   C03154039   3.867  10.055  10.484
   77SBC   H00754040   3.776  10.001  10.464
   77SBC   C03354041   3.799  10.160  10.705
   77SBC   H00354042   3.705  10.108  10.705
   77SBC   O00454043   3.825  10.240  10.817
   77SBC   C03454044   3.941  10.310  10.816
   77SBC   C03554045   3.958  10.409  10.916
   77SBC   C03654046   4.085  10.463  10.930
   77SBC   H00554047   4.094  10.525  11.018
   77SBC   C03754048   4.184  10.446  10.829
   77SBC   H00654049   4.273  10.502  10.849
   77SBC   C00D54050   4.159  10.356  10.721
   77SBC   C00C54051   4.260  10.329  10.634
   77SBC   C00B54052   4.399  10.383  10.645
   77SBC   C00A54053   4.487  10.466  10.733
   77SBC   C00954054   4.595  10.502  10.649
   77SBC   C00854055   4.725  10.542  10.682
   77SBC   C00754056   4.757  10.545  10.816
   77SBC   C00654057   4.888  10.582  10.855
   77SBC   C00554058   4.919  10.573  10.993
   77SBC   C00454059   4.830  10.535  11.090
   77SBC   C00354060   4.702  10.495  11.047
   77SBC   C00254061   4.603  10.458  11.140
   77SBC   C01C54062   4.629  10.469  11.277
   77SBC   C01B54063   4.527  10.437  11.371
   77SBC   H00054064   4.423  10.415  11.350
   77SBC   C00154065   4.488  10.388  11.096
   77SBC   C00054066   4.469  10.380  10.956
   77SBC   C01U54067   4.391  10.261  10.944
   77SBC   H00254068   4.353  10.205  10.860
   77SBC   C01T54069   4.351  10.219  11.081
   77SBC   O00254070   4.288  10.121  11.118
   77SBC   O00154071   4.421  10.297  11.169
   77SBC   C01S54072   4.665  10.499  10.908
   77SBC   C00N54073   4.825  10.546  10.586
   77SBC   C00M54074   4.799  10.498  10.460
   77SBC   C00J54075   4.673  10.447  10.426
   77SBC   C00I54076   4.650  10.362  10.318
   77SBC   C00H54077   4.525  10.300  10.305
   77SBC   C00G54078   4.434  10.304  10.407
   77SBC   C00F54079   4.316  10.240  10.408
   77SBC   C01X54080   4.500  10.209  10.205
   77SBC   C01W54081   4.604  10.188  10.112
   77SBC   C01V54082   4.731  10.250  10.128
   77SBC   C02054083   4.837  10.219  10.048
   77SBC   C01Z54084   4.580  10.098  10.009
   77SBC   C02Y54085   4.684  10.080   9.928
   77SBC   C03954086   4.664   9.994   9.828
   77SBC   C02W54087   4.462  10.025   9.998
   77SBC   C01Y54088   4.384  10.139  10.197
   77SBC   C00U54089   4.752  10.335  10.235
   77SBC   C00S54090   4.875  10.388  10.257
   77SBC   C00T54091   4.987  10.359  10.178
   77SBC   C00R54092   4.902  10.465  10.371
   77SBC   C00Q54093   5.030  10.499  10.406
   77SBC   C00V54094   5.139  10.467  10.326
   77SBC   C02454095   5.270  10.502  10.356
   77SBC   C00X54096   5.293  10.583  10.466
   77SBC   C00P54097   5.054  10.576  10.522
   77SBC   C00O54098   4.955  10.592  10.618
   77SBC   C00K54099   4.578  10.457  10.524
   77SBC   N00054100   4.541  10.447  10.862
   77SBC   C00L54101   4.462  10.385  10.518
   77SBC   H00454102   3.884  10.439  10.989
   77SBC   C02Q54103   4.036  10.290  10.711
   77SBC   C00E54104   4.230  10.262  10.511
   77SBC   C03054105   3.960  10.039  10.383
   77SBC   O00354106   3.923   9.956  10.278
   77SBC   C02S54107   4.287  10.161  10.293
   77SBC   C03854108   4.019   9.933  10.177
   77SBC   C03L54109   3.999   9.847  10.074
   77SBC   H00854110   3.902   9.800  10.070
   77SBC   C02V54111   4.365  10.051  10.092
   77SBC   C03K54112   4.099   9.813   9.978
   77SBC   C0BK54113   4.084   9.719   9.878
   77SBC   H00T54114   3.990   9.666   9.868
   77SBC   C03H54115   4.438   9.928   9.894
   77SBC   C0BL54116   4.176   9.677   9.785
   77SBC   C0GU54117   4.142   9.572   9.698
   77SBC   H01O54118   4.037   9.546   9.700
   77SBC   C0GT54119   4.227   9.514   9.611
   77SBC   H01P54120   4.188   9.444   9.538
   77SBC   C0GS54121   4.359   9.566   9.611
   77SBC   C0GV54122   4.467   9.538   9.520
   77SBC   C0GW54123   4.472   9.429   9.428
   77SBC   H01Q54124   4.392   9.357   9.413
   77SBC   C0GX54125   4.587   9.415   9.364
   77SBC   H01R54126   4.605   9.332   9.297
   77SBC   O00L54127   4.692   9.511   9.376
   77SBC   C0GQ54128   4.571   9.629   9.541
   77SBC   C03A54129   4.553   9.912   9.803
   77SBC   C05L54130   4.690   9.620   9.462
   77SBC   C04W54131   5.287   9.675   9.379
   77SBC   C05I54132   5.395   9.624   9.308
   77SBC   C05O54133   5.381   9.535   9.203
   77SBC   C05254134   5.526   9.664   9.341
   77SBC   C04V54135   5.313   9.774   9.475
   77SBC   C04U54136   5.444   9.810   9.512
   77SBC   N00954137   5.255   9.488   9.175
   77SBC   C0GP54138   5.489   9.476   9.142
   77SBC   C05W54139   5.617   9.517   9.170
   77SBC   C07D54140   5.964   9.444   9.060
   77SBC   C06J54141   6.007   9.640   9.255
   77SBC   C05P54142   5.635   9.610   9.269
   77SBC   C05R54143   5.927   9.777   9.430
   77SBC   C04Z54144   5.554   9.750   9.448
   77SBC   C04C54145   5.838   9.920   9.607
   77SBC   C04G54146   5.748  10.061   9.783
   77SBC   C04J54147   5.545  10.178   9.917
   77SBC   C04T54148   5.472   9.906   9.612
   77SBC   N00354149   5.206   9.841   9.539
   77SBC   C04P54150   4.963   9.856   9.590
   77SBC   C03D54151   4.768   9.961   9.742
   77SBC   C02154152   4.812  10.134   9.940
   77SBC   C03F54153   5.152  10.084   9.813
   77SBC   C02254154   4.965  10.266  10.071
   77SBC   C02A54155   5.306  10.210   9.951
   77SBC   C02354156   5.118  10.398  10.211
   77SBC   C02554157   5.380  10.452  10.287
   77SBC   C02D54158   5.511  10.469  10.333
   77SBC   C02E54159   5.535  10.540  10.450
   77SBC   C02N54160   5.666  10.548  10.503
   77SBC   C04N54161   5.437  10.236   9.989
   77SBC   C02P54162   5.620  10.409  10.263
   77SBC   C04I54163   5.671  10.200   9.961
   77SBC   C04454164   5.926  10.247  10.050
   77SBC   C04354165   5.748  10.423  10.315
   77SBC   C05N54166   5.774  10.492  10.433
   77SBC   C09U54167   6.165  10.515  10.581
   77SBC   C09V54168   6.296  10.512  10.626
   77SBC   C09X54169   6.334  10.563  10.746
   77SBC   C09Y54170   6.452  10.539  10.818
   77SBC   C0A154171   6.544  10.458  10.761
   77SBC   C0A254172   6.524  10.421  10.628
   77SBC   C0A454173   6.622  10.359  10.558
   77SBC   C07154174   6.600  10.308  10.427
   77SBC   C0A554175   6.697  10.239  10.365
   77SBC   C0A954176   6.822  10.232  10.424
   77SBC   C0A854177   6.843  10.275  10.555
   77SBC   C0AP54178   6.965  10.246  10.615
   77SBC   C0BY54179   6.974  10.276  10.748
   77SBC   C0BX54180   6.877  10.334  10.826
   77SBC   C0C254181   6.901  10.366  10.963
   77SBC   C0C354182   6.802  10.434  11.033
   77SBC   C0CT54183   6.685  10.476  10.966
   77SBC   C0C154184   7.018  10.319  11.027
   77SBC   C0C054185   7.123  10.263  10.939
   77SBC   C0A754186   6.761  10.364  10.764
   77SBC   C0BZ54187   7.094  10.248  10.808
   77SBC   C0BO54188   7.202  10.198  10.733
   77SBC   C0BN54189   7.185  10.152  10.601
   77SBC   C0BM54190   7.289  10.082  10.549
   77SBC   C0B954191   7.266  10.042  10.421
   77SBC   C0B854192   7.144  10.062  10.362
   77SBC   C0AD54193   7.044  10.131  10.422
   77SBC   C0AF54194   7.122  10.012  10.234
   77SBC   C0AG54195   7.219   9.942  10.160
   77SBC   C0B754196   7.339   9.916  10.231
   77SBC   C0AE54197   6.999  10.036  10.178
   77SBC   C0AB54198   6.895  10.104  10.236
   77SBC   C0AA54199   6.775  10.126  10.173
   77SBC   C0AJ54200   6.981   9.996  10.051
   77SBC   C0AK54201   6.863  10.018   9.988
   77SBC   C06W54202   6.881   9.970   9.864
   77SBC   C0AI54203   7.072   9.931   9.973
   77SBC   C0BP54204   7.308  10.161  10.817
   77SBC   C0BQ54205   7.423  10.097  10.758
   77SBC   C0BW54206   7.060  10.180  10.547
   77SBC   C0AC54207   6.917  10.153  10.360
   77SBC   C0A654208   6.744  10.336  10.627
   77SBC   C0A354209   6.664  10.433  10.834
   77SBC   C09Z54210   6.488  10.601  10.941
   77SBC   C09W54211   6.396  10.438  10.565
   77SBC   C07254212   6.372  10.393  10.437
   77SBC   C09H54213   6.242  10.655  10.799
   77SBC   C09G54214   6.276  10.715  10.921
   77SBC   C09P54215   6.154  10.754  10.972
   77SBC   C02O54216   5.808  10.672  10.823
   77SBC   C02M54217   5.677  10.601  10.629
   77SBC   C02F54218   5.427  10.600  10.511
   77SBC   C00W54219   5.182  10.618  10.543
   77SBC   C01R54220   4.976  10.624  10.750
   77SBC   C01N54221   5.327  10.702  10.836
   77SBC   C01L54222   5.410  10.672  11.060
   77SBC   C01H54223   5.253  10.591  11.369
   77SBC   C01K54224   5.050  10.595  11.052
   77SBC   C01E54225   4.855  10.526  11.232
   77SBC   C01G54226   5.150  10.548  11.466
   77SBC   C01D54227   4.754  10.496  11.321
   77SBC   C01A54228   4.555  10.436  11.507
   77SBC   H00154229   4.471  10.424  11.573
   77SBC   C01F54230   4.933  10.501  11.644
   77SBC   C03P54231   4.969  10.461  11.921
   77SBC   C03T54232   5.204  10.486  11.893
   77SBC   C08I54233   5.473  10.512  11.975
   77SBC   C08J54234   5.606  10.517  11.996
   77SBC   C08L54235   5.834  10.560  11.927
   77SBC   C09354236   6.075  10.588  11.851
   77SBC   C08Z54237   5.964  10.696  11.618
   77SBC   C09T54238   6.454  10.695  11.590
   77SBC   C09S54239   6.151  10.805  11.408
   77SBC   C09Q54240   6.147  10.783  11.112
   77SBC   C09F54241   6.397  10.694  10.992
   77SBC   C09E54242   6.487  10.707  11.348
   77SBC   C0A054243   6.592  10.559  11.025
   77SBC   C0CU54244   6.822  10.459  11.170
   77SBC   C0CR54245   6.932  10.403  11.235
   77SBC   C0CZ54246   6.952  10.435  11.372
   77SBC   C0DA54247   6.549  10.676  11.474
   77SBC   C0D954248   6.845  10.779  11.645
   77SBC   H00V54249   6.821  10.884  11.642
   77SBC   C0CY54250   6.857  10.516  11.434
   77SBC   C0DF54251   6.972  10.726  11.674
   77SBC   C0DE54252   7.112  10.767  11.703
   77SBC   C0GI54253   7.162  10.882  11.770
   77SBC   H01K54254   7.099  10.958  11.815
   77SBC   C0GJ54255   7.297  10.893  11.774
   77SBC   H01J54256   7.334  10.986  11.815
   77SBC   O00I54257   7.388  10.793  11.733
   77SBC   C0GH54258   7.341  10.678  11.665
   77SBC   C0GG54259   7.439  10.586  11.608
   77SBC   O00G54260   7.567  10.620  11.642
   77SBC   C0G854261   7.672  10.532  11.608
   77SBC   C0G954262   7.791  10.550  11.674
   77SBC   H01G54263   7.802  10.638  11.735
   77SBC   C0GA54264   7.896  10.467  11.647
   77SBC   H01H54265   7.991  10.478  11.697
   77SBC   C0GB54266   7.895  10.369  11.543
   77SBC   C0EP54267   7.777  10.363  11.463
   77SBC   C0E854268   7.775  10.283  11.341
   77SBC   C0CK54269   7.686  10.255  11.233
   77SBC   C0CL54270   7.556  10.219  11.280
   77SBC   C0E954271   7.491  10.283  11.385
   77SBC   C0GE54272   7.526  10.395  11.473
   77SBC   C0E754273   7.888  10.199  11.326
   77SBC   C0CJ54274   7.868  10.109  11.222
   77SBC   C0E654275   7.963  10.003  11.213
   77SBC   H00Y54276   7.943   9.928  11.139
   77SBC   C0EO54277   8.072   9.996  11.306
   77SBC   H01154278   8.144   9.915  11.302
   77SBC   C0G654279   8.088  10.089  11.408
   77SBC   C0G554280   8.194  10.088  11.505
   77SBC   H01F54281   8.260  10.003  11.499
   77SBC   C0GD54282   8.195  10.182  11.608
   77SBC   H01I54283   8.269  10.167  11.685
   77SBC   O00H54284   8.097  10.276  11.627
   77SBC   C0EQ54285   8.000  10.195  11.418
   77SBC   C0GC54286   8.008  10.283  11.521
   77SBC   C0G754287   7.657  10.432  11.505
   77SBC   C0DD54288   7.199  10.661  11.656
   77SBC   C0GF54289   7.415  10.466  11.537
   77SBC   C0CO54290   7.365  10.225  11.380
   77SBC   C0D054291   7.078  10.400  11.420
   77SBC   C0C454292   7.029  10.322  11.164
   77SBC   C0CN54293   7.351  10.134  11.277
   77SBC   C0CP54294   7.261  10.205  10.947
   77SBC   C0CM54295   7.480  10.118  11.215
   77SBC   C0CI54296   7.754  10.153  11.148
   77SBC   C0CD54297   7.879   9.949  10.730
   77SBC   C0BR54298   7.543  10.076  10.829
   77SBC   C0CS54299   7.406  10.055  10.622
   77SBC   C0B654300   7.365   9.968  10.355
   77SBC   C0CG54301   7.728   9.898  10.555
   77SBC   C0CF54302   7.851   9.887  10.611
   77SBC   C0E554303   8.105   9.865  10.716
   77SBC   C0DT54304   8.278   9.675  10.616
   77SBC   C0DL54305   8.001   9.630  10.387
   77SBC   C0DM54306   7.973   9.573  10.267
   77SBC   C0DY54307   8.183   9.447  10.278
   77SBC   C0DU54308   8.368   9.595  10.552
   77SBC   C0F054309   8.597   9.519  10.537
   77SBC   C0F454310   8.795   9.398  10.404
   77SBC   C0FG54311   8.489   9.248  10.257
   77SBC   O00B54312   8.841   9.275  10.195
   77SBC   C0FN54313   8.491   9.193  10.132
   77SBC   C0DZ54314   8.272   9.352  10.227
   77SBC   O00C54315   8.132   9.318   9.891
   77SBC   C0FR54316   8.029   9.351   9.813
   77SBC   O00D54317   8.041   9.318   9.697
   77SBC   C0E054318   8.066   9.483  10.211
   77SBC   C0E354319   7.928   9.434   9.875
   77SBC   C0AW54320   7.817   9.476   9.808
   77SBC   C0AV54321   7.790   9.450   9.672
   77SBC   H00Q54322   7.848   9.381   9.612
   77SBC   C0AU54323   7.668   9.490   9.603
   77SBC   H00R54324   7.637   9.447   9.509
   77SBC   C0AT54325   7.584   9.565   9.674
   77SBC   C0AS54326   7.456   9.626   9.657
   77SBC   C0AR54327   7.406   9.641   9.526
   77SBC   C0BE54328   7.611   9.597   9.808
   77SBC   C0DN54329   7.859   9.602  10.197
   77SBC   C0AX54330   7.731   9.557   9.871
   77SBC   C0BB54331   7.656   9.725  10.187
   77SBC   C0BD54332   7.510   9.671   9.862
   77SBC   C0B254333   7.441   9.844  10.168
   77SBC   C0AH54334   7.201   9.895  10.028
   77SBC   C0BF54335   7.405   9.693   9.775
   77SBC   C0AL54336   7.012   9.917   9.842
   77SBC   C07U54337   7.169   9.703   9.590
   77SBC   C0AQ54338   7.265   9.639   9.511
   77SBC   C0BG54339   7.455   9.581   9.401
   77SBC   C0FY54340   7.318   9.619   9.085
   77SBC   C0BJ54341   7.561   9.633   9.315
   77SBC   H00S54342   7.648   9.682   9.356
   77SBC   C0FZ54343   7.404   9.684   9.003
   77SBC   C07S54344   7.184   9.656   9.087
   77SBC   C0G154345   7.187   9.806   8.741
   77SBC   C07K54346   6.818   9.767   8.783
   77SBC   C07H54347   6.903   9.716   9.055
   77SBC   C06B54348   6.575   9.578   9.087
   77SBC   C06N54349   6.515   9.684   9.279
   77SBC   C06654350   6.893   9.715   9.315
   77SBC   C06254351   6.816   9.848   9.579
   77SBC   C05Y54352   6.441   9.826   9.475
   77SBC   C06154353   6.752   9.948   9.646
   77SBC   C05H54354   6.425  10.025   9.755
   77SBC   C06V54355   6.772   9.989   9.779
   77SBC   C06Y54356   6.753  10.078  10.049
   77SBC   C05C54357   6.402  10.149   9.997
   77SBC   C06Z54358   6.674  10.190  10.236
   77SBC   C07054359   6.471  10.323  10.368
   77SBC   C05B54360   6.294  10.207  10.070
   77SBC   C05754361   6.085  10.324  10.216
   77SBC   C05954362   6.243  10.393  10.385
   78SBC   C05854363   0.103  11.247  12.924
   78SBC   C05A54364   0.128  11.239  13.064
   78SBC   C06Q54365   0.202  11.139  13.114
   78SBC   C06R54366   0.251  11.140  13.246
   78SBC   C06S54367   0.215  11.247  13.338
   78SBC   C06T54368   0.283  11.257  13.465
   78SBC   C06U54369   0.292  11.368  13.561
   78SBC   C06X54370   0.213  11.485  13.571
   78SBC   C06054371   0.254  11.560  13.694
   78SBC   C05Z54372   0.183  11.632  13.794
   78SBC   C06854373   0.241  11.588  13.928
   78SBC   C06754374   0.208  11.633  14.067
   78SBC   C06954375   0.121  11.748  14.087
   78SBC   C06A54376   0.069  11.804  14.214
   78SBC   C07354377   0.039  11.751  14.342
   78SBC   C07P54378  -0.081  11.802  14.412
   78SBC   C07O54379  -0.194  11.866  14.354
   78SBC   H00D54380  -0.216  11.875  14.248
   78SBC   C07N54381  -0.277  11.945  14.429
   78SBC   H00E54382  -0.356  12.005  14.387
   78SBC   C07M54383  -0.252  11.952  14.565
   78SBC   H00F54384  -0.321  12.011  14.624
   78SBC   C07L54385  -0.164  11.862  14.630
   78SBC   C07Q54386  -0.156  11.847  14.773
   78SBC   H00G54387  -0.220  11.911  14.832
   78SBC   O00F54388  -0.081  11.760  14.834
   78SBC   C07J54389   0.024  11.706  14.757
   78SBC   C07I54390   0.027  11.722  14.611
   78SBC   N00454391   0.141  11.676  14.545
   78SBC   C07R54392   0.252  11.619  14.616
   78SBC   C07T54393   0.232  11.587  14.753
   78SBC   C0FX54394   0.327  11.514  14.829
   78SBC   C0FW54395   0.309  11.457  14.953
   78SBC   C0G054396   0.183  11.495  15.014
   78SBC   C0G254397   0.157  11.451  15.145
   78SBC   H01E54398   0.061  11.472  15.190
   78SBC   C0G354399   0.245  11.360  15.205
   78SBC   H01C54400   0.225  11.313  15.300
   78SBC   C0G454401   0.369  11.324  15.141
   78SBC   H01D54402   0.431  11.265  15.206
   78SBC   O00E54403   0.093  11.577  14.953
   78SBC   C0FV54404   0.403  11.365  15.008
   78SBC   C0FU54405   0.523  11.337  14.938
   78SBC   H01B54406   0.594  11.269  14.982
   78SBC   C0FT54407   0.547  11.403  14.813
   78SBC   C0FS54408   0.635  11.395  14.695
   78SBC   C0BI54409   0.606  11.508  14.609
   78SBC   C0BH54410   0.656  11.471  14.483
   78SBC   C07F54411   0.573  11.453  14.369
   78SBC   C07E54412   0.454  11.521  14.332
   78SBC   C07G54413   0.361  11.577  14.410
   78SBC   C07454414   0.254  11.620  14.335
   78SBC   C06554415   0.396  11.512  14.208
   78SBC   C06454416   0.464  11.417  14.120
   78SBC   C06354417   0.430  11.398  13.986
   78SBC   C07554418   0.524  11.283  13.946
   78SBC   C0AM54419   0.611  11.236  14.058
   78SBC   C0AN54420   0.700  11.114  14.068
   78SBC   C0AO54421   0.714  10.995  13.971
   78SBC   C0B154422   0.784  10.874  14.013
   78SBC   C0B054423   0.844  10.869  14.138
   78SBC   C0AZ54424   0.900  10.753  14.195
   78SBC   C0AY54425   0.940  10.752  14.330
   78SBC   N00754426   0.983  10.633  14.388
   78SBC   C0E254427   1.023  10.634  14.526
   78SBC   C0E154428   1.072  10.519  14.579
   78SBC   C0E454429   1.094  10.511  14.721
   78SBC   C0FF54430   1.151  10.398  14.782
   78SBC   C0FJ54431   1.167  10.357  14.922
   78SBC   C0FK54432   1.099  10.390  15.043
   78SBC   H01654433   1.031  10.474  15.046
   78SBC   C0FL54434   1.117  10.272  15.132
   78SBC   H01754435   1.060  10.251  15.221
   78SBC   C0FM54436   1.204  10.174  15.074
   78SBC   C0FH54437   1.250  10.033  15.060
   78SBC   C0FI54438   1.304  10.039  14.930
   78SBC   C0F354439   1.288   9.925  14.846
   78SBC   C0F254440   1.294   9.950  14.714
   78SBC   C0DW54441   1.281  10.074  14.653
   78SBC   C0FE54442   1.258  10.183  14.729
   78SBC   C0DV54443   1.250  10.077  14.517
   78SBC   C0DX54444   1.188  10.192  14.463
   78SBC   C0DK54445   1.146  10.190  14.330
   78SBC   C0DJ54446   1.163  10.074  14.255
   78SBC   C0DI54447   1.123  10.070  14.122
   78SBC   C0DH54448   1.069  10.186  14.064
   78SBC   C0DG54449   1.053  10.304  14.141
   78SBC   C0BV54450   0.991  10.415  14.087
   78SBC   C0BC54451   0.969  10.527  14.166
   78SBC   C0BA54452   0.956  10.419  13.954
   78SBC   C0B454453   0.894  10.533  13.900
   78SBC   C0B354454   0.864  10.647  13.981
   78SBC   C0B554455   0.851  10.534  13.767
   78SBC   C0BU54456   0.873  10.419  13.688
   78SBC   C0BT54457   0.939  10.307  13.738
   78SBC   C0BS54458   0.973  10.199  13.650
   78SBC   C0CC54459   1.034  10.088  13.708
   78SBC   C0CB54460   1.076   9.984  13.629
   78SBC   C0CH54461   1.124   9.867  13.692
   78SBC   C0DO54462   1.138   9.849  13.826
   78SBC   C0DP54463   1.189   9.729  13.883
   78SBC   C0EA54464   1.203   9.603  13.804
   78SBC   H01254465   1.163   9.594  13.704
   78SBC   O00954466   1.249   9.488  13.863
   78SBC   C0EH54467   1.279   9.487  13.997
   78SBC   C0EG54468   1.307   9.361  14.054
   78SBC   C0EJ54469   1.317   9.226  14.006
   78SBC   H01054470   1.305   9.211  13.900
   78SBC   C0EK54471   1.338   9.136  14.119
   78SBC   H00Z54472   1.357   9.031  14.104
   78SBC   C0EL54473   1.338   9.221  14.228
   78SBC   C0EM54474   1.339   9.192  14.371
   78SBC   C0EW54475   1.375   9.069  14.432
   78SBC   H01354476   1.405   8.981  14.378
   78SBC   C0EX54477   1.374   9.060  14.579
   78SBC   H01454478   1.409   8.966  14.619
   78SBC   C0F154479   1.362   9.177  14.662
   78SBC   C0EU54480   1.328   9.299  14.598
   78SBC   C0ET54481   1.293   9.418  14.661
   78SBC   C0ES54482   1.264   9.511  14.549
   78SBC   C0EE54483   1.278   9.438  14.426
   78SBC   C0ED54484   1.287   9.461  14.282
   78SBC   C0EC54485   1.266   9.592  14.224
   78SBC   C0EB54486   1.265   9.711  14.296
   78SBC   C0EN54487   1.295   9.722  14.443
   78SBC   C0ER54488   1.291   9.850  14.497
   78SBC   C0DS54489   1.225   9.835  14.236
   78SBC   C0DR54490   1.195   9.840  14.101
   78SBC   C0EY54491   1.310   9.635  14.558
   78SBC   C0EZ54492   1.321   9.710  14.681
   78SBC   C0F554493   1.305   9.686  14.826
   78SBC   C0F654494   1.295   9.554  14.875
   78SBC   N00854495   1.276   9.552  15.019
   78SBC   C0F754496   1.242   9.661  15.100
   78SBC   C0FQ54497   1.204   9.638  15.231
   78SBC   H01854498   1.166   9.721  15.290
   78SBC   C0FP54499   1.209   9.516  15.291
   78SBC   H01954500   1.192   9.506  15.398
   78SBC   C0FO54501   1.245   9.410  15.209
   78SBC   H01A54502   1.269   9.318  15.259
   78SBC   C0F854503   1.242   9.788  15.039
   78SBC   C0F954504   1.282   9.422  15.076
   78SBC   C0FA54505   1.317   9.302  15.005
   78SBC   H01554506   1.331   9.211  15.061
   78SBC   C0FB54507   1.336   9.306  14.868
   78SBC   C0FD54508   1.308   9.428  14.806
   78SBC   C0FC54509   1.364   9.181  14.802
   78SBC   O00A54510   1.388   9.081  14.877
   78SBC   C0EV54511   1.313   9.304  14.460
   78SBC   C0EF54512   1.316   9.357  14.190
   78SBC   C0EI54513   1.252   9.604  14.082
   78SBC   C0DQ54514   1.213   9.723  14.022
   78SBC   C0CE54515   1.111   9.962  13.906
   78SBC   H00U54516   1.147   9.787  13.624
   78SBC   C0CA54517   1.071   9.993  13.489
   78SBC   C0C954518   0.979  10.092  13.433
   78SBC   C0C854519   0.923  10.054  13.309
   78SBC   C0C754520   0.840  10.122  13.209
   78SBC   C0C654521   0.806  10.047  13.096
   78SBC   C0C554522   0.755  10.061  12.956
   78SBC   C0CQ54523   0.782   9.955  12.869
   78SBC   C0D154524   0.873   9.861  12.907
   78SBC   C0D854525   0.953   9.818  12.804
   78SBC   C0D754526   0.883   9.869  12.685
   78SBC   C0D654527   0.941   9.874  12.559
   78SBC   C0D554528   0.871   9.926  12.440
   78SBC   C0D454529   0.760  10.016  12.428
   78SBC   C0D354530   0.795  10.108  12.319
   78SBC   C0CX54531   0.722  10.229  12.341
   78SBC   C0CW54532   0.678  10.230  12.481
   78SBC   C0CV54533   0.590  10.312  12.564
   78SBC   C0D254534   0.496  10.404  12.510
   78SBC   C09D54535   0.451  10.413  12.378
   78SBC   C09C54536   0.356  10.514  12.335
   78SBC   C09B54537   0.336  10.558  12.201
   78SBC   C09A54538   0.396  10.480  12.102
   78SBC   C09954539   0.462  10.364  12.132
   78SBC   C09854540   0.543  10.334  12.025
   78SBC   C08Y54541   0.535  10.437  11.924
   78SBC   C08X54542   0.619  10.447  11.814
   78SBC   C08W54543   0.722  10.351  11.778
   78SBC   C08U54544   0.772  10.242  11.857
   78SBC   C08V54545   0.751  10.201  11.994
   78SBC   C0DC54546   0.804  10.063  11.997
   78SBC   H00W54547   0.777  10.001  12.080
   78SBC   C0DB54548   0.871  10.035  11.874
   78SBC   H00X54549   0.922   9.944  11.848
   78SBC   C08T54550   0.857  10.147  11.794
   78SBC   C08S54551   0.901  10.159  11.661
   78SBC   H00N54552   0.953  10.081  11.609
   78SBC   C08R54553   0.881  10.280  11.593
   78SBC   C08Q54554   0.942  10.314  11.469
   78SBC   H00O54555   1.008  10.239  11.428
   78SBC   C08P54556   0.933  10.439  11.401
   78SBC   C08O54557   1.012  10.470  11.287
   78SBC   H00P54558   1.064  10.396  11.229
   78SBC   C08N54559   1.020  10.614  11.242
   78SBC   C08M54560   1.102  10.650  11.134
   78SBC   O00854561   1.182  10.576  11.079
   78SBC   O00754562   1.101  10.776  11.099
   78SBC   C08H54563   1.031  10.874  11.167
   78SBC   C08G54564   1.041  11.017  11.133
   78SBC   C03V54565   1.120  11.075  11.032
   78SBC   H00954566   1.192  11.015  10.978
   78SBC   C03U54567   1.124  11.217  11.001
   78SBC   C03W54568   1.205  11.292  10.911
   78SBC   H00A54569   1.276  11.235  10.851
   78SBC   C03X54570   1.196  11.425  10.899
   78SBC   H00B54571   1.266  11.482  10.840
   78SBC   O00554572   1.107  11.500  10.972
   78SBC   C03O54573   1.027  11.434  11.061
   78SBC   C03N54574   0.932  11.510  11.125
   78SBC   O00054575   0.916  11.637  11.081
   78SBC   C01954576   0.825  11.718  11.142
   78SBC   C01854577   0.743  11.670  11.247
   78SBC   C01754578   0.750  11.536  11.282
   78SBC   C01654579   0.665  11.484  11.380
   78SBC   C01554580   0.581  11.576  11.439
   78SBC   C01454581   0.500  11.534  11.544
   78SBC   C01354582   0.493  11.398  11.583
   78SBC   C01254583   0.390  11.409  11.694
   78SBC   C01154584   0.342  11.540  11.692
   78SBC   C01054585   0.238  11.571  11.765
   78SBC   C00Z54586   0.172  11.691  11.781
   78SBC   C00Y54587   0.083  11.665  11.891
   78SBC   C01O54588   0.085  11.534  11.932
   78SBC   C01P54589   0.064  11.495  12.063
   78SBC   C02L54590   0.111  11.374  12.103
   78SBC   C02K54591   0.190  11.308  12.014
   78SBC   C01M54592   0.241  11.358  11.888
   78SBC   C02J54593   0.199  11.174  12.043
   78SBC   C02I54594   0.251  11.071  11.964
   78SBC   C02H54595   0.325  11.074  11.843
   78SBC   C01Q54596   0.369  11.179  11.763
   78SBC   C02G54597   0.448  11.120  11.660
   78SBC   C08954598   0.425  10.984  11.657
   78SBC   C08854599   0.539  10.923  11.602
   78SBC   C08754600   0.602  11.032  11.534
   78SBC   C08654601   0.714  11.016  11.446
   78SBC   C03S54602   0.780  11.125  11.370
   78SBC   N00654603   0.878  11.062  11.295
   78SBC   C08F54604   0.872  10.926  11.325
   78SBC   C01J54605   0.765  11.263  11.352
   78SBC   C03R54606   0.856  11.321  11.252
   78SBC   C03Q54607   0.955  11.246  11.186
   78SBC   C08E54608   0.780  10.894  11.420
   78SBC   C08D54609   0.765  10.763  11.472
   78SBC   C08K54610   0.857  10.665  11.417
   78SBC   C08C54611   0.678  10.712  11.566
   78SBC   C09154612   0.689  10.585  11.622
   78SBC   C09254613   0.777  10.488  11.577
   78SBC   C08B54614   0.580  10.780  11.638
   78SBC   C09054615   0.531  10.690  11.735
   78SBC   C09454616   0.414  10.715  11.817
   78SBC   C09554617   0.382  10.637  11.930
   78SBC   C09R54618   0.301  10.709  12.025
   78SBC   C09754619   0.279  10.837  11.973
   78SBC   C09654620   0.345  10.839  11.847
   78SBC   C01I54621   0.546  11.162  11.560
   78SBC   C08A54622   0.360  10.955  11.779
   78SBC   C09L54623   0.227  10.955  12.036
   78SBC   C09K54624   0.163  10.981  12.165
   78SBC   C09J54625   0.152  10.885  12.269
   78SBC   C09I54626   0.147  10.926  12.409
   78SBC   C09O54627   0.132  11.051  12.482
   78SBC   C09N54628   0.112  11.175  12.422
   78SBC   C09M54629   0.125  11.211  12.283
   78SBC   C06O54630   0.066  11.282  12.506
   78SBC   C05M54631   0.071  11.265  12.647
   78SBC   C06P54632   0.118  11.147  12.704
   78SBC   C04254633   0.034  11.371  12.728
   78SBC   C04154634  -0.019  11.492  12.679
   78SBC   C04054635  -0.058  11.592  12.769
   78SBC   C03Z54636  -0.097  11.717  12.717
   78SBC   C03Y54637  -0.098  11.740  12.579
   78SBC   C02754638  -0.117  11.870  12.532
   78SBC   C02654639  -0.106  11.894  12.398
   78SBC   C02854640  -0.120  12.023  12.347
   78SBC   C02954641  -0.153  12.126  12.437
   78SBC   C02B54642  -0.155  12.259  12.386
   78SBC   C02C54643  -0.176  12.363  12.476
   78SBC   C02X54644  -0.172  12.494  12.429
   78SBC   C03E54645  -0.204  12.598  12.516
   78SBC   C03G54646  -0.218  12.580  12.648
   78SBC   C04Q54647  -0.215  12.446  12.695
   78SBC   C04R54648  -0.229  12.422  12.830
   78SBC   C04S54649  -0.229  12.294  12.879
   78SBC   C04L54650  -0.209  12.188  12.795
   78SBC   C04M54651  -0.191  12.209  12.660
   78SBC   C04K54652  -0.185  12.062  12.840
   78SBC   C04F54653  -0.185  12.040  12.976
   78SBC   C04E54654  -0.204  12.144  13.067
   78SBC   C04D54655  -0.198  12.119  13.202
   78SBC   C05054656  -0.213  12.226  13.289
   78SBC   C05154657  -0.196  12.208  13.422
   78SBC   C05Q54658  -0.239  12.314  13.505
   78SBC   C05V54659  -0.223  12.295  13.643
   78SBC   N00554660  -0.274  12.394  13.725
   78SBC   C07V54661  -0.344  12.500  13.673
   78SBC   C08254662  -0.408  12.592  13.765
   78SBC   C08154663  -0.410  12.570  13.899
   78SBC   C07C54664  -0.327  12.470  13.948
   78SBC   C07B54665  -0.323  12.447  14.089
   78SBC   C08054666  -0.382  12.536  14.175
   78SBC   C07Z54667  -0.347  12.517  14.312
   78SBC   H00L54668  -0.397  12.585  14.379
   78SBC   C07954669  -0.263  12.425  14.366
   78SBC   C07854670  -0.203  12.341  14.272
   78SBC   C07754671  -0.111  12.243  14.320
   78SBC   C07X54672  -0.073  12.238  14.459
   78SBC   H00I54673   0.002  12.174  14.504
   78SBC   C07Y54674  -0.132  12.328  14.549
   78SBC   H00H54675  -0.101  12.330  14.652
   78SBC   C07654676  -0.060  12.149  14.231
   78SBC   C06C54677   0.010  12.040  14.285
   78SBC   H00C54678   0.032  12.018  14.389
   78SBC   C06F54679  -0.100  12.153  14.097
   78SBC   C06E54680  -0.056  12.054  14.010
   78SBC   C06G54681  -0.076  12.051  13.876
   78SBC   C06H54682  -0.139  12.168  13.827
   78SBC   C06I54683  -0.193  12.265  13.911
   78SBC   C06L54684  -0.047  11.939  13.799
   78SBC   C06M54685   0.022  11.820  13.851
   78SBC   C06K54686  -0.080  11.950  13.663
   78SBC   C05S54687  -0.124  12.072  13.609
   78SBC   C05U54688  -0.056  11.845  13.578
   78SBC   C05X54689   0.015  11.727  13.622
   78SBC   C05G54690   0.013  11.617  13.523
   78SBC   C05F54691  -0.034  11.644  13.398
   78SBC   C05E54692   0.002  11.543  13.312
   78SBC   C04854693  -0.031  11.544  13.173
   78SBC   C05654694   0.018  11.442  13.092
   78SBC   C04554695   0.004  11.459  12.956
   78SBC   C04754696  -0.082  11.662  13.129
   78SBC   C04954697  -0.115  11.763  13.214
   78SBC   C04B54698  -0.152  11.886  13.161
   78SBC   C04654699  -0.085  11.678  12.989
   78SBC   C04H54700  -0.129  11.802  12.942
   78SBC   C05D54701   0.081  11.448  13.374
   78SBC   C04A54702  -0.095  11.759  13.353
   78SBC   C05T54703  -0.097  11.860  13.442
   78SBC   C05554704  -0.137  11.980  13.386
   78SBC   C06D54705   0.009  11.945  14.057
   78SBC   C07W54706  -0.170  12.257  14.045
   78SBC   C08554707  -0.231  12.417  14.502
   78SBC   H00M54708  -0.272  12.489  14.570
   78SBC   C08454709  -0.459  12.636  14.129
   78SBC   H00J54710  -0.504  12.706  14.198
   78SBC   C07A54711  -0.233  12.351  14.134
   78SBC   C08354712  -0.483  12.651  13.990
   78SBC   H00K54713  -0.549  12.729  13.955
   78SBC   O00K54714  -0.466  12.704  13.711
   78SBC   C0GO54715  -0.438  12.742  13.582
   78SBC   C0GN54716  -0.472  12.865  13.535
   78SBC   H01L54717  -0.526  12.933  13.600
   78SBC   C0GM54718  -0.451  12.900  13.395
   78SBC   C0GL54719  -0.467  13.029  13.362
   78SBC   H01M54720  -0.490  13.107  13.434
   78SBC   O00J54721  -0.440  13.074  13.231
   78SBC   C0GK54722  -0.388  12.972  13.147
   78SBC   H01N54723  -0.368  12.990  13.042
   78SBC   C05K54724  -0.370  12.844  13.185
   78SBC   C05J54725  -0.313  12.747  13.095
   78SBC   C04Y54726  -0.258  12.766  12.960
   78SBC   C04X54727  -0.242  12.665  12.869
   78SBC   O00654728  -0.221  12.895  12.923
   78SBC   C05354729  -0.171  12.916  12.798
   78SBC   C04O54730  -0.193  12.822  12.696
   78SBC   C03C54731  -0.173  12.836  12.552
   78SBC   C03B54732  -0.114  12.940  12.468
   78SBC   C05454733  -0.033  13.042  12.523
   78SBC   C0GR54734   0.040  13.142  12.444
   78SBC   C03M54735   0.078  13.154  12.303
   78SBC   C03I54736   0.056  13.052  12.206
   78SBC   C03J54737   0.114  13.071  12.075
   78SBC   N00254738   0.124  12.969  11.975
   78SBC   C02U54739   0.188  12.994  11.851
   78SBC   C02T54740   0.213  12.886  11.768
   78SBC   C02Z54741   0.277  12.906  11.649
   78SBC   N00154742   0.310  12.797  11.561
   78SBC   C02R54743   0.364  12.824  11.432
   78SBC   C03254744   0.391  12.961  11.393
   78SBC   C03154745   0.381  13.063  11.493
   78SBC   H00754746   0.421  13.162  11.480
   78SBC   C03354747   0.428  12.975  11.259
   78SBC   H00354748   0.454  13.076  11.233
   78SBC   O00454749   0.427  12.878  11.164
   78SBC   C03454750   0.402  12.746  11.204
   78SBC   C03554751   0.395  12.644  11.107
   78SBC   C03654752   0.351  12.518  11.146
   78SBC   H00554753   0.349  12.449  11.063
   78SBC   C03754754   0.326  12.488  11.280
   78SBC   H00654755   0.292  12.387  11.297
   78SBC   C00D54756   0.340  12.584  11.381
   78SBC   C00C54757   0.318  12.555  11.517
   78SBC   C00B54758   0.303  12.415  11.567
   78SBC   C00A54759   0.318  12.271  11.531
   78SBC   C00954760   0.239  12.209  11.629
   78SBC   C00854761   0.223  12.073  11.662
   78SBC   C00754762   0.302  11.987  11.597
   78SBC   C00654763   0.305  11.852  11.640
   78SBC   C00554764   0.393  11.764  11.569
   78SBC   C00454765   0.484  11.804  11.473
   78SBC   C00354766   0.492  11.940  11.443
   78SBC   C00254767   0.589  11.995  11.359
   78SBC   C01C54768   0.668  11.901  11.284
   78SBC   C01B54769   0.750  11.945  11.180
   78SBC   H00054770   0.767  12.045  11.145
   78SBC   C00154771   0.612  12.129  11.353
   78SBC   C00054772   0.523  12.216  11.411
   78SBC   C01U54773   0.586  12.341  11.392
   78SBC   H00254774   0.554  12.437  11.430
   78SBC   C01T54775   0.704  12.327  11.310
   78SBC   O00254776   0.774  12.414  11.254
   78SBC   O00154777   0.717  12.195  11.294
   78SBC   C01S54778   0.401  12.032  11.508
   78SBC   C00N54779   0.152  12.045  11.783
   78SBC   C00M54780   0.099  12.145  11.861
   78SBC   C00J54781   0.114  12.273  11.829
   78SBC   C00I54782   0.072  12.379  11.906
   78SBC   C00H54783   0.106  12.509  11.873
   78SBC   C00G54784   0.185  12.532  11.764
   78SBC   C00F54785   0.221  12.657  11.725
   78SBC   C01X54786   0.064  12.611  11.947
   78SBC   C01W54787  -0.009  12.587  12.061
   78SBC   C01V54788  -0.040  12.455  12.096
   78SBC   C02054789  -0.096  12.417  12.220
   78SBC   C01Z54790  -0.032  12.690  12.147
   78SBC   C02Y54791  -0.091  12.651  12.262
   78SBC   C03954792  -0.139  12.758  12.341
   78SBC   C02W54793   0.014  12.820  12.131
   78SBC   C01Y54794   0.102  12.742  11.922
   78SBC   C00U54795   0.003  12.348  12.020
   78SBC   C00S54796  -0.019  12.217  12.059
   78SBC   C00T54797  -0.081  12.187  12.174
   78SBC   C00R54798   0.029  12.113  11.976
   78SBC   C00Q54799   0.011  11.983  12.011
   78SBC   C00V54800  -0.049  11.952  12.131
   78SBC   C02454801  -0.045  11.820  12.181
   78SBC   C00X54802  -0.003  11.721  12.097
   78SBC   C00P54803   0.066  11.886  11.932
   78SBC   C00O54804   0.140  11.911  11.816
   78SBC   C00K54805   0.178  12.299  11.711
   78SBC   N00054806   0.416  12.175  11.482
   78SBC   C00L54807   0.224  12.420  11.683
   78SBC   H00454808   0.425  12.660  11.004
   78SBC   C02Q54809   0.376  12.715  11.343
   78SBC   C00E54810   0.286  12.665  11.605
   78SBC   C03054811   0.316  13.040  11.613
   78SBC   O00354812   0.295  13.145  11.699
   78SBC   C02S54813   0.181  12.760  11.807
   78SBC   C03854814   0.220  13.126  11.815
   78SBC   C03L54815   0.197  13.228  11.903
   78SBC   H00854816   0.230  13.328  11.879
   78SBC   C02V54817   0.074  12.841  12.011
   78SBC   C03K54818   0.164  13.193  12.040
   78SBC   C0BK54819   0.172  13.291  12.140
   78SBC   H00T54820   0.212  13.386  12.106
   78SBC   C03H54821   0.002  12.924  12.224
   78SBC   C0BL54822   0.139  13.276  12.276
   78SBC   C0GU54823   0.166  13.377  12.368
   78SBC   H01O54824   0.204  13.474  12.338
   78SBC   C0GT54825   0.142  13.366  12.504
   78SBC   H01P54826   0.176  13.441  12.574
   78SBC   C0GS54827   0.072  13.247  12.538
   78SBC   C0GV54828   0.022  13.216  12.660
   78SBC   C0GW54829   0.020  13.304  12.781
   78SBC   H01Q54830   0.056  13.406  12.788
   78SBC   C0GX54831  -0.047  13.252  12.885
   78SBC   H01R54832  -0.060  13.311  12.974
   78SBC   O00L54833  -0.106  13.121  12.889
   78SBC   C0GQ54834  -0.048  13.091  12.656
   78SBC   C03A54835  -0.078  12.883  12.340
   78SBC   C05L54836  -0.105  13.036  12.776
   78SBC   C04W54837  -0.295  12.616  13.135
   78SBC   C05I54838  -0.318  12.583  13.267
   78SBC   C05O54839  -0.366  12.677  13.359
   78SBC   C05254840  -0.289  12.454  13.319
   78SBC   C04V54841  -0.260  12.511  13.053
   78SBC   C04U54842  -0.249  12.378  13.099
   78SBC   N00954843  -0.396  12.804  13.314
   78SBC   C0GP54844  -0.385  12.652  13.491
   78SBC   C05W54845  -0.341  12.528  13.541
   78SBC   C07D54846  -0.273  12.369  13.864
   78SBC   C06J54847  -0.156  12.178  13.696
   78SBC   C05P54848  -0.289  12.432  13.457
   78SBC   C05R54849  -0.154  12.085  13.475
   78SBC   C04Z54850  -0.248  12.350  13.235
   78SBC   C04C54851  -0.168  11.992  13.248
   78SBC   C04G54852  -0.151  11.911  13.024
   78SBC   C04J54853  -0.154  11.954  12.755
   78SBC   C04T54854  -0.228  12.272  13.016
   78SBC   N00354855  -0.250  12.533  12.917
   78SBC   C04P54856  -0.224  12.689  12.734
   78SBC   C03D54857  -0.195  12.726  12.467
   78SBC   C02154858  -0.130  12.520  12.298
   78SBC   C03F54859  -0.195  12.336  12.610
   78SBC   C02254860  -0.115  12.286  12.258
   78SBC   C02A54861  -0.167  12.101  12.571
   78SBC   C02354862  -0.089  12.056  12.215
   78SBC   C02554863  -0.077  11.791  12.311
   78SBC   C02D54864  -0.061  11.660  12.360
   78SBC   C02E54865  -0.013  11.558  12.278
   78SBC   C02N54866   0.027  11.432  12.321
   78SBC   C04N54867  -0.151  11.974  12.618
   78SBC   C02P54868  -0.060  11.637  12.495
   78SBC   C04I54869  -0.129  11.826  12.805
   78SBC   C04454870  -0.050  11.573  12.903
   78SBC   C04354871  -0.024  11.510  12.541
   78SBC   C05N54872   0.022  11.408  12.457
   78SBC   C09U54873   0.149  11.040  12.621
   78SBC   C09V54874   0.202  10.921  12.681
   78SBC   C09X54875   0.229  10.810  12.608
   78SBC   C09Y54876   0.313  10.701  12.645
   78SBC   C0A154877   0.359  10.708  12.776
   78SBC   C0A254878   0.311  10.811  12.863
   78SBC   C0A454879   0.353  10.818  12.993
   78SBC   C07154880   0.322  10.929  13.070
   78SBC   C0A554881   0.378  10.944  13.197
   78SBC   C0A954882   0.465  10.844  13.245
   78SBC   C0A854883   0.498  10.733  13.159
   78SBC   C0AP54884   0.577  10.633  13.212
   78SBC   C0BY54885   0.607  10.528  13.126
   78SBC   C0BX54886   0.567  10.515  12.996
   78SBC   C0C254887   0.604  10.402  12.924
   78SBC   C0C354888   0.558  10.393  12.792
   78SBC   C0CT54889   0.478  10.498  12.735
   78SBC   C0C154890   0.681  10.300  12.976
   78SBC   C0C054891   0.740  10.322  13.108
   78SBC   C0A754892   0.483  10.617  12.948
   78SBC   C0BZ54893   0.685  10.428  13.178
   78SBC   C0BO54894   0.742  10.440  13.304
   78SBC   C0BN54895   0.716  10.551  13.387
   78SBC   C0BM54896   0.763  10.540  13.516
   78SBC   C0B954897   0.728  10.646  13.598
   78SBC   C0B854898   0.651  10.750  13.550
   78SBC   C0AD54899   0.602  10.748  13.418
   78SBC   C0AF54900   0.630  10.859  13.629
   78SBC   C0AG54901   0.679  10.871  13.760
   78SBC   C0B754902   0.757  10.760  13.804
   78SBC   C0AE54903   0.556  10.959  13.572
   78SBC   C0AB54904   0.493  10.958  13.451
   78SBC   C0AA54905   0.404  11.054  13.414
   78SBC   C0AJ54906   0.540  11.072  13.653
   78SBC   C0AK54907   0.459  11.174  13.612
   78SBC   C06W54908   0.453  11.271  13.705
   78SBC   C0AI54909   0.586  11.096  13.787
   78SBC   C0BP54910   0.818  10.327  13.331
   78SBC   C0BQ54911   0.864  10.313  13.471
   78SBC   C0BW54912   0.634  10.647  13.338
   78SBC   C0AC54913   0.522  10.851  13.369
   78SBC   C0A654914   0.446  10.726  13.034
   78SBC   C0A354915   0.439  10.609  12.819
   78SBC   C09Z54916   0.351  10.594  12.557
   78SBC   C09W54917   0.232  10.917  12.813
   78SBC   C07254918   0.201  11.027  12.899
   78SBC   C09H54919   0.170  10.805  12.479
   78SBC   C09G54920   0.218  10.704  12.395
   78SBC   C09P54921   0.209  10.749  12.260
   78SBC   C02O54922   0.164  11.125  12.174
   78SBC   C02M54923   0.084  11.335  12.236
   78SBC   C02F54924   0.006  11.587  12.143
   78SBC   C00W54925   0.043  11.758  11.977
   78SBC   C01R54926   0.210  11.820  11.740
   78SBC   C01N54927   0.187  11.476  11.859
   78SBC   C01L54928   0.332  11.312  11.785
   78SBC   C01H54929   0.573  11.300  11.516
   78SBC   C01K54930   0.407  11.619  11.603
   78SBC   C01E54931   0.572  11.713  11.405
   78SBC   C01G54932   0.671  11.349  11.418
   78SBC   C01D54933   0.659  11.762  11.313
   78SBC   C01A54934   0.833  11.853  11.113
   78SBC   H00154935   0.892  11.881  11.027
   78SBC   C01F54936   0.844  11.454  11.222
   78SBC   C03P54937   1.040  11.297  11.083
   78SBC   C03T54938   0.967  11.110  11.202
   78SBC   C08I54939   0.947  10.833  11.267
   78SBC   C08J54940   0.944  10.706  11.308
   78SBC   C08L54941   0.854  10.530  11.465
   78SBC   C09354942   0.791  10.371  11.653
   78SBC   C08Z54943   0.611  10.567  11.735
   78SBC   C09T54944   0.654  10.263  12.084
   78SBC   C09S54945   0.436  10.522  11.973
   78SBC   C09Q54946   0.270  10.675  12.158
   78SBC   C09F54947   0.298  10.591  12.432
   78SBC   C09E54948   0.512  10.345  12.262
   78SBC   C0A054949   0.440  10.496  12.602
   78SBC   C0CU54950   0.609  10.294  12.707
   78SBC   C0CR54951   0.682  10.186  12.760
   78SBC   C0CZ54952   0.728  10.080  12.675
   78SBC   C0DA54953   0.636  10.280  12.235
   78SBC   C0D954954   0.939  10.092  12.293
   78SBC   H00V54955   1.001  10.171  12.251
   78SBC   C0CY54956   0.719  10.106  12.530
   78SBC   C0DF54957   0.971   9.963  12.348
   78SBC   C0DE54958   1.089   9.897  12.391
   78SBC   C0GI54959   1.197   9.860  12.318
   78SBC   H01K54960   1.199   9.872  12.210
   78SBC   C0GJ54961   1.291   9.783  12.378
   78SBC   H01J54962   1.374   9.735  12.328
   78SBC   O00I54963   1.285   9.746  12.513
   78SBC   C0GH54964   1.177   9.776  12.590
   78SBC   C0GG54965   1.181   9.723  12.724
   78SBC   O00G54966   1.288   9.649  12.768
   78SBC   C0G854967   1.329   9.645  12.897
   78SBC   C0G954968   1.440   9.567  12.918
   78SBC   H01G54969   1.477   9.518  12.830
   78SBC   C0GA54970   1.496   9.559  13.042
   78SBC   H01H54971   1.593   9.512  13.044
   78SBC   C0GB54972   1.450   9.636  13.149
   78SBC   C0EP54973   1.323   9.708  13.129
   78SBC   C0E854974   1.273   9.788  13.244
   78SBC   C0CK54975   1.157   9.867  13.282
   78SBC   C0CL54976   1.042   9.858  13.204
   78SBC   C0E954977   1.039   9.817  13.061
   78SBC   C0GE54978   1.134   9.764  12.958
   78SBC   C0E754979   1.357   9.803  13.352
   78SBC   C0CJ54980   1.304   9.883  13.451
   78SBC   C0E654981   1.378   9.912  13.568
   78SBC   H00Y54982   1.330   9.976  13.641
   78SBC   C0EO54983   1.498   9.839  13.587
   78SBC   H01154984   1.556   9.843  13.678
   78SBC   C0G654985   1.551   9.759  13.484
   78SBC   C0G554986   1.680   9.694  13.489
   78SBC   H01F54987   1.731   9.702  13.584
   78SBC   C0GD54988   1.722   9.617  13.383
   78SBC   H01I54989   1.819   9.570  13.392
   78SBC   O00H54990   1.653   9.606  13.272
   78SBC   C0EQ54991   1.477   9.743  13.365
   78SBC   C0GC54992   1.527   9.661  13.266
   78SBC   C0G754993   1.258   9.713  13.002
   78SBC   C0DD54994   1.074   9.849  12.522
   78SBC   C0GF54995   1.085   9.761  12.819
   78SBC   C0CO54996   0.913   9.855  13.032
   78SBC   C0D054997   0.794   9.970  12.733
   78SBC   C0C454998   0.705  10.181  12.901
   78SBC   C0CN54999   0.843   9.917  13.135
   78SBC   C0CP55000   0.815  10.255  13.211
   78SBC   C0CM55001   0.917   9.919  13.258
   78SBC   C0CI55002   1.170   9.920  13.418
   78SBC   C0CD55003   1.065  10.083  13.847
   78SBC   C0BR55004   0.938  10.203  13.515
   78SBC   C0CS55005   0.833  10.422  13.555
   78SBC   C0B655006   0.778  10.646  13.724
   78SBC   C0CG55007   0.983  10.303  13.871
   78SBC   C0CF55008   1.042  10.189  13.931
   78SBC   C0E555009   1.146   9.957  14.044
   78SBC   C0DT55010   1.216   9.956  14.309
   78SBC   C0DL55011   1.084  10.302  14.278
   78SBC   C0DM55012   1.061  10.415  14.359
   78SBC   C0DY55013   1.162  10.302  14.547
   78SBC   C0DU55014   1.252   9.966  14.437
   78SBC   C0F055015   1.314   9.843  14.634
   78SBC   C0F455016   1.285   9.799  14.900
   78SBC   C0FG55017   1.290  10.166  14.869
   78SBC   O00B55018   1.215   9.907  15.114
   78SBC   C0FN55019   1.239  10.244  14.958
   78SBC   C0DZ55020   1.190  10.299  14.689
   78SBC   O00C55021   1.050  10.619  14.796
   78SBC   C0FR55022   1.032  10.738  14.745
   78SBC   O00D55023   1.009  10.829  14.820
   78SBC   C0E055024   1.098  10.414  14.493
   78SBC   C0E355025   1.018  10.750  14.602
   78SBC   C0AW55026   0.985  10.875  14.537
   78SBC   C0AV55027   0.989  11.002  14.601
   78SBC   H00Q55028   1.028  11.013  14.701
   78SBC   C0AU55029   0.938  11.117  14.535
   78SBC   H00R55030   0.953  11.205  14.595
   78SBC   C0AT55031   0.886  11.102  14.401
   78SBC   C0AS55032   0.801  11.176  14.310
   78SBC   C0AR55033   0.719  11.275  14.366
   78SBC   C0BE55034   0.902  10.980  14.339
   78SBC   C0DN55035   1.000  10.523  14.302
   78SBC   C0AX55036   0.948  10.867  14.407
   78SBC   C0BB55037   0.917  10.645  14.112
   78SBC   C0BD55038   0.837  10.980  14.218
   78SBC   C0B255039   0.801  10.759  13.933
   78SBC   C0AH55040   0.658  10.984  13.839
   78SBC   C0BF55041   0.776  11.102  14.192
   78SBC   C0AL55042   0.538  11.230  13.816
   78SBC   C07U55043   0.569  11.326  14.162
   78SBC   C0AQ55044   0.620  11.346  14.288
   78SBC   C0BG55045   0.730  11.350  14.494
   78SBC   C0FY55046   0.476  11.544  14.637
   78SBC   C0BJ55047   0.716  11.299  14.632
   78SBC   H00S55048   0.741  11.203  14.673
   78SBC   C0FZ55049   0.448  11.495  14.766
   78SBC   C07S55050   0.373  11.589  14.550
   78SBC   C0G155051   0.112  11.617  14.821
   78SBC   C07K55052  -0.071  11.797  14.548
   78SBC   C07H55053   0.145  11.683  14.400
   78SBC   C06B55054   0.036  11.941  14.193
   78SBC   C06N55055   0.053  11.832  13.988
   78SBC   C06655056   0.281  11.591  14.194
   78SBC   C06255057   0.350  11.493  13.899
   78SBC   C05Y55058   0.070  11.727  13.757
   78SBC   C06155059   0.362  11.490  13.757
   78SBC   C05H55060   0.092  11.494  13.506
   78SBC   C06V55061   0.371  11.374  13.676
   78SBC   C06Y55062   0.379  11.156  13.498
   78SBC   C05C55063   0.126  11.340  13.287
   78SBC   C06Z55064   0.348  11.045  13.284
   78SBC   C07055065   0.239  11.027  13.030
   78SBC   C05B55066   0.084  11.337  13.151
   78SBC   C05755067   0.043  11.358  12.868
   78SBC   C05955068   0.141  11.139  12.843
   79SBC   C05855069   5.809  11.629  13.467
   79SBC   C05A55070   5.714  11.697  13.396
   79SBC   C06Q55071   5.605  11.757  13.461
   79SBC   C06R55072   5.514  11.846  13.391
   79SBC   C06S55073   5.526  11.853  13.249
   79SBC   C06T55074   5.429  11.930  13.186
   79SBC   C06U55075   5.420  11.984  13.045
   79SBC   C06X55076   5.504  11.968  12.933
   79SBC   C06055077   5.481  12.068  12.826
   79SBC   C05Z55078   5.470  12.045  12.684
   79SBC   C06855079   5.342  12.121  12.646
   79SBC   C06755080   5.275  12.147  12.522
   79SBC   C06955081   5.335  12.091  12.399
   79SBC   C06A55082   5.269  12.067  12.269
   79SBC   C07355083   5.138  12.096  12.223
   79SBC   C07P55084   5.074  12.000  12.141
   79SBC   C07O55085   5.115  11.865  12.126
   79SBC   H00D55086   5.204  11.834  12.180
   79SBC   C07N55087   5.044  11.780  12.039
   79SBC   H00E55088   5.081  11.681  12.019
   79SBC   C07M55089   4.938  11.828  11.967
   79SBC   H00F55090   4.882  11.762  11.902
   79SBC   C07L55091   4.890  11.957  11.982
   79SBC   C07Q55092   4.778  12.014  11.913
   79SBC   H00G55093   4.720  11.950  11.849
   79SBC   O00F55094   4.727  12.139  11.923
   79SBC   C07J55095   4.798  12.216  12.009
   79SBC   C07I55096   4.908  12.170  12.086
   79SBC   N00455097   4.976  12.262  12.174
   79SBC   C07R55098   4.925  12.396  12.184
   79SBC   C07T55099   4.815  12.437  12.103
   79SBC   C0FX55100   4.752  12.561  12.112
   79SBC   C0FW55101   4.638  12.599  12.051
   79SBC   C0G055102   4.589  12.507  11.957
   79SBC   C0G255103   4.498  12.552  11.861
   79SBC   H01E55104   4.469  12.485  11.782
   79SBC   C0G355105   4.437  12.676  11.879
   79SBC   H01C55106   4.362  12.697  11.804
   79SBC   C0G455107   4.468  12.759  11.992
   79SBC   H01D55108   4.414  12.852  12.000
   79SBC   O00E55109   4.643  12.386  11.945
   79SBC   C0FV55110   4.574  12.718  12.081
   79SBC   C0FU55111   4.618  12.781  12.202
   79SBC   H01B55112   4.556  12.857  12.248
   79SBC   C0FT55113   4.738  12.752  12.265
   79SBC   C0FS55114   4.806  12.777  12.388
   79SBC   C0BI55115   4.935  12.715  12.383
   79SBC   C0BH55116   4.962  12.689  12.524
   79SBC   C07F55117   5.013  12.570  12.576
   79SBC   C07E55118   5.072  12.465  12.514
   79SBC   C07G55119   5.066  12.431  12.381
   79SBC   C07455120   5.113  12.301  12.371
   79SBC   C06555121   5.129  12.356  12.584
   79SBC   C06455122   5.102  12.343  12.716
   79SBC   C06355123   5.152  12.250  12.803
   79SBC   C07555124   5.081  12.273  12.930
   79SBC   C0AM55125   4.996  12.395  12.921
   79SBC   C0AN55126   4.915  12.467  13.027
   79SBC   C0AO55127   4.906  12.432  13.174
   79SBC   C0B155128   4.813  12.507  13.260
   79SBC   C0B055129   4.742  12.616  13.213
   79SBC   C0AZ55130   4.670  12.707  13.288
   79SBC   C0AY55131   4.614  12.826  13.233
   79SBC   N00755132   4.551  12.920  13.311
   79SBC   C0E255133   4.508  13.041  13.257
   79SBC   C0E155134   4.445  13.130  13.346
   79SBC   C0E455135   4.386  13.247  13.291
   79SBC   C0FF55136   4.326  13.342  13.374
   79SBC   C0FJ55137   4.248  13.459  13.342
   79SBC   C0FK55138   4.161  13.479  13.227
   79SBC   H01655139   4.157  13.418  13.138
   79SBC   C0FL55140   4.054  13.567  13.272
   79SBC   H01755141   3.960  13.587  13.222
   79SBC   C0FM55142   4.092  13.620  13.398
   79SBC   C0FH55143   4.022  13.651  13.528
   79SBC   C0FI55144   4.104  13.591  13.624
   79SBC   C0F355145   4.050  13.537  13.747
   79SBC   C0F255146   4.128  13.436  13.797
   79SBC   C0DW55147   4.225  13.368  13.735
   79SBC   C0FE55148   4.266  13.403  13.608
   79SBC   C0DV55149   4.273  13.241  13.781
   79SBC   C0DX55150   4.343  13.152  13.699
   79SBC   C0DK55151   4.373  13.027  13.744
   79SBC   C0DJ55152   4.316  12.980  13.858
   79SBC   C0DI55153   4.353  12.856  13.909
   79SBC   C0DH55154   4.451  12.784  13.841
   79SBC   C0DG55155   4.479  12.817  13.708
   79SBC   C0BV55156   4.555  12.736  13.627
   79SBC   C0BC55157   4.586  12.775  13.499
   79SBC   C0BA55158   4.615  12.626  13.688
   79SBC   C0B455159   4.697  12.548  13.611
   79SBC   C0B355160   4.717  12.569  13.477
   79SBC   C0B555161   4.765  12.448  13.675
   79SBC   C0BU55162   4.753  12.424  13.814
   79SBC   C0BT55163   4.668  12.502  13.889
   79SBC   C0BS55164   4.648  12.477  14.029
   79SBC   C0CC55165   4.544  12.545  14.091
   79SBC   C0CB55166   4.509  12.518  14.227
   79SBC   C0CH55167   4.376  12.545  14.262
   79SBC   C0DO55168   4.295  12.645  14.195
   79SBC   C0DP55169   4.192  12.710  14.258
   79SBC   C0EA55170   4.113  12.644  14.360
   79SBC   H01255171   4.137  12.542  14.386
   79SBC   O00955172   4.014  12.709  14.431
   79SBC   C0EH55173   3.975  12.831  14.382
   79SBC   C0EG55174   3.869  12.895  14.445
   79SBC   C0EJ55175   3.776  12.855  14.550
   79SBC   H01055176   3.780  12.767  14.611
   79SBC   C0EK55177   3.673  12.966  14.572
   79SBC   H00Z55178   3.592  12.980  14.641
   79SBC   C0EL55179   3.711  13.062  14.470
   79SBC   C0EM55180   3.639  13.179  14.427
   79SBC   C0EW55181   3.523  13.242  14.477
   79SBC   H01355182   3.478  13.203  14.566
   79SBC   C0EX55183   3.457  13.361  14.415
   79SBC   H01455184   3.369  13.410  14.455
   79SBC   C0F155185   3.520  13.414  14.297
   79SBC   C0EU55186   3.636  13.352  14.244
   79SBC   C0ET55187   3.700  13.384  14.123
   79SBC   C0ES55188   3.797  13.280  14.108
   79SBC   C0EE55189   3.794  13.195  14.222
   79SBC   C0ED55190   3.869  13.087  14.281
   79SBC   C0EC55191   3.985  13.024  14.221
   79SBC   C0EB55192   4.052  13.077  14.109
   79SBC   C0EN55193   4.016  13.199  14.046
   79SBC   C0ER55194   4.112  13.253  13.956
   79SBC   C0DS55195   4.155  13.008  14.043
   79SBC   C0DR55196   4.198  12.883  14.092
   79SBC   C0EY55197   3.918  13.305  14.057
   79SBC   C0EZ55198   3.937  13.404  13.962
   79SBC   C0F555199   3.860  13.510  13.901
   79SBC   C0F655200   3.733  13.554  13.940
   79SBC   N00855201   3.670  13.653  13.856
   79SBC   C0F755202   3.720  13.691  13.721
   79SBC   C0FQ55203   3.639  13.781  13.650
   79SBC   H01855204   3.682  13.821  13.559
   79SBC   C0FP55205   3.528  13.844  13.693
   79SBC   H01955206   3.496  13.923  13.626
   79SBC   C0FO55207   3.483  13.806  13.822
   79SBC   H01A55208   3.394  13.854  13.860
   79SBC   C0F855209   3.843  13.640  13.691
   79SBC   C0F955210   3.551  13.711  13.904
   79SBC   C0FA55211   3.494  13.677  14.032
   79SBC   H01555212   3.404  13.719  14.075
   79SBC   C0FB55213   3.545  13.566  14.105
   79SBC   C0FD55214   3.660  13.508  14.054
   79SBC   C0FC55215   3.471  13.523  14.219
   79SBC   O00A55216   3.375  13.586  14.260
   79SBC   C0EV55217   3.690  13.239  14.308
   79SBC   C0EF55218   3.828  13.014  14.394
   79SBC   C0EI55219   4.036  12.898  14.269
   79SBC   C0DQ55220   4.143  12.834  14.210
   79SBC   C0CE55221   4.355  12.697  14.079
   79SBC   H00U55222   4.352  12.517  14.364
   79SBC   C0CA55223   4.613  12.477  14.308
   79SBC   C0C955224   4.711  12.389  14.250
   79SBC   C0C855225   4.777  12.301  14.341
   79SBC   C0C755226   4.894  12.216  14.327
   79SBC   C0C655227   4.942  12.159  14.448
   79SBC   C0C555228   5.067  12.102  14.496
   79SBC   C0CQ55229   5.074  12.101  14.634
   79SBC   C0D155230   4.994  12.182  14.714
   79SBC   C0D855231   5.062  12.245  14.808
   79SBC   C0D755232   5.183  12.178  14.823
   79SBC   C0D655233   5.297  12.215  14.895
   79SBC   C0D555234   5.421  12.145  14.894
   79SBC   C0D455235   5.468  12.030  14.823
   79SBC   C0D355236   5.610  12.038  14.831
   79SBC   C0CX55237   5.663  11.966  14.715
   79SBC   C0CW55238   5.552  11.952  14.625
   79SBC   C0CV55239   5.513  11.887  14.496
   79SBC   C0D255240   5.598  11.792  14.433
   79SBC   C09D55241   5.708  11.725  14.503
   79SBC   C09C55242   5.786  11.625  14.429
   79SBC   C09B55243   5.895  11.558  14.478
   79SBC   C09A55244   5.926  11.583  14.616
   79SBC   C09955245   5.848  11.661  14.691
   79SBC   C09855246   5.921  11.700  14.814
   79SBC   C08Y55247   6.059  11.664  14.795
   79SBC   C08X55248   6.177  11.707  14.863
   79SBC   C08W55249   6.176  11.807  14.961
   79SBC   C08U55250   6.058  11.889  15.005
   79SBC   C08V55251   5.919  11.893  14.958
   79SBC   C0DC55252   5.853  11.983  15.041
   79SBC   H00W55253   5.745  11.988  15.040
   79SBC   C0DB55254   5.943  12.056  15.122
   79SBC   H00X55255   5.923  12.129  15.199
   79SBC   C08T55256   6.071  11.991  15.102
   79SBC   C08S55257   6.192  12.019  15.165
   79SBC   H00N55258   6.196  12.100  15.237
   79SBC   C08R55259   6.300  11.937  15.136
   79SBC   C08Q55260   6.421  11.950  15.202
   79SBC   H00O55261   6.429  12.022  15.282
   79SBC   C08P55262   6.544  11.884  15.177
   79SBC   C08O55263   6.667  11.915  15.245
   79SBC   H00P55264   6.674  11.988  15.324
   79SBC   C08N55265   6.785  11.839  15.209
   79SBC   C08M55266   6.912  11.868  15.270
   79SBC   O00855267   6.930  11.961  15.357
   79SBC   O00755268   7.023  11.787  15.239
   79SBC   C08H55269   7.018  11.702  15.136
   79SBC   C08G55270   7.135  11.642  15.085
   79SBC   C03V55271   7.265  11.643  15.139
   79SBC   H00955272   7.282  11.704  15.226
   79SBC   C03U55273   7.376  11.573  15.080
   79SBC   C03W55274   7.507  11.565  15.135
   79SBC   H00A55275   7.527  11.604  15.233
   79SBC   C03X55276   7.607  11.500  15.067
   79SBC   H00B55277   7.700  11.484  15.120
   79SBC   O00555278   7.584  11.444  14.942
   79SBC   C03O55279   7.463  11.456  14.886
   79SBC   C03N55280   7.444  11.402  14.757
   79SBC   O00055281   7.552  11.353  14.693
   79SBC   C01955282   7.549  11.328  14.554
   79SBC   C01855283   7.422  11.334  14.486
   79SBC   C01755284   7.307  11.363  14.561
   79SBC   C01655285   7.183  11.361  14.499
   79SBC   C01555286   7.184  11.326  14.364
   79SBC   C01455287   7.060  11.329  14.297
   79SBC   C01355288   6.936  11.346  14.359
   79SBC   C01255289   6.842  11.330  14.248
   79SBC   C01155290   6.926  11.304  14.135
   79SBC   C01055291   6.866  11.275  14.019
   79SBC   C00Z55292   6.927  11.259  13.898
   79SBC   C00Y55293   6.814  11.241  13.814
   79SBC   C01O55294   6.699  11.260  13.874
   79SBC   C01P55295   6.580  11.293  13.813
   79SBC   C02L55296   6.478  11.317  13.896
   79SBC   C02K55297   6.505  11.326  14.033
   79SBC   C01M55298   6.636  11.313  14.098
   79SBC   C02J55299   6.389  11.355  14.111
   79SBC   C02I55300   6.387  11.375  14.244
   79SBC   C02H55301   6.489  11.379  14.342
   79SBC   C01Q55302   6.627  11.366  14.344
   79SBC   C02G55303   6.675  11.382  14.475
   79SBC   C08955304   6.574  11.413  14.552
   79SBC   C08855305   6.598  11.460  14.678
   79SBC   C08755306   6.747  11.457  14.675
   79SBC   C08655307   6.830  11.507  14.773
   79SBC   C03S55308   6.972  11.490  14.790
   79SBC   N00655309   7.005  11.556  14.908
   79SBC   C08F55310   6.895  11.611  14.963
   79SBC   C01J55311   7.078  11.447  14.711
   79SBC   C03R55312   7.207  11.453  14.766
   79SBC   C03Q55313   7.226  11.509  14.895
   79SBC   C08E55314   6.783  11.584  14.886
   79SBC   C08D55315   6.656  11.630  14.928
   79SBC   C08K55316   6.659  11.725  15.036
   79SBC   C08C55317   6.528  11.603  14.875
   79SBC   C09155318   6.411  11.663  14.922
   79SBC   C09255319   6.421  11.770  15.012
   79SBC   C08B55320   6.496  11.516  14.768
   79SBC   C09055321   6.348  11.539  14.746
   79SBC   C09455322   6.284  11.509  14.627
   79SBC   C09555323   6.147  11.522  14.601
   79SBC   C09R55324   6.119  11.484  14.473
   79SBC   C09755325   6.236  11.440  14.411
   79SBC   C09655326   6.335  11.455  14.509
   79SBC   C01I55327   6.799  11.396  14.550
   79SBC   C08A55328   6.459  11.411  14.474
   79SBC   C09L55329   6.257  11.411  14.280
   79SBC   C09K55330   6.175  11.412  14.163
   79SBC   C09J55331   6.038  11.429  14.155
   79SBC   C09I55332   5.969  11.455  14.036
   79SBC   C09O55333   5.998  11.467  13.892
   79SBC   C09N55334   6.117  11.428  13.834
   79SBC   C09M55335   6.242  11.388  13.905
   79SBC   C06O55336   6.122  11.441  13.691
   79SBC   C05M55337   6.011  11.497  13.617
   79SBC   C06P55338   5.896  11.547  13.680
   79SBC   C04255339   6.025  11.514  13.478
   79SBC   C04155340   6.139  11.470  13.408
   79SBC   C04055341   6.154  11.487  13.266
   79SBC   C03Z55342   6.269  11.445  13.199
   79SBC   C03Y55343   6.370  11.393  13.270
   79SBC   C02755344   6.490  11.369  13.200
   79SBC   C02655345   6.599  11.327  13.270
   79SBC   C02855346   6.720  11.300  13.203
   79SBC   C02955347   6.737  11.321  13.070
   79SBC   C02B55348   6.858  11.316  13.009
   79SBC   C02C55349   6.875  11.340  12.879
   79SBC   C02X55350   6.999  11.323  12.817
   79SBC   C03E55351   7.012  11.347  12.686
   79SBC   C03G55352   6.911  11.399  12.608
   79SBC   C04Q55353   6.782  11.410  12.667
   79SBC   C04R55354   6.678  11.454  12.592
   79SBC   C04S55355   6.554  11.469  12.650
   79SBC   C04L55356   6.536  11.441  12.785
   79SBC   C04M55357   6.641  11.389  12.859
   79SBC   C04K55358   6.414  11.460  12.853
   79SBC   C04F55359   6.310  11.527  12.787
   79SBC   C04E55360   6.335  11.571  12.657
   79SBC   C04D55361   6.227  11.633  12.595
   79SBC   C05055362   6.235  11.660  12.459
   79SBC   C05155363   6.131  11.727  12.390
   79SBC   C05Q55364   6.142  11.746  12.255
   79SBC   C05V55365   6.031  11.793  12.183
   79SBC   N00555366   6.039  11.807  12.044
   79SBC   C07V55367   6.156  11.769  11.979
   79SBC   C08255368   6.160  11.764  11.841
   79SBC   C08155369   6.044  11.783  11.769
   79SBC   C07C55370   5.926  11.826  11.833
   79SBC   C07B55371   5.815  11.862  11.758
   79SBC   C08055372   5.812  11.831  11.621
   79SBC   C07Z55373   5.705  11.880  11.548
   79SBC   H00L55374   5.729  11.884  11.443
   79SBC   C07955375   5.589  11.943  11.608
   79SBC   C07855376   5.592  11.959  11.747
   79SBC   C07755377   5.490  12.029  11.816
   79SBC   C07X55378   5.385  12.085  11.738
   79SBC   H00I55379   5.314  12.148  11.789
   79SBC   C07Y55380   5.375  12.064  11.599
   79SBC   H00H55381   5.298  12.106  11.537
   79SBC   C07655382   5.490  12.033  11.954
   79SBC   C06C55383   5.368  12.056  12.029
   79SBC   H00C55384   5.278  12.075  11.974
   79SBC   C06F55385   5.600  11.985  12.031
   79SBC   C06E55386   5.597  11.989  12.169
   79SBC   C06G55387   5.701  11.947  12.247
   79SBC   C06H55388   5.815  11.900  12.181
   79SBC   C06I55389   5.814  11.894  12.039
   79SBC   C06L55390   5.685  11.933  12.391
   79SBC   C06M55391   5.571  11.977  12.463
   79SBC   C06K55392   5.793  11.874  12.460
   79SBC   C05S55393   5.910  11.828  12.389
   79SBC   C05U55394   5.783  11.845  12.595
   79SBC   C05X55395   5.667  11.886  12.671
   79SBC   C05G55396   5.669  11.840  12.812
   79SBC   C05F55397   5.770  11.756  12.853
   79SBC   C05E55398   5.752  11.721  12.987
   79SBC   C04855399   5.848  11.652  13.060
   79SBC   C05655400   5.834  11.647  13.197
   79SBC   C04555401   5.933  11.581  13.269
   79SBC   C04755402   5.961  11.619  12.991
   79SBC   C04955403   5.983  11.657  12.860
   79SBC   C04B55404   6.097  11.629  12.791
   79SBC   C04655405   6.063  11.557  13.062
   79SBC   C04H55406   6.178  11.523  12.993
   79SBC   C05D55407   5.646  11.796  13.038
   79SBC   C04A55408   5.891  11.733  12.791
   79SBC   C05T55409   5.891  11.772  12.656
   79SBC   C05555410   6.009  11.738  12.593
   79SBC   C06D55411   5.480  12.025  12.241
   79SBC   C07W55412   5.711  11.934  11.960
   79SBC   C08555413   5.474  11.986  11.543
   79SBC   H00M55414   5.459  11.957  11.440
   79SBC   C08455415   5.924  11.773  11.566
   79SBC   H00J55416   5.927  11.763  11.458
   79SBC   C07A55417   5.706  11.917  11.820
   79SBC   C08355418   6.035  11.760  11.630
   79SBC   H00K55419   6.120  11.730  11.571
   79SBC   O00K55420   6.275  11.727  11.770
   79SBC   C0GO55421   6.389  11.698  11.841
   79SBC   C0GN55422   6.508  11.681  11.777
   79SBC   H01L55423   6.514  11.682  11.669
   79SBC   C0GM55424   6.631  11.659  11.847
   79SBC   C0GL55425   6.746  11.664  11.780
   79SBC   H01M55426   6.747  11.655  11.673
   79SBC   O00J55427   6.869  11.660  11.848
   79SBC   C0GK55428   6.854  11.635  11.985
   79SBC   H01N55429   6.947  11.617  12.037
   79SBC   C05K55430   6.738  11.628  12.055
   79SBC   C05J55431   6.731  11.576  12.192
   79SBC   C04Y55432   6.837  11.545  12.279
   79SBC   C04X55433   6.819  11.496  12.410
   79SBC   O00655434   6.964  11.569  12.245
   79SBC   C05355435   7.075  11.510  12.296
   79SBC   C04O55436   7.061  11.447  12.419
   79SBC   C03C55437   7.168  11.394  12.505
   79SBC   C03B55438   7.315  11.392  12.505
   79SBC   C05455439   7.391  11.461  12.412
   79SBC   C0GR55440   7.535  11.470  12.425
   79SBC   C03M55441   7.642  11.424  12.520
   79SBC   C03I55442   7.614  11.373  12.651
   79SBC   C03J55443   7.729  11.350  12.734
   79SBC   N00255444   7.711  11.317  12.873
   79SBC   C02U55445   7.821  11.287  12.958
   79SBC   C02T55446   7.808  11.272  13.095
   79SBC   C02Z55447   7.908  11.215  13.167
   79SBC   N00155448   7.896  11.201  13.309
   79SBC   C02R55449   7.996  11.133  13.383
   79SBC   C03255450   8.108  11.085  13.315
   79SBC   C03155451   8.128  11.102  13.173
   79SBC   H00755452   8.219  11.077  13.121
   79SBC   C03355453   8.199  11.008  13.399
   79SBC   H00355454   8.278  10.952  13.352
   79SBC   O00455455   8.190  10.993  13.532
   79SBC   C03455456   8.077  11.043  13.589
   79SBC   C03555457   8.068  11.027  13.725
   79SBC   C03655458   7.948  11.046  13.792
   79SBC   H00555459   7.939  11.017  13.895
   79SBC   C03755460   7.842  11.096  13.720
   79SBC   H00655461   7.746  11.094  13.769
   79SBC   C00D55462   7.859  11.152  13.587
   79SBC   C00C55463   7.761  11.219  13.515
   79SBC   C00B55464   7.631  11.256  13.580
   79SBC   C00A55465   7.541  11.228  13.707
   79SBC   C00955466   7.412  11.223  13.656
   79SBC   C00855467   7.291  11.231  13.729
   79SBC   C00755468   7.293  11.242  13.865
   79SBC   C00655469   7.174  11.255  13.934
   79SBC   C00555470   7.182  11.280  14.075
   79SBC   C00455471   7.302  11.286  14.143
   79SBC   C00355472   7.421  11.269  14.071
   79SBC   C00255473   7.542  11.274  14.143
   79SBC   C01C55474   7.538  11.291  14.279
   79SBC   C01B55475   7.653  11.273  14.354
   79SBC   H00055476   7.745  11.238  14.310
   79SBC   C00155477   7.662  11.273  14.069
   79SBC   C00055478   7.652  11.283  13.929
   79SBC   C01U55479   7.782  11.326  13.895
   79SBC   H00255480   7.819  11.373  13.805
   79SBC   C01T55481   7.866  11.300  14.015
   79SBC   O00255482   7.984  11.281  14.042
   79SBC   O00155483   7.784  11.296  14.115
   79SBC   C01S55484   7.418  11.259  13.929
   79SBC   C00N55485   7.175  11.232  13.649
   79SBC   C00M55486   7.177  11.246  13.515
   79SBC   C00J55487   7.293  11.255  13.448
   79SBC   C00I55488   7.311  11.279  13.317
   79SBC   C00H55489   7.435  11.291  13.261
   79SBC   C00G55490   7.551  11.291  13.341
   79SBC   C00F55491   7.671  11.277  13.289
   79SBC   C01X55492   7.450  11.289  13.127
   79SBC   C01W55493   7.337  11.296  13.047
   79SBC   C01V55494   7.208  11.290  13.105
   79SBC   C02055495   7.093  11.299  13.029
   79SBC   C01Z55496   7.350  11.304  12.909
   79SBC   C02Y55497   7.234  11.304  12.839
   79SBC   C03955498   7.250  11.322  12.703
   79SBC   C02W55499   7.476  11.324  12.847
   79SBC   C01Y55500   7.573  11.294  13.069
   79SBC   C00U55501   7.195  11.284  13.238
   79SBC   C00S55502   7.074  11.274  13.298
   79SBC   C00T55503   6.959  11.280  13.222
   79SBC   C00R55504   7.064  11.252  13.435
   79SBC   C00Q55505   6.946  11.254  13.492
   79SBC   C00V55506   6.826  11.265  13.417
   79SBC   C02455507   6.704  11.280  13.479
   79SBC   C00X55508   6.698  11.263  13.615
   79SBC   C00P55509   6.942  11.245  13.628
   79SBC   C00O55510   7.059  11.241  13.711
   79SBC   C00K55511   7.413  11.249  13.526
   79SBC   N00055512   7.539  11.262  13.849
   79SBC   C00L55513   7.543  11.273  13.480
   79SBC   H00455514   8.147  10.983  13.784
   79SBC   C02Q55515   7.977  11.118  13.520
   79SBC   C00E55516   7.778  11.249  13.374
   79SBC   C03055517   8.032  11.178  13.101
   79SBC   O00355518   8.051  11.210  12.972
   79SBC   C02S55519   7.685  11.282  13.150
   79SBC   C03855520   7.949  11.268  12.900
   79SBC   C03L55521   7.964  11.302  12.769
   79SBC   H00855522   8.065  11.295  12.731
   79SBC   C02V55523   7.585  11.318  12.931
   79SBC   C03K55524   7.862  11.349  12.690
   79SBC   C0BK55525   7.878  11.395  12.564
   79SBC   H00T55526   7.973  11.399  12.513
   79SBC   C03H55527   7.491  11.353  12.709
   79SBC   C0BL55528   7.775  11.430  12.474
   79SBC   C0GU55529   7.802  11.470  12.343
   79SBC   H01O55530   7.907  11.472  12.316
   79SBC   C0GT55531   7.706  11.529  12.260
   79SBC   H01P55532   7.735  11.569  12.164
   79SBC   C0GS55533   7.573  11.524  12.297
   79SBC   C0GV55534   7.456  11.564  12.228
   79SBC   C0GW55535   7.445  11.631  12.097
   79SBC   H01Q55536   7.530  11.676  12.047
   79SBC   C0GX55537   7.315  11.636  12.050
   79SBC   H01R55538   7.303  11.684  11.954
   79SBC   O00L55539   7.203  11.590  12.114
   79SBC   C0GQ55540   7.338  11.512  12.293
   79SBC   C03A55541   7.367  11.355  12.637
   79SBC   C05L55542   7.208  11.531  12.239
   79SBC   C04W55543   6.605  11.581  12.252
   79SBC   C05I55544   6.494  11.628  12.187
   79SBC   C05O55545   6.497  11.658  12.053
   79SBC   C05255546   6.373  11.658  12.255
   79SBC   C04V55547   6.591  11.553  12.390
   79SBC   C04U55548   6.465  11.566  12.456
   79SBC   N00955549   6.620  11.650  11.989
   79SBC   C0GP55550   6.385  11.693  11.980
   79SBC   C05W55551   6.265  11.727  12.051
   79SBC   C07D55552   5.925  11.841  11.973
   79SBC   C06J55553   5.924  11.845  12.250
   79SBC   C05P55554   6.257  11.706  12.188
   79SBC   C05R55555   6.016  11.769  12.457
   79SBC   C04Z55556   6.356  11.626  12.387
   79SBC   C04C55557   6.110  11.667  12.660
   79SBC   C04G55558   6.193  11.554  12.858
   79SBC   C04J55559   6.398  11.436  12.993
   79SBC   C04T55560   6.449  11.533  12.586
   79SBC   N00355561   6.697  11.499  12.462
   79SBC   C04P55562   6.933  11.447  12.483
   79SBC   C03D55563   7.139  11.338  12.627
   79SBC   C02155564   7.106  11.301  12.895
   79SBC   C03F55565   6.766  11.378  12.803
   79SBC   C02255566   6.969  11.302  13.087
   79SBC   C02A55567   6.626  11.362  12.997
   79SBC   C02355568   6.833  11.280  13.280
   79SBC   C02555569   6.591  11.311  13.408
   79SBC   C02D55570   6.468  11.327  13.480
   79SBC   C02E55571   6.463  11.321  13.614
   79SBC   C02N55572   6.350  11.354  13.694
   79SBC   C04N55573   6.505  11.383  13.060
   79SBC   C02P55574   6.363  11.373  13.409
   79SBC   C04I55575   6.283  11.470  13.061
   79SBC   C04455576   6.047  11.536  13.199
   79SBC   C04355577   6.244  11.411  13.480
   79SBC   C05N55578   6.236  11.400  13.619
   79SBC   C09U55579   5.886  11.529  13.816
   79SBC   C09V55580   5.773  11.587  13.875
   79SBC   C09X55581   5.754  11.586  14.011
   79SBC   C09Y55582   5.663  11.662  14.087
   79SBC   C0A155583   5.571  11.737  14.014
   79SBC   C0A255584   5.578  11.732  13.876
   79SBC   C0A455585   5.480  11.803  13.803
   79SBC   C07155586   5.488  11.807  13.663
   79SBC   C0A555587   5.397  11.888  13.597
   79SBC   C0A955588   5.300  11.957  13.670
   79SBC   C0A855589   5.292  11.948  13.804
   79SBC   C0AP55590   5.198  12.023  13.870
   79SBC   C0BY55591   5.199  12.019  14.006
   79SBC   C0BX55592   5.279  11.943  14.081
   79SBC   C0C255593   5.281  11.963  14.221
   79SBC   C0C355594   5.377  11.897  14.296
   79SBC   C0CT55595   5.478  11.824  14.224
   79SBC   C0C155596   5.180  12.037  14.287
   79SBC   C0C055597   5.085  12.115  14.203
   79SBC   C0A755598   5.377  11.870  14.012
   79SBC   C0BZ55599   5.106  12.095  14.070
   79SBC   C0BO55600   5.007  12.168  14.001
   79SBC   C0BN55601   5.005  12.166  13.859
   79SBC   C0BM55602   4.918  12.257  13.802
   79SBC   C0B955603   4.933  12.273  13.665
   79SBC   C0B855604   5.029  12.200  13.595
   79SBC   C0AD55605   5.116  12.112  13.664
   79SBC   C0AF55606   5.036  12.216  13.457
   79SBC   C0AG55607   4.954  12.307  13.384
   79SBC   C0B755608   4.871  12.386  13.460
   79SBC   C0AE55609   5.135  12.139  13.403
   79SBC   C0AB55610   5.222  12.053  13.463
   79SBC   C0AA55611   5.315  11.979  13.394
   79SBC   C0AJ55612   5.149  12.158  13.267
   79SBC   C0AK55613   5.234  12.079  13.197
   79SBC   C06W55614   5.229  12.122  13.069
   79SBC   C0AI55615   5.073  12.240  13.185
   79SBC   C0BP55616   4.932  12.245  14.087
   79SBC   C0BQ55617   4.827  12.321  14.023
   79SBC   C0BW55618   5.108  12.099  13.798
   79SBC   C0AC55619   5.215  12.040  13.599
   79SBC   C0A655620   5.382  11.864  13.877
   79SBC   C0A355621   5.475  11.805  14.087
   79SBC   C09Z55622   5.667  11.672  14.226
   79SBC   C09W55623   5.679  11.662  13.809
   79SBC   C07255624   5.687  11.670  13.671
   79SBC   C09H55625   5.840  11.512  14.084
   79SBC   C09G55626   5.838  11.513  14.224
   79SBC   C09P55627   5.955  11.462  14.271
   79SBC   C02O55628   6.261  11.386  14.052
   79SBC   C02M55629   6.355  11.349  13.833
   79SBC   C02F55630   6.575  11.290  13.676
   79SBC   C00W55631   6.818  11.237  13.679
   79SBC   C01R55632   7.060  11.247  13.848
   79SBC   C01N55633   6.731  11.278  14.001
   79SBC   C01L55634   6.696  11.338  14.227
   79SBC   C01H55635   6.934  11.376  14.502
   79SBC   C01K55636   7.060  11.303  14.156
   79SBC   C01E55637   7.299  11.307  14.282
   79SBC   C01G55638   7.060  11.388  14.577
   79SBC   C01D55639   7.421  11.317  14.347
   79SBC   C01A55640   7.667  11.296  14.491
   79SBC   H00155641   7.758  11.283  14.547
   79SBC   C01F55642   7.316  11.409  14.691
   79SBC   C03P55643   7.355  11.517  14.958
   79SBC   C03T55644   7.126  11.570  14.966
   79SBC   C08I55645   6.895  11.690  15.070
   79SBC   C08J55646   6.782  11.753  15.107
   79SBC   C08L55647   6.543  11.794  15.074
   79SBC   C09355648   6.298  11.842  15.034
   79SBC   C08Z55649   6.300  11.635  14.839
   79SBC   C09T55650   5.869  11.829  14.837
   79SBC   C09S55651   6.053  11.578  14.676
   79SBC   C09Q55652   5.995  11.494  14.404
   79SBC   C09F55653   5.758  11.602  14.298
   79SBC   C09E55654   5.757  11.751  14.635
   79SBC   C0A055655   5.585  11.766  14.297
   79SBC   C0CU55656   5.398  11.927  14.430
   79SBC   C0CR55657   5.294  12.004  14.498
   79SBC   C0CZ55658   5.308  12.035  14.633
   79SBC   C0DA55659   5.753  11.855  14.738
   79SBC   C0D955660   5.649  12.165  14.894
   79SBC   H00V55661   5.745  12.214  14.896
   79SBC   C0CY55662   5.437  12.012  14.690
   79SBC   C0DF55663   5.525  12.230  14.947
   79SBC   C0DE55664   5.455  12.338  15.017
   79SBC   C0GI55665   5.497  12.452  15.093
   79SBC   H01K55666   5.602  12.444  15.118
   79SBC   C0GJ55667   5.397  12.537  15.136
   79SBC   H01J55668   5.425  12.615  15.204
   79SBC   O00I55669   5.264  12.527  15.101
   79SBC   C0GH55670   5.221  12.427  15.017
   79SBC   C0GG55671   5.089  12.451  14.960
   79SBC   O00G55672   5.024  12.557  15.013
   79SBC   C0G855673   4.933  12.623  14.942
   79SBC   C0G955674   4.899  12.746  14.996
   79SBC   H01G55675   4.952  12.785  15.081
   79SBC   C0GA55676   4.795  12.819  14.948
   79SBC   H01H55677   4.770  12.910  14.999
   79SBC   C0GB55678   4.718  12.773  14.840
   79SBC   C0EP55679   4.757  12.650  14.779
   79SBC   C0E855680   4.699  12.628  14.650
   79SBC   C0CK55681   4.708  12.525  14.550
   79SBC   C0CL55682   4.758  12.397  14.578
   79SBC   C0E955683   4.845  12.365  14.685
   79SBC   C0GE55684   4.910  12.439  14.793
   79SBC   C0E755685   4.603  12.712  14.589
   79SBC   C0CJ55686   4.567  12.678  14.457
   79SBC   C0E655687   4.493  12.774  14.389
   79SBC   H00Y55688   4.480  12.778  14.281
   79SBC   C0EO55689   4.421  12.865  14.467
   79SBC   H01155690   4.351  12.918  14.404
   79SBC   C0G655691   4.457  12.898  14.602
   79SBC   C0G555692   4.406  13.003  14.693
   79SBC   H01F55693   4.330  13.074  14.667
   79SBC   C0GD55694   4.467  13.030  14.815
   79SBC   H01I55695   4.427  13.107  14.879
   79SBC   O00H55696   4.571  12.961  14.867
   79SBC   C0EQ55697   4.560  12.828  14.664
   79SBC   C0GC55698   4.613  12.851  14.793
   79SBC   C0G755699   4.866  12.569  14.830
   79SBC   C0DD55700   5.314  12.330  14.977
   79SBC   C0GF55701   5.018  12.374  14.862
   79SBC   C0CO55702   4.884  12.234  14.657
   79SBC   C0D055703   5.196  12.097  14.697
   79SBC   C0C455704   5.179  12.059  14.426
   79SBC   C0CN55705   4.837  12.189  14.535
   79SBC   C0CP55706   4.977  12.216  14.216
   79SBC   C0CM55707   4.743  12.285  14.483
   79SBC   C0CI55708   4.632  12.551  14.431
   79SBC   C0CD55709   4.472  12.639  14.024
   79SBC   C0BR55710   4.725  12.389  14.105
   79SBC   C0CS55711   4.829  12.329  13.883
   79SBC   C0B655712   4.856  12.371  13.599
   79SBC   C0CG55713   4.600  12.603  13.825
   79SBC   C0CF55714   4.507  12.673  13.895
   79SBC   C0E555715   4.302  12.809  14.028
   79SBC   C0DT55716   4.226  13.054  13.932
   79SBC   C0DL55717   4.448  12.942  13.663
   79SBC   C0DM55718   4.478  12.983  13.532
   79SBC   C0DY55719   4.369  13.192  13.567
   79SBC   C0DU55720   4.211  13.184  13.892
   79SBC   C0F055721   4.067  13.374  13.910
   79SBC   C0F455722   3.924  13.565  13.785
   79SBC   C0FG55723   4.215  13.526  13.561
   79SBC   O00B55724   3.891  13.672  13.560
   79SBC   C0FN55725   4.211  13.559  13.429
   79SBC   C0DZ55726   4.322  13.314  13.515
   79SBC   O00C55727   4.403  13.274  13.156
   79SBC   C0FR55728   4.463  13.190  13.066
   79SBC   O00D55729   4.457  13.226  12.950
   79SBC   C0E055730   4.431  13.101  13.480
   79SBC   C0E355731   4.519  13.068  13.123
   79SBC   C0AW55732   4.582  12.969  13.044
   79SBC   C0AV55733   4.605  12.980  12.902
   79SBC   H00Q55734   4.576  13.065  12.843
   79SBC   C0AU55735   4.669  12.883  12.825
   79SBC   H00R55736   4.683  12.903  12.720
   79SBC   C0AT55737   4.723  12.767  12.895
   79SBC   C0AS55738   4.806  12.652  12.859
   79SBC   C0AR55739   4.865  12.644  12.733
   79SBC   C0BE55740   4.702  12.761  13.029
   79SBC   C0DN55741   4.536  12.894  13.450
   79SBC   C0AX55742   4.636  12.857  13.105
   79SBC   C0BB55743   4.650  12.680  13.418
   79SBC   C0BD55744   4.762  12.650  13.079
   79SBC   C0B255745   4.799  12.486  13.396
   79SBC   C0AH55746   4.979  12.333  13.247
   79SBC   C0BF55747   4.840  12.584  12.984
   79SBC   C0AL55748   5.114  12.209  13.054
   79SBC   C07U55749   5.018  12.435  12.783
   79SBC   C0AQ55750   4.970  12.546  12.706
   79SBC   C0BG55751   4.862  12.725  12.612
   79SBC   C0FY55752   4.925  12.613  12.285
   79SBC   C0BJ55753   4.750  12.771  12.525
   79SBC   H00S55754   4.646  12.785  12.550
   79SBC   C0FZ55755   4.813  12.647  12.204
   79SBC   C07S55756   4.982  12.481  12.281
   79SBC   C0G155757   4.754  12.350  12.016
   79SBC   C07K55758   4.957  12.042  12.074
   79SBC   C07H55759   5.090  12.224  12.251
   79SBC   C06B55760   5.369  12.052  12.170
   79SBC   C06N55761   5.466  12.027  12.375
   79SBC   C06655762   5.179  12.253  12.493
   79SBC   C06255763   5.274  12.167  12.771
   79SBC   C05Y55764   5.568  11.968  12.605
   79SBC   C06155765   5.367  12.135  12.875
   79SBC   C05H55766   5.592  11.861  12.929
   79SBC   C06V55767   5.327  12.078  12.995
   79SBC   C06Y55768   5.327  11.986  13.257
   79SBC   C05C55769   5.630  11.786  13.186
   79SBC   C06Z55770   5.408  11.902  13.459
   79SBC   C07055771   5.592  11.744  13.600
   79SBC   C05B55772   5.720  11.706  13.257
   79SBC   C05755773   5.922  11.575  13.408
   79SBC   C05955774   5.795  11.612  13.607
   80SBC   C05855775   9.925   6.289  15.736
   80SBC   C05A55776  10.056   6.311  15.780
   80SBC   C06Q55777  10.120   6.218  15.864
   80SBC   C06R55778  10.259   6.230  15.899
   80SBC   C06S55779  10.337   6.342  15.855
   80SBC   C06T55780  10.478   6.337  15.879
   80SBC   C06U55781  10.585   6.421  15.821
   80SBC   C06X55782  10.586   6.540  15.749
   80SBC   C06055783  10.718   6.557  15.690
   80SBC   C05Z55784  10.793   6.681  15.659
   80SBC   C06855785  10.925   6.660  15.724
   80SBC   C06755786  11.030   6.759  15.737
   80SBC   C06955787  11.022   6.886  15.673
   80SBC   C06A55788  11.101   7.002  15.701
   80SBC   C07355789  11.182   7.039  15.810
   80SBC   C07P55790  11.166   7.170  15.866
   80SBC   C07O55791  11.068   7.264  15.834
   80SBC   H00D55792  10.982   7.240  15.773
   80SBC   C07N55793  11.062   7.388  15.895
   80SBC   H00E55794  10.986   7.460  15.867
   80SBC   C07M55795  11.160   7.428  15.981
   80SBC   H00F55796  11.162   7.527  16.025
   80SBC   C07L55797  11.266   7.341  16.013
   80SBC   C07Q55798  11.368   7.373  16.108
   80SBC   H00G55799  11.373   7.467  16.161
   80SBC   O00F55800  11.459   7.279  16.152
   80SBC   C07J55801  11.459   7.161  16.083
   80SBC   C07I55802  11.368   7.125  15.986
   80SBC   N00455803  11.382   6.989  15.935
   80SBC   C07R55804  11.495   6.909  15.962
   80SBC   C07T55805  11.578   6.951  16.067
   80SBC   C0FX55806  11.669   6.865  16.122
   80SBC   C0FW55807  11.737   6.885  16.235
   80SBC   C0G055808  11.717   7.013  16.297
   80SBC   C0G255809  11.783   7.046  16.417
   80SBC   H01E55810  11.782   7.148  16.453
   80SBC   C0G355811  11.863   6.948  16.481
   80SBC   H01C55812  11.915   6.962  16.574
   80SBC   C0G455813  11.876   6.818  16.418
   80SBC   H01D55814  11.939   6.746  16.468
   80SBC   O00E55815  11.636   7.112  16.238
   80SBC   C0FV55816  11.811   6.781  16.298
   80SBC   C0FU55817  11.817   6.653  16.238
   80SBC   H01B55818  11.860   6.564  16.281
   80SBC   C0FT55819  11.750   6.635  16.120
   80SBC   C0FS55820  11.712   6.525  16.039
   80SBC   C0BI55821  11.657   6.570  15.911
   80SBC   C0BH55822  11.578   6.471  15.850
   80SBC   C07F55823  11.434   6.479  15.845
   80SBC   C07E55824  11.358   6.594  15.822
   80SBC   C07G55825  11.394   6.726  15.837
   80SBC   C07455826  11.278   6.800  15.818
   80SBC   C06555827  11.218   6.586  15.815
   80SBC   C06455828  11.164   6.460  15.848
   80SBC   C06355829  11.029   6.439  15.858
   80SBC   C07555830  11.023   6.299  15.917
   80SBC   C0AM55831  11.153   6.240  15.938
   80SBC   C0AN55832  11.185   6.110  15.993
   80SBC   C0AO55833  11.093   5.999  16.045
   80SBC   C0B155834  11.151   5.871  16.092
   80SBC   C0B055835  11.288   5.845  16.083
   80SBC   C0AZ55836  11.345   5.727  16.117
   80SBC   C0AY55837  11.488   5.713  16.096
   80SBC   N00755838  11.554   5.589  16.116
   80SBC   C0E255839  11.687   5.560  16.069
   80SBC   C0E155840  11.735   5.434  16.082
   80SBC   C0E455841  11.861   5.414  16.025
   80SBC   C0FF55842  11.919   5.289  16.025
   80SBC   C0FJ55843  12.043   5.237  15.959
   80SBC   C0FK55844  12.087   5.278  15.822
   80SBC   H01655845  12.070   5.375  15.777
   80SBC   C0FL55846  12.155   5.154  15.778
   80SBC   H01755847  12.189   5.123  15.681
   80SBC   C0FM55848  12.134   5.051  15.876
   80SBC   C0FH55849  12.138   4.909  15.904
   80SBC   C0FI55850  12.056   4.903  16.024
   80SBC   C0F355851  11.958   4.799  16.032
   80SBC   C0F255852  11.853   4.833  16.111
   80SBC   C0DW55853  11.818   4.958  16.147
   80SBC   C0FE55854  11.899   5.063  16.116
   80SBC   C0DV55855  11.691   4.979  16.198
   80SBC   C0DX55856  11.648   5.112  16.206
   80SBC   C0DK55857  11.513   5.131  16.245
   80SBC   C0DJ55858  11.433   5.021  16.278
   80SBC   C0DI55859  11.300   5.040  16.318
   80SBC   C0DH55860  11.245   5.168  16.315
   80SBC   C0DG55861  11.319   5.278  16.276
   80SBC   C0BV55862  11.260   5.400  16.257
   80SBC   C0BC55863  11.339   5.505  16.206
   80SBC   C0BA55864  11.123   5.418  16.266
   80SBC   C0B455865  11.059   5.540  16.241
   80SBC   C0B355866  11.135   5.644  16.183
   80SBC   C0B555867  10.919   5.550  16.250
   80SBC   C0BU55868  10.841   5.439  16.284
   80SBC   C0BT55869  10.903   5.320  16.312
   80SBC   C0BS55870  10.824   5.210  16.342
   80SBC   C0CC55871  10.886   5.089  16.373
   80SBC   C0CB55872  10.813   4.976  16.407
   80SBC   C0CH55873  10.886   4.865  16.451
   80SBC   C0DO55874  11.018   4.842  16.423
   80SBC   C0DP55875  11.067   4.710  16.404
   80SBC   C0EA55876  10.984   4.596  16.433
   80SBC   H01255877  10.889   4.608  16.482
   80SBC   O00955878  11.021   4.468  16.410
   80SBC   C0EH55879  11.130   4.457  16.328
   80SBC   C0EG55880  11.160   4.328  16.272
   80SBC   C0EJ55881  11.089   4.205  16.269
   80SBC   H01055882  10.995   4.182  16.316
   80SBC   C0EK55883  11.163   4.110  16.186
   80SBC   H00Z55884  11.139   4.007  16.161
   80SBC   C0EL55885  11.266   4.188  16.127
   80SBC   C0EM55886  11.370   4.163  16.028
   80SBC   C0EW55887  11.392   4.040  15.958
   80SBC   H01355888  11.335   3.952  15.983
   80SBC   C0EX55889  11.506   4.023  15.868
   80SBC   H01455890  11.524   3.929  15.819
   80SBC   C0F155891  11.598   4.136  15.851
   80SBC   C0EU55892  11.575   4.254  15.918
   80SBC   C0ET55893  11.651   4.373  15.916
   80SBC   C0ES55894  11.581   4.460  16.006
   80SBC   C0EE55895  11.464   4.392  16.056
   80SBC   C0ED55896  11.361   4.418  16.152
   80SBC   C0EC55897  11.341   4.541  16.224
   80SBC   C0EB55898  11.430   4.647  16.225
   80SBC   C0EN55899  11.564   4.638  16.176
   80SBC   C0ER55900  11.652   4.746  16.200
   80SBC   C0DS55901  11.399   4.777  16.271
   80SBC   C0DR55902  11.271   4.800  16.323
   80SBC   C0EY55903  11.638   4.551  16.088
   80SBC   C0EZ55904  11.765   4.607  16.054
   80SBC   C0F555905  11.866   4.590  15.949
   80SBC   C0F655906  11.873   4.476  15.863
   80SBC   N00855907  11.993   4.466  15.780
   80SBC   C0F755908  12.088   4.574  15.770
   80SBC   C0FQ55909  12.195   4.562  15.681
   80SBC   H01855910  12.258   4.648  15.662
   80SBC   C0FP55911  12.223   4.456  15.604
   80SBC   H01955912  12.307   4.460  15.536
   80SBC   C0FO55913  12.129   4.352  15.613
   80SBC   H01A55914  12.129   4.266  15.547
   80SBC   C0F855915  12.069   4.683  15.852
   80SBC   C0F955916  12.011   4.361  15.692
   80SBC   C0FA55917  11.918   4.250  15.692
   80SBC   H01555918  11.939   4.163  15.631
   80SBC   C0FB55919  11.800   4.252  15.775
   80SBC   C0FD55920  11.781   4.368  15.850
   80SBC   C0FC55921  11.717   4.132  15.774
   80SBC   O00A55922  11.744   4.027  15.713
   80SBC   C0EV55923  11.461   4.265  16.002
   80SBC   C0EF55924  11.260   4.318  16.179
   80SBC   C0EI55925  11.227   4.559  16.302
   80SBC   C0DQ55926  11.189   4.689  16.346
   80SBC   C0CE55927  11.087   4.951  16.374
   80SBC   H00U55928  10.827   4.789  16.500
   80SBC   C0CA55929  10.670   4.980  16.380
   80SBC   C0C955930  10.602   5.100  16.389
   80SBC   C0C855931  10.469   5.093  16.439
   80SBC   C0C755932  10.358   5.181  16.415
   80SBC   C0C655933  10.236   5.131  16.467
   80SBC   C0C555934  10.095   5.136  16.425
   80SBC   C0CQ55935  10.015   5.031  16.465
   80SBC   C0D155936  10.064   4.919  16.534
   80SBC   C0D855937   9.998   4.804  16.498
   80SBC   C0D755938   9.870   4.853  16.448
   80SBC   C0D655939   9.763   4.777  16.401
   80SBC   C0D555940   9.652   4.833  16.330
   80SBC   C0D455941   9.603   4.962  16.306
   80SBC   C0D355942   9.522   4.958  16.194
   80SBC   C0CX55943   9.523   5.083  16.124
   80SBC   C0CW55944   9.635   5.159  16.177
   80SBC   C0CV55945   9.693   5.295  16.168
   80SBC   C0D255946   9.623   5.407  16.114
   80SBC   C09D55947   9.486   5.407  16.076
   80SBC   C09C55948   9.422   5.526  16.029
   80SBC   C09B55949   9.287   5.536  15.987
   80SBC   C09A55950   9.205   5.421  16.006
   80SBC   C09955951   9.257   5.311  16.058
   80SBC   C09855952   9.171   5.204  16.028
   80SBC   C08Y55953   9.064   5.245  15.937
   80SBC   C08X55954   8.982   5.168  15.844
   80SBC   C08W55955   8.980   5.027  15.845
   80SBC   C08U55956   9.071   4.939  15.923
   80SBC   C08V55957   9.189   4.963  16.003
   80SBC   C0DC55958   9.203   4.846  16.076
   80SBC   H00W55959   9.272   4.851  16.159
   80SBC   C0DB55960   9.123   4.738  16.030
   80SBC   H00X55961   9.116   4.635  16.061
   80SBC   C08T55962   9.042   4.800  15.932
   80SBC   C08S55963   8.935   4.742  15.863
   80SBC   H00N55964   8.906   4.641  15.885
   80SBC   C08R55965   8.866   4.818  15.766
   80SBC   C08Q55966   8.764   4.762  15.682
   80SBC   H00O55967   8.752   4.655  15.677
   80SBC   C08P55968   8.675   4.832  15.600
   80SBC   C08O55969   8.577   4.768  15.515
   80SBC   H00P55970   8.565   4.660  15.511
   80SBC   C08N55971   8.501   4.846  15.422
   80SBC   C08M55972   8.393   4.787  15.342
   80SBC   O00855973   8.369   4.665  15.344
   80SBC   O00755974   8.326   4.865  15.250
   80SBC   C08H55975   8.360   5.002  15.230
   80SBC   C08G55976   8.293   5.087  15.135
   80SBC   C03V55977   8.183   5.057  15.050
   80SBC   H00955978   8.141   4.958  15.054
   80SBC   C03U55979   8.126   5.154  14.965
   80SBC   C03W55980   8.004   5.135  14.889
   80SBC   H00A55981   7.946   5.044  14.890
   80SBC   C03X55982   7.955   5.237  14.815
   80SBC   H00B55983   7.864   5.221  14.759
   80SBC   O00555984   8.015   5.362  14.801
   80SBC   C03O55985   8.134   5.378  14.872
   80SBC   C03N55986   8.189   5.503  14.864
   80SBC   O00055987   8.133   5.597  14.783
   80SBC   C01955988   8.196   5.708  14.753
   80SBC   C01855989   8.312   5.748  14.820
   80SBC   C01755990   8.363   5.661  14.921
   80SBC   C01655991   8.470   5.699  15.000
   80SBC   C01555992   8.515   5.832  14.972
   80SBC   C01455993   8.619   5.878  15.051
   80SBC   C01355994   8.665   5.813  15.166
   80SBC   C01255995   8.759   5.903  15.226
   80SBC   C01155996   8.744   6.021  15.142
   80SBC   C01055997   8.812   6.136  15.177
   80SBC   C00Z55998   8.833   6.250  15.098
   80SBC   C00Y55999   8.943   6.311  15.161
   80SBC   C01O56000   8.986   6.244  15.271
   80SBC   C01P56001   9.117   6.250  15.322
   80SBC   C02L56002   9.155   6.154  15.410
   80SBC   C02K56003   9.061   6.046  15.433
   80SBC   C01M56004   8.938   6.023  15.360
   80SBC   C02J56005   9.109   5.958  15.532
   80SBC   C02I56006   9.043   5.848  15.584
   80SBC   C02H56007   8.932   5.782  15.532
   80SBC   C01Q56008   8.851   5.803  15.416
   80SBC   C02G56009   8.775   5.684  15.400
   80SBC   C08956010   8.794   5.610  15.515
   80SBC   C08856011   8.746   5.476  15.507
   80SBC   C08756012   8.671   5.485  15.383
   80SBC   C08656013   8.590   5.381  15.326
   80SBC   C03S56014   8.505   5.388  15.210
   80SBC   N00656015   8.450   5.258  15.200
   80SBC   C08F56016   8.497   5.180  15.297
   80SBC   C01J56017   8.463   5.486  15.118
   80SBC   C03R56018   8.362   5.447  15.028
   80SBC   C03Q56019   8.305   5.314  15.028
   80SBC   C08E56020   8.579   5.250  15.384
   80SBC   C08D56021   8.651   5.179  15.485
   80SBC   C08K56022   8.621   5.043  15.503
   80SBC   C08C56023   8.738   5.242  15.580
   80SBC   C09156024   8.811   5.162  15.665
   80SBC   C09256025   8.800   5.022  15.674
   80SBC   C08B56026   8.767   5.375  15.607
   80SBC   C09056027   8.869   5.373  15.710
   80SBC   C09456028   8.935   5.488  15.767
   80SBC   C09556029   9.032   5.493  15.867
   80SBC   C09R56030   9.108   5.614  15.858
   80SBC   C09756031   9.054   5.689  15.758
   80SBC   C09656032   8.952   5.613  15.703
   80SBC   C01I56033   8.678   5.617  15.317
   80SBC   C08A56034   8.893   5.664  15.586
   80SBC   C09L56035   9.108   5.802  15.695
   80SBC   C09K56036   9.220   5.884  15.711
   80SBC   C09J56037   9.312   5.869  15.817
   80SBC   C09I56038   9.435   5.936  15.823
   80SBC   C09O56039   9.510   6.036  15.746
   80SBC   C09N56040   9.455   6.109  15.635
   80SBC   C09M56041   9.325   6.090  15.576
   80SBC   C06O56042   9.536   6.210  15.579
   80SBC   C05M56043   9.665   6.234  15.628
   80SBC   C06P56044   9.718   6.159  15.738
   80SBC   C04256045   9.744   6.341  15.580
   80SBC   C04156046   9.699   6.412  15.465
   80SBC   C04056047   9.781   6.518  15.414
   80SBC   C03Z56048   9.742   6.586  15.298
   80SBC   C03Y56049   9.621   6.556  15.243
   80SBC   C02756050   9.582   6.621  15.126
   80SBC   C02656051   9.457   6.592  15.072
   80SBC   C02856052   9.415   6.646  14.951
   80SBC   C02956053   9.506   6.736  14.886
   80SBC   C02B56054   9.472   6.784  14.764
   80SBC   C02C56055   9.559   6.865  14.698
   80SBC   C02X56056   9.522   6.908  14.571
   80SBC   C03E56057   9.607   6.991  14.509
   80SBC   C03G56058   9.729   7.029  14.552
   80SBC   C04Q56059   9.768   6.984  14.675
   80SBC   C04R56060   9.892   7.012  14.734
   80SBC   C04S56061   9.935   6.953  14.849
   80SBC   C04L56062   9.842   6.874  14.918
   80SBC   C04M56063   9.715   6.849  14.872
   80SBC   C04K56064   9.879   6.819  15.042
   80SBC   C04F56065  10.006   6.840  15.091
   80SBC   C04E56066  10.101   6.909  15.011
   80SBC   C04D56067  10.230   6.919  15.063
   80SBC   C05056068  10.324   6.982  14.983
   80SBC   C05156069  10.455   6.996  15.036
   80SBC   C05Q56070  10.544   7.073  14.961
   80SBC   C05V56071  10.661   7.112  15.028
   80SBC   N00556072  10.749   7.203  14.963
   80SBC   C07V56073  10.718   7.250  14.835
   80SBC   C08256074  10.786   7.361  14.783
   80SBC   C08156075  10.884   7.431  14.858
   80SBC   C07C56076  10.915   7.384  14.990
   80SBC   C07B56077  11.008   7.456  15.070
   80SBC   C08056078  11.066   7.579  15.022
   80SBC   C07Z56079  11.151   7.633  15.111
   80SBC   H00L56080  11.197   7.725  15.080
   80SBC   C07956081  11.202   7.577  15.230
   80SBC   C07856082  11.147   7.451  15.270
   80SBC   C07756083  11.189   7.391  15.393
   80SBC   C07X56084  11.291   7.449  15.474
   80SBC   H00I56085  11.322   7.412  15.571
   80SBC   C07Y56086  11.350   7.569  15.430
   80SBC   H00H56087  11.428   7.611  15.492
   80SBC   C07656088  11.128   7.273  15.431
   80SBC   C06C56089  11.166   7.202  15.552
   80SBC   H00C56090  11.243   7.227  15.623
   80SBC   C06F56091  11.025   7.217  15.351
   80SBC   C06E56092  10.956   7.106  15.390
   80SBC   C06G56093  10.853   7.043  15.328
   80SBC   C06H56094  10.811   7.104  15.211
   80SBC   C06I56095  10.882   7.214  15.161
   80SBC   C06L56096  10.775   6.945  15.395
   80SBC   C06M56097  10.820   6.876  15.511
   80SBC   C06K56098  10.650   6.920  15.339
   80SBC   C05S56099  10.610   6.975  15.217
   80SBC   C05U56100  10.556   6.847  15.411
   80SBC   C05X56101  10.595   6.777  15.537
   80SBC   C05G56102  10.485   6.702  15.598
   80SBC   C05F56103  10.355   6.715  15.551
   80SBC   C05E56104  10.275   6.620  15.610
   80SBC   C04856105  10.146   6.598  15.565
   80SBC   C05656106  10.070   6.502  15.628
   80SBC   C04556107   9.944   6.473  15.579
   80SBC   C04756108  10.105   6.665  15.452
   80SBC   C04956109  10.196   6.751  15.385
   80SBC   C04B56110  10.169   6.800  15.258
   80SBC   C04656111   9.987   6.638  15.400
   80SBC   C04H56112   9.955   6.701  15.285
   80SBC   C05D56113  10.344   6.553  15.713
   80SBC   C04A56114  10.323   6.770  15.428
   80SBC   C05T56115  10.425   6.832  15.361
   80SBC   C05556116  10.391   6.884  15.235
   80SBC   C06D56117  10.994   7.044  15.508
   80SBC   C07W56118  10.985   7.278  15.236
   80SBC   C08556119  11.300   7.629  15.318
   80SBC   H00M56120  11.344   7.722  15.284
   80SBC   C08456121  11.036   7.619  14.892
   80SBC   H00J56122  11.077   7.703  14.838
   80SBC   C07A56123  11.050   7.391  15.192
   80SBC   C08356124  10.943   7.550  14.822
   80SBC   H00K56125  10.927   7.594  14.724
   80SBC   O00K56126  10.768   7.400  14.649
   80SBC   C0GO56127  10.645   7.376  14.601
   80SBC   C0GN56128  10.608   7.442  14.485
   80SBC   H01L56129  10.683   7.512  14.451
   80SBC   C0GM56130  10.474   7.432  14.447
   80SBC   C0GL56131  10.434   7.509  14.341
   80SBC   H01M56132  10.512   7.572  14.300
   80SBC   O00J56133  10.310   7.505  14.282
   80SBC   C0GK56134  10.225   7.419  14.345
   80SBC   H01N56135  10.124   7.436  14.310
   80SBC   C05K56136  10.262   7.329  14.442
   80SBC   C05J56137  10.163   7.241  14.502
   80SBC   C04Y56138  10.035   7.212  14.451
   80SBC   C04X56139   9.942   7.135  14.524
   80SBC   O00656140   9.990   7.262  14.330
   80SBC   C05356141   9.862   7.248  14.279
   80SBC   C04O56142   9.773   7.163  14.347
   80SBC   C03C56143   9.641   7.122  14.307
   80SBC   C03B56144   9.554   7.141  14.198
   80SBC   C05456145   9.577   7.219  14.091
   80SBC   C0GR56146   9.488   7.236  13.979
   80SBC   C03M56147   9.354   7.185  13.939
   80SBC   C03I56148   9.267   7.100  14.016
   80SBC   C03J56149   9.132   7.076  13.975
   80SBC   N00256150   9.048   6.987  14.052
   80SBC   C02U56151   8.911   6.961  14.002
   80SBC   C02T56152   8.829   6.874  14.071
   80SBC   C02Z56153   8.696   6.863  14.036
   80SBC   N00156154   8.604   6.787  14.115
   80SBC   C02R56155   8.462   6.795  14.101
   80SBC   C03256156   8.417   6.891  14.012
   80SBC   C03156157   8.507   6.953  13.919
   80SBC   H00756158   8.470   7.017  13.840
   80SBC   C03356159   8.272   6.915  14.022
   80SBC   H00356160   8.227   6.981  13.949
   80SBC   O00456161   8.191   6.867  14.122
   80SBC   C03456162   8.241   6.759  14.190
   80SBC   C03556163   8.143   6.684  14.266
   80SBC   C03656164   8.191   6.577  14.340
   80SBC   H00556165   8.117   6.529  14.401
   80SBC   C03756166   8.330   6.554  14.349
   80SBC   H00656167   8.371   6.491  14.427
   80SBC   C00D56168   8.429   6.629  14.279
   80SBC   C00C56169   8.561   6.612  14.292
   80SBC   C00B56170   8.620   6.511  14.387
   80SBC   C00A56171   8.582   6.435  14.518
   80SBC   C00956172   8.700   6.444  14.597
   80SBC   C00856173   8.728   6.397  14.728
   80SBC   C00756174   8.658   6.282  14.767
   80SBC   C00656175   8.694   6.219  14.889
   80SBC   C00556176   8.635   6.092  14.915
   80SBC   C00456177   8.528   6.045  14.838
   80SBC   C00356178   8.479   6.122  14.731
   80SBC   C00256179   8.379   6.068  14.650
   80SBC   C01C56180   8.315   5.950  14.689
   80SBC   C01B56181   8.191   5.915  14.637
   80SBC   H00056182   8.137   5.983  14.573
   80SBC   C00156183   8.348   6.130  14.532
   80SBC   C00056184   8.436   6.230  14.477
   80SBC   C01U56185   8.384   6.253  14.346
   80SBC   H00256186   8.418   6.323  14.271
   80SBC   C01T56187   8.264   6.175  14.333
   80SBC   O00256188   8.175   6.171  14.249
   80SBC   O00156189   8.259   6.099  14.443
   80SBC   C01S56190   8.549   6.239  14.690
   80SBC   C00N56191   8.847   6.431  14.790
   80SBC   C00M56192   8.939   6.512  14.726
   80SBC   C00J56193   8.916   6.544  14.594
   80SBC   C00I56194   9.001   6.628  14.519
   80SBC   C00H56195   8.969   6.673  14.391
   80SBC   C00G56196   8.844   6.642  14.342
   80SBC   C00F56197   8.791   6.713  14.246
   80SBC   C01X56198   9.049   6.773  14.333
   80SBC   C01W56199   9.174   6.802  14.392
   80SBC   C01V56200   9.213   6.747  14.513
   80SBC   C02056201   9.322   6.787  14.577
   80SBC   C01Z56202   9.254   6.885  14.328
   80SBC   C02Y56203   9.366   6.923  14.396
   80SBC   C03956204   9.452   7.009  14.331
   80SBC   C02W56205   9.222   6.952  14.210
   80SBC   C01Y56206   9.007   6.833  14.223
   80SBC   C00U56207   9.122   6.670  14.581
   80SBC   C00S56208   9.149   6.628  14.712
   80SBC   C00T56209   9.269   6.663  14.768
   80SBC   C00R56210   9.058   6.552  14.783
   80SBC   C00Q56211   9.087   6.509  14.908
   80SBC   C00V56212   9.210   6.542  14.961
   80SBC   C02456213   9.244   6.483  15.081
   80SBC   C00X56214   9.156   6.408  15.150
   80SBC   C00P56215   8.992   6.431  14.972
   80SBC   C00O56216   8.876   6.382  14.909
   80SBC   C00K56217   8.792   6.516  14.538
   80SBC   N00056218   8.528   6.303  14.555
   80SBC   C00L56219   8.755   6.554  14.415
   80SBC   H00456220   8.040   6.714  14.269
   80SBC   C02Q56221   8.379   6.727  14.192
   80SBC   C00E56222   8.649   6.697  14.219
   80SBC   C03056223   8.646   6.935  13.927
   80SBC   O00356224   8.730   7.004  13.847
   80SBC   C02S56225   8.875   6.799  14.174
   80SBC   C03856226   8.865   7.023  13.885
   80SBC   C03L56227   8.954   7.107  13.812
   80SBC   H00856228   8.916   7.147  13.719
   80SBC   C02V56229   9.093   6.925  14.160
   80SBC   C03K56230   9.082   7.137  13.855
   80SBC   C0BK56231   9.171   7.220  13.781
   80SBC   H00T56232   9.141   7.270  13.690
   80SBC   C03H56233   9.307   7.038  14.141
   80SBC   C0BL56234   9.307   7.241  13.816
   80SBC   C0GU56235   9.389   7.328  13.748
   80SBC   H01O56236   9.351   7.376  13.658
   80SBC   C0GT56237   9.517   7.380  13.784
   80SBC   H01P56238   9.562   7.462  13.729
   80SBC   C0GS56239   9.559   7.323  13.896
   80SBC   C0GV56240   9.683   7.356  13.955
   80SBC   C0GW56241   9.783   7.447  13.916
   80SBC   H01Q56242   9.762   7.506  13.828
   80SBC   C0GX56243   9.901   7.447  13.984
   80SBC   H01R56244   9.975   7.518  13.952
   80SBC   O00L56245   9.929   7.374  14.094
   80SBC   C0GQ56246   9.701   7.287  14.075
   80SBC   C03A56247   9.433   7.064  14.208
   80SBC   C05L56248   9.830   7.300  14.151
   80SBC   C04W56249  10.203   7.173  14.622
   80SBC   C05I56250  10.336   7.177  14.666
   80SBC   C05O56251  10.430   7.253  14.604
   80SBC   C05256252  10.382   7.111  14.783
   80SBC   C04V56253  10.117   7.096  14.698
   80SBC   C04U56254  10.152   7.037  14.816
   80SBC   N00956255  10.391   7.333  14.491
   80SBC   C0GP56256  10.559   7.278  14.661
   80SBC   C05W56257  10.599   7.208  14.776
   80SBC   C07D56258  10.852   7.264  15.038
   80SBC   C06J56259  10.696   7.062  15.149
   80SBC   C05P56260  10.515   7.119  14.834
   80SBC   C05R56261  10.484   6.948  15.162
   80SBC   C04Z56262  10.286   7.043  14.861
   80SBC   C04C56263  10.261   6.867  15.186
   80SBC   C04G56264  10.043   6.782  15.211
   80SBC   C04J56265   9.791   6.736  15.112
   80SBC   C04T56266  10.064   6.963  14.894
   80SBC   N00356267   9.985   7.081  14.646
   80SBC   C04P56268   9.813   7.111  14.478
   80SBC   C03D56269   9.573   7.032  14.383
   80SBC   C02156270   9.404   6.873  14.514
   80SBC   C03F56271   9.686   6.901  14.748
   80SBC   C02256272   9.359   6.744  14.703
   80SBC   C02A56273   9.633   6.759  14.942
   80SBC   C02356274   9.301   6.610  14.891
   80SBC   C02556275   9.367   6.507  15.136
   80SBC   C02D56276   9.411   6.438  15.248
   80SBC   C02E56277   9.323   6.354  15.314
   80SBC   C02N56278   9.365   6.274  15.424
   80SBC   C04N56279   9.667   6.705  15.065
   80SBC   C02P56280   9.540   6.458  15.301
   80SBC   C04I56281   9.829   6.678  15.233
   80SBC   C04456282   9.905   6.543  15.461
   80SBC   C04356283   9.573   6.388  15.416
   80SBC   C05N56284   9.491   6.288  15.473
   80SBC   C09U56285   9.648   6.057  15.790
   80SBC   C09V56286   9.711   5.977  15.887
   80SBC   C09X56287   9.645   5.868  15.946
   80SBC   C09Y56288   9.704   5.764  16.016
   80SBC   C0A156289   9.836   5.771  16.039
   80SBC   C0A256290   9.906   5.880  15.995
   80SBC   C0A456291  10.043   5.893  16.021
   80SBC   C07156292  10.114   6.008  15.988
   80SBC   C0A556293  10.251   6.016  16.006
   80SBC   C0A956294  10.314   5.906  16.065
   80SBC   C0A856295  10.244   5.790  16.100
   80SBC   C0AP56296  10.312   5.683  16.150
   80SBC   C0BY56297  10.238   5.571  16.182
   80SBC   C0BX56298  10.102   5.564  16.172
   80SBC   C0C256299  10.035   5.449  16.219
   80SBC   C0C356300   9.899   5.438  16.195
   80SBC   C0CT56301   9.832   5.541  16.127
   80SBC   C0C156302  10.101   5.337  16.279
   80SBC   C0C056303  10.246   5.339  16.275
   80SBC   C0A756304  10.040   5.673  16.119
   80SBC   C0BZ56305  10.310   5.453  16.223
   80SBC   C0BO56306  10.442   5.459  16.233
   80SBC   C0BN56307  10.512   5.576  16.208
   80SBC   C0BM56308  10.646   5.568  16.227
   80SBC   C0B956309  10.723   5.676  16.193
   80SBC   C0B856310  10.659   5.783  16.140
   80SBC   C0AD56311  10.521   5.790  16.124
   80SBC   C0AF56312  10.733   5.892  16.103
   80SBC   C0AG56313  10.873   5.894  16.107
   80SBC   C0B756314  10.934   5.777  16.151
   80SBC   C0AE56315  10.657   6.003  16.062
   80SBC   C0AB56316  10.524   6.012  16.042
   80SBC   C0AA56317  10.459   6.127  15.995
   80SBC   C0AJ56318  10.728   6.117  16.035
   80SBC   C0AK56319  10.672   6.229  15.980
   80SBC   C06W56320  10.772   6.303  15.925
   80SBC   C0AI56321  10.869   6.116  16.017
   80SBC   C0BP56322  10.487   5.341  16.281
   80SBC   C0BQ56323  10.628   5.328  16.303
   80SBC   C0BW56324  10.445   5.684  16.168
   80SBC   C0AC56325  10.455   5.904  16.081
   80SBC   C0A656326  10.106   5.787  16.078
   80SBC   C0A356327   9.902   5.664  16.103
   80SBC   C09Z56328   9.637   5.643  16.049
   80SBC   C09W56329   9.846   5.983  15.918
   80SBC   C07256330   9.918   6.088  15.870
   80SBC   C09H56331   9.512   5.863  15.911
   80SBC   C09G56332   9.451   5.749  15.952
   80SBC   C09P56333   9.321   5.756  15.903
   80SBC   C02O56334   9.226   5.988  15.611
   80SBC   C02M56335   9.278   6.173  15.469
   80SBC   C02F56336   9.195   6.341  15.263
   80SBC   C00W56337   9.028   6.393  15.099
   80SBC   C01R56338   8.796   6.286  14.965
   80SBC   C01N56339   8.906   6.135  15.276
   80SBC   C01L56340   8.856   5.911  15.341
   80SBC   C01H56341   8.617   5.681  15.200
   80SBC   C01K56342   8.666   6.008  15.031
   80SBC   C01E56343   8.471   5.919  14.869
   80SBC   C01G56344   8.515   5.617  15.109
   80SBC   C01D56345   8.363   5.880  14.793
   80SBC   C01A56346   8.136   5.789  14.662
   80SBC   H00156347   8.041   5.766  14.615
   80SBC   C01F56348   8.301   5.537  14.941
   80SBC   C03P56349   8.191   5.279  14.954
   80SBC   C03T56350   8.348   5.216  15.117
   80SBC   C08I56351   8.463   5.053  15.314
   80SBC   C08J56352   8.525   4.984  15.416
   80SBC   C08L56353   8.697   4.967  15.594
   80SBC   C09356354   8.884   4.956  15.764
   80SBC   C08Z56355   8.900   5.234  15.751
   80SBC   C09T56356   9.251   5.091  16.038
   80SBC   C09S56357   9.087   5.389  15.939
   80SBC   C09Q56358   9.235   5.642  15.913
   80SBC   C09F56359   9.503   5.636  16.016
   80SBC   C09E56360   9.394   5.292  16.078
   80SBC   C0A056361   9.696   5.528  16.096
   80SBC   C0CU56362   9.826   5.312  16.221
   80SBC   C0CR56363   9.892   5.212  16.295
   80SBC   C0CZ56364   9.824   5.095  16.339
   80SBC   C0DA56365   9.397   5.147  16.077
   80SBC   C0D956366   9.520   4.822  16.140
   80SBC   H00V56367   9.478   4.789  16.045
   80SBC   C0CY56368   9.690   5.077  16.283
   80SBC   C0DF56369   9.595   4.742  16.233
   80SBC   C0DE56370   9.659   4.620  16.269
   80SBC   C0GI56371   9.624   4.488  16.234
   80SBC   H01K56372   9.540   4.471  16.168
   80SBC   C0GJ56373   9.696   4.391  16.291
   80SBC   H01J56374   9.668   4.287  16.278
   80SBC   O00I56375   9.811   4.411  16.368
   80SBC   C0GH56376   9.848   4.539  16.408
   80SBC   C0GG56377   9.980   4.557  16.454
   80SBC   O00G56378  10.053   4.445  16.489
   80SBC   C0G856379  10.184   4.433  16.447
   80SBC   C0G956380  10.228   4.303  16.425
   80SBC   H01G56381  10.156   4.224  16.443
   80SBC   C0GA56382  10.360   4.291  16.382
   80SBC   H01H56383  10.385   4.191  16.349
   80SBC   C0GB56384  10.438   4.407  16.361
   80SBC   C0EP56385  10.390   4.538  16.407
   80SBC   C0E856386  10.480   4.651  16.378
   80SBC   C0CK56387  10.489   4.789  16.406
   80SBC   C0CL56388  10.396   4.853  16.490
   80SBC   C0E956389  10.265   4.797  16.510
   80SBC   C0GE56390  10.192   4.670  16.489
   80SBC   C0E756391  10.598   4.631  16.302
   80SBC   C0CJ56392  10.680   4.751  16.282
   80SBC   C0E656393  10.791   4.747  16.193
   80SBC   H00Y56394  10.841   4.839  16.167
   80SBC   C0EO56395  10.830   4.614  16.155
   80SBC   H01156396  10.931   4.600  16.118
   80SBC   C0G656397  10.759   4.495  16.186
   80SBC   C0G556398  10.794   4.363  16.146
   80SBC   H01F56399  10.888   4.345  16.095
   80SBC   C0GD56400  10.718   4.256  16.184
   80SBC   H01I56401  10.764   4.160  16.173
   80SBC   O00H56402  10.603   4.270  16.252
   80SBC   C0EQ56403  10.638   4.506  16.259
   80SBC   C0GC56404  10.563   4.395  16.289
   80SBC   C0G756405  10.261   4.551  16.456
   80SBC   C0DD56406   9.765   4.642  16.367
   80SBC   C0GF56407  10.046   4.673  16.493
   80SBC   C0CO56408  10.201   4.913  16.545
   80SBC   C0D056409   9.896   4.996  16.419
   80SBC   C0C456410  10.027   5.230  16.337
   80SBC   C0CN56411  10.277   5.029  16.559
   80SBC   C0CP56412  10.362   5.272  16.319
   80SBC   C0CM56413  10.406   4.993  16.526
   80SBC   C0CI56414  10.617   4.846  16.358
   80SBC   C0CD56415  11.026   5.073  16.359
   80SBC   C0BR56416  10.684   5.211  16.343
   80SBC   C0CS56417  10.704   5.444  16.269
   80SBC   C0B656418  10.860   5.670  16.201
   80SBC   C0CG56419  11.042   5.309  16.300
   80SBC   C0CF56420  11.104   5.185  16.328
   80SBC   C0E556421  11.218   4.927  16.339
   80SBC   C0DT56422  11.478   4.890  16.259
   80SBC   C0DL56423  11.456   5.256  16.241
   80SBC   C0DM56424  11.535   5.358  16.189
   80SBC   C0DY56425  11.720   5.214  16.145
   80SBC   C0DU56426  11.609   4.875  16.225
   80SBC   C0F056427  11.767   4.727  16.127
   80SBC   C0F456428  11.965   4.691  15.943
   80SBC   C0FG56429  12.025   5.030  16.071
   80SBC   O00B56430  12.151   4.796  15.831
   80SBC   C0FN56431  12.095   5.116  15.993
   80SBC   C0DZ56432  11.850   5.189  16.092
   80SBC   O00C56433  11.928   5.518  15.971
   80SBC   C0FR56434  11.885   5.646  15.957
   80SBC   O00D56435  11.965   5.721  15.899
   80SBC   C0E056436  11.662   5.337  16.142
   80SBC   C0E356437  11.756   5.668  16.010
   80SBC   C0AW56438  11.699   5.797  15.994
   80SBC   C0AV56439  11.762   5.916  15.944
   80SBC   H00Q56440  11.856   5.919  15.890
   80SBC   C0AU56441  11.694   6.040  15.936
   80SBC   H00R56442  11.749   6.123  15.895
   80SBC   C0AT56443  11.562   6.038  15.960
   80SBC   C0AS56444  11.457   6.136  15.954
   80SBC   C0AR56445  11.484   6.274  15.932
   80SBC   C0BE56446  11.499   5.925  16.013
   80SBC   C0DN56447  11.475   5.485  16.177
   80SBC   C0AX56448  11.570   5.808  16.039
   80SBC   C0BB56449  11.276   5.626  16.174
   80SBC   C0BD56450  11.366   5.949  16.038
   80SBC   C0B256451  11.069   5.766  16.143
   80SBC   C0AH56452  10.950   6.002  16.057
   80SBC   C0BF56453  11.328   6.076  15.988
   80SBC   C0AL56454  10.898   6.242  15.954
   80SBC   C07U56455  11.238   6.345  15.890
   80SBC   C0AQ56456  11.380   6.358  15.886
   80SBC   C0BG56457  11.604   6.349  15.927
   80SBC   C0FY56458  11.624   6.705  15.946
   80SBC   C0BJ56459  11.686   6.382  16.041
   80SBC   H00S56460  11.716   6.316  16.121
   80SBC   C0FZ56461  11.687   6.739  16.063
   80SBC   C07S56462  11.510   6.777  15.905
   80SBC   C0G156463  11.559   7.077  16.130
   80SBC   C07K56464  11.266   7.212  15.952
   80SBC   C07H56465  11.276   6.943  15.848
   80SBC   C06B56466  11.095   7.090  15.589
   80SBC   C06N56467  10.940   6.929  15.557
   80SBC   C06656468  11.162   6.716  15.791
   80SBC   C06256469  10.931   6.520  15.778
   80SBC   C05Y56470  10.735   6.785  15.572
   80SBC   C06156471  10.806   6.462  15.745
   80SBC   C05H56472  10.475   6.610  15.712
   80SBC   C06V56473  10.723   6.389  15.833
   80SBC   C06Y56474  10.530   6.234  15.954
   80SBC   C05C56475  10.270   6.438  15.771
   80SBC   C06Z56476  10.321   6.129  15.969
   80SBC   C07056477  10.048   6.111  15.911
   80SBC   C05B56478  10.131   6.419  15.730
   80SBC   C05756479   9.868   6.373  15.635
   80SBC   C05956480   9.852   6.181  15.784
   81SBC   C05856481   6.911   5.152   6.609
   81SBC   C05A56482   6.869   5.271   6.548
   81SBC   C06Q56483   6.749   5.282   6.478
   81SBC   C06R56484   6.703   5.403   6.428
   81SBC   C06S56485   6.779   5.519   6.433
   81SBC   C06T56486   6.726   5.639   6.375
   81SBC   C06U56487   6.784   5.777   6.371
   81SBC   C06X56488   6.901   5.837   6.428
   81SBC   C06056489   6.916   5.976   6.384
   81SBC   C05Z56490   6.965   6.097   6.456
   81SBC   C06856491   6.866   6.203   6.412
   81SBC   C06756492   6.869   6.351   6.431
   81SBC   C06956493   6.983   6.414   6.505
   81SBC   C06A56494   7.013   6.556   6.517
   81SBC   C07356495   7.005   6.658   6.418
   81SBC   C07P56496   7.114   6.744   6.395
   81SBC   C07O56497   7.249   6.712   6.434
   81SBC   H00D56498   7.282   6.615   6.465
   81SBC   C07N56499   7.353   6.804   6.433
   81SBC   H00E56500   7.454   6.784   6.466
   81SBC   C07M56501   7.320   6.930   6.376
   81SBC   H00F56502   7.392   7.011   6.374
   81SBC   C07L56503   7.196   6.958   6.311
   81SBC   C07Q56504   7.161   7.078   6.232
   81SBC   H00G56505   7.232   7.159   6.219
   81SBC   O00F56506   7.036   7.091   6.171
   81SBC   C07J56507   6.937   7.008   6.204
   81SBC   C07I56508   6.964   6.889   6.278
   81SBC   N00456509   6.853   6.804   6.309
   81SBC   C07R56510   6.723   6.850   6.270
   81SBC   C07T56511   6.704   6.970   6.204
   81SBC   C0FX56512   6.583   7.003   6.149
   81SBC   C0FW56513   6.561   7.098   6.051
   81SBC   C0G056514   6.675   7.182   6.011
   81SBC   C0G256515   6.662   7.288   5.916
   81SBC   H01E56516   6.749   7.351   5.904
   81SBC   C0G356517   6.539   7.304   5.846
   81SBC   H01C56518   6.513   7.382   5.776
   81SBC   C0G456519   6.430   7.220   5.890
   81SBC   H01D56520   6.332   7.231   5.846
   81SBC   O00E56521   6.794   7.150   6.073
   81SBC   C0FV56522   6.436   7.112   5.988
   81SBC   C0FU56523   6.332   7.021   6.024
   81SBC   H01B56524   6.233   7.018   5.981
   81SBC   C0FT56525   6.348   6.939   6.134
   81SBC   C0FS56526   6.274   6.830   6.194
   81SBC   C0BI56527   6.355   6.781   6.308
   81SBC   C0BH56528   6.322   6.643   6.321
   81SBC   C07F56529   6.423   6.538   6.310
   81SBC   C07E56530   6.554   6.532   6.352
   81SBC   C07G56531   6.634   6.643   6.352
   81SBC   C07456532   6.760   6.594   6.383
   81SBC   C06556533   6.629   6.418   6.344
   81SBC   C06456534   6.569   6.306   6.291
   81SBC   C06356535   6.623   6.177   6.272
   81SBC   C07556536   6.509   6.101   6.210
   81SBC   C0AM56537   6.389   6.185   6.184
   81SBC   C0AN56538   6.265   6.150   6.111
   81SBC   C0AO56539   6.194   6.016   6.086
   81SBC   C0B156540   6.060   6.008   6.029
   81SBC   C0B056541   6.004   6.118   5.972
   81SBC   C0AZ56542   5.883   6.129   5.915
   81SBC   C0AY56543   5.831   6.251   5.870
   81SBC   N00756544   5.702   6.255   5.814
   81SBC   C0E256545   5.656   6.380   5.764
   81SBC   C0E156546   5.530   6.378   5.723
   81SBC   C0E456547   5.473   6.505   5.692
   81SBC   C0FF56548   5.338   6.523   5.669
   81SBC   C0FJ56549   5.248   6.639   5.672
   81SBC   C0FK56550   5.270   6.747   5.763
   81SBC   H01656551   5.361   6.778   5.812
   81SBC   C0FL56552   5.137   6.800   5.784
   81SBC   H01756553   5.104   6.868   5.861
   81SBC   C0FM56554   5.042   6.728   5.702
   81SBC   C0FH56555   4.907   6.676   5.703
   81SBC   C0FI56556   4.926   6.554   5.636
   81SBC   C0F356557   4.840   6.444   5.669
   81SBC   C0F256558   4.904   6.324   5.654
   81SBC   C0DW56559   5.039   6.301   5.633
   81SBC   C0FE56560   5.123   6.405   5.615
   81SBC   C0DV56561   5.096   6.177   5.655
   81SBC   C0DX56562   5.235   6.167   5.669
   81SBC   C0DK56563   5.287   6.045   5.712
   81SBC   C0DJ56564   5.200   5.935   5.734
   81SBC   C0DI56565   5.255   5.812   5.772
   81SBC   C0DH56566   5.392   5.801   5.800
   81SBC   C0DG56567   5.473   5.915   5.793
   81SBC   C0BV56568   5.605   5.904   5.841
   81SBC   C0BC56569   5.686   6.018   5.845
   81SBC   C0BA56570   5.652   5.780   5.885
   81SBC   C0B456571   5.783   5.778   5.943
   81SBC   C0B356572   5.860   5.890   5.953
   81SBC   C0B556573   5.833   5.658   5.995
   81SBC   C0BU56574   5.748   5.543   5.989
   81SBC   C0BT56575   5.616   5.547   5.939
   81SBC   C0BS56576   5.542   5.426   5.932
   81SBC   C0CC56577   5.406   5.437   5.887
   81SBC   C0CB56578   5.324   5.321   5.870
   81SBC   C0CH56579   5.197   5.348   5.810
   81SBC   C0DO56580   5.139   5.473   5.807
   81SBC   C0DP56581   4.998   5.491   5.805
   81SBC   C0EA56582   4.909   5.378   5.805
   81SBC   H01256583   4.945   5.286   5.762
   81SBC   O00956584   4.776   5.389   5.850
   81SBC   C0EH56585   4.729   5.518   5.858
   81SBC   C0EG56586   4.603   5.531   5.920
   81SBC   C0EJ56587   4.506   5.450   5.994
   81SBC   H01056588   4.520   5.346   6.020
   81SBC   C0EK56589   4.396   5.531   6.037
   81SBC   H00Z56590   4.314   5.505   6.102
   81SBC   C0EL56591   4.427   5.661   5.986
   81SBC   C0EM56592   4.362   5.787   6.005
   81SBC   C0EW56593   4.243   5.811   6.072
   81SBC   H01356594   4.200   5.726   6.123
   81SBC   C0EX56595   4.193   5.946   6.096
   81SBC   H01456596   4.111   5.967   6.164
   81SBC   C0F156597   4.259   6.061   6.036
   81SBC   C0EU56598   4.375   6.032   5.962
   81SBC   C0ET56599   4.462   6.124   5.895
   81SBC   C0ES56600   4.562   6.037   5.838
   81SBC   C0EE56601   4.538   5.901   5.867
   81SBC   C0ED56602   4.609   5.778   5.871
   81SBC   C0EC56603   4.745   5.762   5.829
   81SBC   C0EB56604   4.835   5.864   5.780
   81SBC   C0EN56605   4.788   6.000   5.747
   81SBC   C0ER56606   4.883   6.086   5.690
   81SBC   C0DS56607   4.975   5.843   5.764
   81SBC   C0DR56608   5.030   5.720   5.779
   81SBC   C0EY56609   4.670   6.077   5.762
   81SBC   C0EZ56610   4.696   6.218   5.733
   81SBC   C0F556611   4.639   6.350   5.774
   81SBC   C0F656612   4.517   6.366   5.850
   81SBC   N00856613   4.484   6.501   5.882
   81SBC   C0F756614   4.570   6.614   5.847
   81SBC   C0FQ56615   4.525   6.746   5.884
   81SBC   H01856616   4.599   6.823   5.867
   81SBC   C0FP56617   4.394   6.770   5.926
   81SBC   H01956618   4.367   6.872   5.951
   81SBC   C0FO56619   4.311   6.664   5.955
   81SBC   H01A56620   4.219   6.684   6.008
   81SBC   C0F856621   4.697   6.583   5.783
   81SBC   C0F956622   4.353   6.535   5.934
   81SBC   C0FA56623   4.266   6.430   5.981
   81SBC   H01556624   4.176   6.466   6.029
   81SBC   C0FB56625   4.308   6.295   5.966
   81SBC   C0FD56626   4.427   6.267   5.897
   81SBC   C0FC56627   4.220   6.195   6.034
   81SBC   O00A56628   4.113   6.230   6.094
   81SBC   C0EV56629   4.426   5.904   5.944
   81SBC   C0EF56630   4.552   5.664   5.925
   81SBC   C0EI56631   4.806   5.634   5.828
   81SBC   C0DQ56632   4.942   5.615   5.805
   81SBC   C0CE56633   5.222   5.578   5.817
   81SBC   H00U56634   5.148   5.256   5.782
   81SBC   C0CA56635   5.365   5.196   5.935
   81SBC   C0C956636   5.500   5.185   5.996
   81SBC   C0C856637   5.527   5.060   6.068
   81SBC   C0C756638   5.641   5.003   6.125
   81SBC   C0C656639   5.624   4.875   6.191
   81SBC   C0C556640   5.703   4.756   6.215
   81SBC   C0CQ56641   5.634   4.633   6.221
   81SBC   C0D156642   5.502   4.626   6.179
   81SBC   C0D856643   5.479   4.516   6.103
   81SBC   C0D756644   5.578   4.421   6.147
   81SBC   C0D656645   5.610   4.303   6.075
   81SBC   C0D556646   5.724   4.219   6.110
   81SBC   C0D456647   5.839   4.244   6.191
   81SBC   C0D356648   5.945   4.156   6.148
   81SBC   C0CX56649   6.077   4.221   6.186
   81SBC   C0CW56650   6.041   4.354   6.226
   81SBC   C0CV56651   6.099   4.475   6.285
   81SBC   C0D256652   6.225   4.468   6.348
   81SBC   C09D56653   6.274   4.353   6.414
   81SBC   C09C56654   6.369   4.361   6.519
   81SBC   C09B56655   6.438   4.252   6.570
   81SBC   C09A56656   6.409   4.120   6.513
   81SBC   C09956657   6.303   4.098   6.427
   81SBC   C09856658   6.330   3.986   6.346
   81SBC   C08Y56659   6.464   3.949   6.380
   81SBC   C08X56660   6.563   3.872   6.311
   81SBC   C08W56661   6.542   3.850   6.168
   81SBC   C08U56662   6.423   3.887   6.084
   81SBC   C08V56663   6.302   3.961   6.103
   81SBC   C0DC56664   6.224   3.952   5.986
   81SBC   H00W56665   6.121   3.986   5.979
   81SBC   C0DB56666   6.283   3.866   5.895
   81SBC   H00X56667   6.243   3.831   5.801
   81SBC   C08T56668   6.414   3.839   5.947
   81SBC   C08S56669   6.520   3.780   5.891
   81SBC   H00N56670   6.507   3.741   5.791
   81SBC   C08R56671   6.640   3.766   5.954
   81SBC   C08Q56672   6.762   3.741   5.884
   81SBC   H00O56673   6.763   3.716   5.779
   81SBC   C08P56674   6.889   3.712   5.934
   81SBC   C08O56675   7.003   3.663   5.862
   81SBC   H00P56676   7.008   3.658   5.754
   81SBC   C08N56677   7.118   3.623   5.937
   81SBC   C08M56678   7.233   3.574   5.859
   81SBC   O00856679   7.232   3.560   5.736
   81SBC   O00756680   7.345   3.544   5.930
   81SBC   C08H56681   7.349   3.553   6.070
   81SBC   C08G56682   7.465   3.521   6.139
   81SBC   C03V56683   7.588   3.474   6.097
   81SBC   H00956684   7.599   3.469   5.990
   81SBC   C03U56685   7.697   3.432   6.176
   81SBC   C03W56686   7.827   3.378   6.140
   81SBC   H00A56687   7.852   3.361   6.037
   81SBC   C03X56688   7.915   3.344   6.230
   81SBC   H00B56689   8.007   3.299   6.196
   81SBC   O00556690   7.904   3.372   6.362
   81SBC   C03O56691   7.788   3.426   6.403
   81SBC   C03N56692   7.781   3.462   6.540
   81SBC   O00056693   7.890   3.430   6.620
   81SBC   C01956694   7.901   3.502   6.734
   81SBC   C01856695   7.797   3.575   6.783
   81SBC   C01756696   7.676   3.588   6.712
   81SBC   C01656697   7.584   3.683   6.752
   81SBC   C01556698   7.624   3.763   6.860
   81SBC   C01456699   7.530   3.868   6.895
   81SBC   C01356700   7.399   3.866   6.846
   81SBC   C01256701   7.345   3.982   6.915
   81SBC   C01156702   7.442   4.030   7.009
   81SBC   C01056703   7.416   4.132   7.101
   81SBC   C00Z56704   7.518   4.205   7.160
   81SBC   C00Y56705   7.455   4.331   7.184
   81SBC   C01O56706   7.322   4.332   7.138
   81SBC   C01P56707   7.271   4.451   7.073
   81SBC   C02L56708   7.171   4.436   6.982
   81SBC   C02K56709   7.147   4.304   6.940
   81SBC   C01M56710   7.217   4.187   6.977
   81SBC   C02J56711   7.024   4.297   6.876
   81SBC   C02I56712   6.957   4.178   6.838
   81SBC   C02H56713   6.993   4.046   6.815
   81SBC   C01Q56714   7.120   3.993   6.838
   81SBC   C02G56715   7.122   3.872   6.763
   81SBC   C08956716   6.989   3.838   6.721
   81SBC   C08856717   6.992   3.767   6.598
   81SBC   C08756718   7.138   3.741   6.586
   81SBC   C08656719   7.206   3.692   6.472
   81SBC   C03S56720   7.339   3.640   6.470
   81SBC   N00656721   7.356   3.595   6.339
   81SBC   C08F56722   7.247   3.618   6.265
   81SBC   C01J56723   7.453   3.633   6.555
   81SBC   C03R56724   7.566   3.564   6.499
   81SBC   C03Q56725   7.571   3.522   6.365
   81SBC   C08E56726   7.149   3.673   6.341
   81SBC   C08D56727   7.021   3.709   6.289
   81SBC   C08K56728   7.008   3.690   6.147
   81SBC   C08C56729   6.907   3.748   6.355
   81SBC   C09156730   6.788   3.776   6.289
   81SBC   C09256731   6.777   3.768   6.145
   81SBC   C08B56732   6.883   3.775   6.492
   81SBC   C09056733   6.743   3.823   6.511
   81SBC   C09456734   6.706   3.922   6.611
   81SBC   C09556735   6.605   4.022   6.589
   81SBC   C09R56736   6.629   4.137   6.663
   81SBC   C09756737   6.751   4.120   6.723
   81SBC   C09656738   6.791   3.991   6.698
   81SBC   C01I56739   7.222   3.788   6.699
   81SBC   C08A56740   6.912   3.953   6.747
   81SBC   C09L56741   6.834   4.216   6.793
   81SBC   C09K56742   6.825   4.355   6.796
   81SBC   C09J56743   6.714   4.444   6.763
   81SBC   C09I56744   6.725   4.582   6.723
   81SBC   C09O56745   6.825   4.686   6.729
   81SBC   C09N56746   6.949   4.668   6.796
   81SBC   C09M56747   7.002   4.548   6.856
   81SBC   C06O56748   7.028   4.787   6.806
   81SBC   C05M56749   6.989   4.909   6.740
   81SBC   C06P56750   6.872   4.917   6.667
   81SBC   C04256751   7.061   5.027   6.757
   81SBC   C04156752   7.172   5.028   6.847
   81SBC   C04056753   7.243   5.149   6.865
   81SBC   C03Z56754   7.350   5.156   6.955
   81SBC   C03Y56755   7.385   5.041   7.025
   81SBC   C02756756   7.503   5.040   7.099
   81SBC   C02656757   7.556   4.919   7.142
   81SBC   C02856758   7.685   4.917   7.202
   81SBC   C02956759   7.762   5.032   7.205
   81SBC   C02B56760   7.892   5.025   7.260
   81SBC   C02C56761   7.970   5.140   7.256
   81SBC   C02X56762   8.105   5.131   7.269
   81SBC   C03E56763   8.180   5.247   7.258
   81SBC   C03G56764   8.138   5.369   7.219
   81SBC   C04Q56765   8.002   5.377   7.201
   81SBC   C04R56766   7.946   5.494   7.158
   81SBC   C04S56767   7.816   5.503   7.119
   81SBC   C04L56768   7.741   5.387   7.116
   81SBC   C04M56769   7.792   5.266   7.163
   81SBC   C04K56770   7.616   5.388   7.060
   81SBC   C04F56771   7.576   5.503   6.990
   81SBC   C04E56772   7.647   5.622   7.002
   81SBC   C04D56773   7.600   5.740   6.943
   81SBC   C05056774   7.671   5.856   6.952
   81SBC   C05156775   7.614   5.977   6.908
   81SBC   C05Q56776   7.669   6.094   6.951
   81SBC   C05V56777   7.603   6.207   6.930
   81SBC   N00556778   7.657   6.328   6.977
   81SBC   C07V56779   7.788   6.327   7.035
   81SBC   C08256780   7.847   6.445   7.078
   81SBC   C08156781   7.776   6.566   7.081
   81SBC   C07C56782   7.643   6.556   7.030
   81SBC   C07B56783   7.562   6.671   7.031
   81SBC   C08056784   7.609   6.791   7.088
   81SBC   C07Z56785   7.520   6.901   7.095
   81SBC   H00L56786   7.561   6.997   7.124
   81SBC   C07956787   7.396   6.906   7.028
   81SBC   C07856788   7.359   6.790   6.963
   81SBC   C07756789   7.240   6.792   6.896
   81SBC   C07X56790   7.164   6.909   6.882
   81SBC   H00I56791   7.063   6.902   6.844
   81SBC   C07Y56792   7.197   7.031   6.942
   81SBC   H00H56793   7.129   7.115   6.945
   81SBC   C07656794   7.205   6.688   6.813
   81SBC   C06C56795   7.106   6.697   6.715
   81SBC   H00C56796   7.077   6.795   6.678
   81SBC   C06F56797   7.276   6.565   6.823
   81SBC   C06E56798   7.234   6.450   6.758
   81SBC   C06G56799   7.298   6.329   6.763
   81SBC   C06H56800   7.414   6.331   6.840
   81SBC   C06I56801   7.460   6.444   6.910
   81SBC   C06L56802   7.245   6.215   6.698
   81SBC   C06M56803   7.131   6.219   6.609
   81SBC   C06K56804   7.307   6.093   6.732
   81SBC   C05S56805   7.426   6.096   6.810
   81SBC   C05U56806   7.252   5.972   6.693
   81SBC   C05X56807   7.140   5.968   6.600
   81SBC   C05G56808   7.092   5.830   6.572
   81SBC   C05F56809   7.157   5.724   6.626
   81SBC   C05E56810   7.103   5.604   6.595
   81SBC   C04856811   7.137   5.484   6.662
   81SBC   C05656812   7.055   5.380   6.646
   81SBC   C04556813   7.089   5.264   6.714
   81SBC   C04756814   7.246   5.488   6.744
   81SBC   C04956815   7.306   5.608   6.773
   81SBC   C04B56816   7.416   5.614   6.854
   81SBC   C04656817   7.280   5.376   6.814
   81SBC   C04H56818   7.395   5.381   6.895
   81SBC   C05D56819   6.986   5.624   6.526
   81SBC   C04A56820   7.259   5.730   6.720
   81SBC   C05T56821   7.311   5.855   6.747
   81SBC   C05556822   7.424   5.857   6.824
   81SBC   C06D56823   7.132   6.458   6.666
   81SBC   C07W56824   7.393   6.562   6.904
   81SBC   C08556825   7.312   7.022   7.024
   81SBC   H00M56826   7.350   7.106   7.081
   81SBC   C08456827   7.738   6.798   7.140
   81SBC   H00J56828   7.776   6.891   7.180
   81SBC   C07A56829   7.439   6.674   6.972
   81SBC   C08356830   7.823   6.687   7.126
   81SBC   H00K56831   7.929   6.695   7.143
   81SBC   O00K56832   7.987   6.442   7.107
   81SBC   C0GO56833   8.052   6.326   7.104
   81SBC   C0GN56834   8.192   6.326   7.128
   81SBC   H01L56835   8.242   6.419   7.149
   81SBC   C0GM56836   8.266   6.204   7.132
   81SBC   C0GL56837   8.399   6.207   7.153
   81SBC   H01M56838   8.454   6.297   7.176
   81SBC   O00J56839   8.471   6.086   7.164
   81SBC   C0GK56840   8.393   5.966   7.168
   81SBC   H01N56841   8.443   5.875   7.196
   81SBC   C05K56842   8.262   5.965   7.134
   81SBC   C05J56843   8.195   5.836   7.132
   81SBC   C04Y56844   8.249   5.707   7.134
   81SBC   C04X56845   8.171   5.596   7.152
   81SBC   O00656846   8.383   5.684   7.124
   81SBC   C05356847   8.443   5.557   7.130
   81SBC   C04O56848   8.365   5.449   7.177
   81SBC   C03C56849   8.408   5.317   7.211
   81SBC   C03B56850   8.532   5.242   7.194
   81SBC   C05456851   8.638   5.297   7.116
   81SBC   C0GR56852   8.751   5.220   7.083
   81SBC   C03M56853   8.798   5.080   7.108
   81SBC   C03I56854   8.715   4.971   7.152
   81SBC   C03J56855   8.774   4.840   7.158
   81SBC   N00256856   8.687   4.723   7.187
   81SBC   C02U56857   8.746   4.596   7.189
   81SBC   C02T56858   8.668   4.483   7.191
   81SBC   C02Z56859   8.721   4.361   7.164
   81SBC   N00156860   8.638   4.246   7.157
   81SBC   C02R56861   8.693   4.127   7.105
   81SBC   C03256862   8.832   4.116   7.071
   81SBC   C03156863   8.912   4.232   7.087
   81SBC   H00756864   9.018   4.232   7.068
   81SBC   C03356865   8.876   3.987   7.040
   81SBC   H00356866   8.981   3.962   7.044
   81SBC   O00456867   8.785   3.890   7.000
   81SBC   C03456868   8.651   3.902   7.028
   81SBC   C03556869   8.561   3.807   6.974
   81SBC   C03656870   8.426   3.823   6.984
   81SBC   H00556871   8.360   3.748   6.943
   81SBC   C03756872   8.384   3.939   7.055
   81SBC   H00656873   8.280   3.969   7.051
   81SBC   C00D56874   8.467   4.032   7.117
   81SBC   C00C56875   8.416   4.141   7.188
   81SBC   C00B56876   8.274   4.159   7.234
   81SBC   C00A56877   8.145   4.083   7.237
   81SBC   C00956878   8.049   4.176   7.285
   81SBC   C00856879   7.910   4.178   7.258
   81SBC   C00756880   7.864   4.071   7.182
   81SBC   C00656881   7.732   4.076   7.143
   81SBC   C00556882   7.689   3.964   7.062
   81SBC   C00456883   7.774   3.859   7.023
   81SBC   C00356884   7.897   3.851   7.086
   81SBC   C00256885   7.977   3.739   7.064
   81SBC   C01C56886   7.944   3.644   6.965
   81SBC   C01B56887   8.038   3.550   6.924
   81SBC   H00056888   8.135   3.544   6.971
   81SBC   C00156889   8.096   3.731   7.133
   81SBC   C00056890   8.142   3.842   7.202
   81SBC   C01U56891   8.250   3.797   7.278
   81SBC   H00256892   8.319   3.847   7.344
   81SBC   C01T56893   8.257   3.654   7.259
   81SBC   O00256894   8.343   3.574   7.302
   81SBC   O00156895   8.154   3.618   7.170
   81SBC   C01S56896   7.943   3.960   7.160
   81SBC   C00N56897   7.847   4.305   7.276
   81SBC   C00M56898   7.917   4.419   7.312
   81SBC   C00J56899   8.049   4.416   7.331
   81SBC   C00I56900   8.128   4.529   7.319
   81SBC   C00H56901   8.266   4.519   7.298
   81SBC   C00G56902   8.331   4.394   7.290
   81SBC   C00F56903   8.458   4.375   7.242
   81SBC   C01X56904   8.340   4.628   7.272
   81SBC   C01W56905   8.282   4.752   7.285
   81SBC   C01V56906   8.148   4.767   7.306
   81SBC   C02056907   8.086   4.892   7.305
   81SBC   C01Z56908   8.361   4.866   7.261
   81SBC   C02Y56909   8.298   4.986   7.270
   81SBC   C03956910   8.373   5.102   7.250
   81SBC   C02W56911   8.499   4.865   7.224
   81SBC   C01Y56912   8.477   4.619   7.238
   81SBC   C00U56913   8.068   4.652   7.316
   81SBC   C00S56914   7.933   4.660   7.316
   81SBC   C00T56915   7.871   4.787   7.291
   81SBC   C00R56916   7.853   4.546   7.301
   81SBC   C00Q56917   7.725   4.557   7.257
   81SBC   C00V56918   7.667   4.682   7.231
   81SBC   C02456919   7.535   4.686   7.182
   81SBC   C00X56920   7.462   4.570   7.170
   81SBC   C00P56921   7.654   4.440   7.234
   81SBC   C00O56922   7.718   4.316   7.239
   81SBC   C00K56923   8.116   4.291   7.321
   81SBC   N00056924   8.086   3.966   7.188
   81SBC   C00L56925   8.250   4.279   7.302
   81SBC   H00456926   8.596   3.721   6.919
   81SBC   C02Q56927   8.603   4.023   7.089
   81SBC   C00E56928   8.505   4.253   7.205
   81SBC   C03056929   8.863   4.351   7.131
   81SBC   O00356930   8.946   4.461   7.142
   81SBC   C02S56931   8.534   4.491   7.221
   81SBC   C03856932   8.886   4.585   7.162
   81SBC   C03L56933   8.965   4.694   7.148
   81SBC   H00856934   9.070   4.677   7.128
   81SBC   C02V56935   8.553   4.740   7.214
   81SBC   C03K56936   8.911   4.823   7.137
   81SBC   C0BK56937   8.989   4.931   7.101
   81SBC   H00T56938   9.093   4.916   7.077
   81SBC   C03H56939   8.580   4.979   7.195
   81SBC   C0BL56940   8.936   5.060   7.083
   81SBC   C0GU56941   9.022   5.156   7.022
   81SBC   H01O56942   9.121   5.133   6.985
   81SBC   C0GT56943   8.982   5.291   7.006
   81SBC   H01P56944   9.045   5.374   6.979
   81SBC   C0GS56945   8.850   5.317   7.046
   81SBC   C0GV56946   8.802   5.451   7.056
   81SBC   C0GW56947   8.868   5.576   7.048
   81SBC   H01Q56948   8.971   5.603   7.028
   81SBC   C0GX56949   8.790   5.682   7.089
   81SBC   H01R56950   8.832   5.781   7.092
   81SBC   O00L56951   8.651   5.673   7.103
   81SBC   C0GQ56952   8.665   5.435   7.093
   81SBC   C03A56953   8.510   5.104   7.215
   81SBC   C05L56954   8.586   5.550   7.110
   81SBC   C04W56955   8.055   5.847   7.116
   81SBC   C05I56956   7.991   5.968   7.086
   81SBC   C05O56957   8.053   6.088   7.095
   81SBC   C05256958   7.856   5.971   7.044
   81SBC   C04V56959   7.972   5.732   7.119
   81SBC   C04U56960   7.844   5.733   7.067
   81SBC   N00956961   8.192   6.085   7.124
   81SBC   C0GP56962   7.988   6.208   7.078
   81SBC   C05W56963   7.859   6.211   7.034
   81SBC   C07D56964   7.587   6.445   6.965
   81SBC   C06J56965   7.481   6.213   6.860
   81SBC   C05P56966   7.794   6.094   7.013
   81SBC   C05R56967   7.491   5.974   6.847
   81SBC   C04Z56968   7.788   5.853   7.019
   81SBC   C04C56969   7.480   5.737   6.876
   81SBC   C04G56970   7.463   5.501   6.916
   81SBC   C04J56971   7.538   5.272   7.045
   81SBC   C04T56972   7.761   5.626   7.071
   81SBC   N00356973   8.032   5.607   7.147
   81SBC   C04P56974   8.222   5.472   7.184
   81SBC   C03D56975   8.320   5.228   7.259
   81SBC   C02156976   8.161   5.003   7.286
   81SBC   C03F56977   7.918   5.266   7.218
   81SBC   C02256978   7.947   4.904   7.297
   81SBC   C02A56979   7.714   5.151   7.157
   81SBC   C02356980   7.741   4.796   7.245
   81SBC   C02556981   7.485   4.802   7.128
   81SBC   C02D56982   7.364   4.802   7.057
   81SBC   C02E56983   7.292   4.682   7.039
   81SBC   C02N56984   7.177   4.676   6.958
   81SBC   C04N56985   7.584   5.155   7.101
   81SBC   C02P56986   7.312   4.919   7.007
   81SBC   C04I56987   7.422   5.271   6.969
   81SBC   C04456988   7.203   5.262   6.798
   81SBC   C04356989   7.203   4.913   6.915
   81SBC   C05N56990   7.131   4.794   6.902
   81SBC   C09U56991   6.793   4.807   6.662
   81SBC   C09V56992   6.674   4.814   6.588
   81SBC   C09X56993   6.584   4.713   6.576
   81SBC   C09Y56994   6.467   4.712   6.494
   81SBC   C0A156995   6.437   4.825   6.425
   81SBC   C0A256996   6.514   4.936   6.442
   81SBC   C0A456997   6.472   5.055   6.391
   81SBC   C07156998   6.554   5.169   6.398
   81SBC   C0A556999   6.498   5.293   6.357
   81SBC   C0A957000   6.370   5.299   6.307
   81SBC   C0A857001   6.299   5.182   6.283
   81SBC   C0AP57002   6.175   5.188   6.230
   81SBC   C0BY57003   6.105   5.071   6.213
   81SBC   C0BX57004   6.146   4.953   6.256
   81SBC   C0C257005   6.063   4.838   6.245
   81SBC   C0C357006   6.115   4.711   6.284
   81SBC   C0CT57007   6.243   4.710   6.334
   81SBC   C0C157008   5.927   4.845   6.199
   81SBC   C0C057009   5.884   4.974   6.154
   81SBC   C0A757010   6.272   4.946   6.314
   81SBC   C0BZ57011   5.973   5.079   6.168
   81SBC   C0BO57012   5.914   5.200   6.133
   81SBC   C0BN57013   5.989   5.316   6.143
   81SBC   C0BM57014   5.929   5.427   6.093
   81SBC   C0B957015   6.003   5.544   6.100
   81SBC   C0B857016   6.130   5.540   6.165
   81SBC   C0AD57017   6.184   5.422   6.215
   81SBC   C0AF57018   6.206   5.659   6.169
   81SBC   C0AG57019   6.162   5.778   6.123
   81SBC   C0B757020   6.037   5.772   6.060
   81SBC   C0AE57021   6.332   5.647   6.231
   81SBC   C0AB57022   6.386   5.532   6.282
   81SBC   C0AA57023   6.517   5.523   6.327
   81SBC   C0AJ57024   6.419   5.756   6.218
   81SBC   C0AK57025   6.549   5.748   6.254
   81SBC   C06W57026   6.597   5.873   6.249
   81SBC   C0AI57027   6.378   5.883   6.176
   81SBC   C0BP57028   5.790   5.187   6.072
   81SBC   C0BQ57029   5.721   5.306   6.035
   81SBC   C0BW57030   6.111   5.310   6.203
   81SBC   C0AC57031   6.309   5.420   6.272
   81SBC   C0A657032   6.345   5.061   6.331
   81SBC   C0A357033   6.321   4.826   6.350
   81SBC   C09Z57034   6.387   4.595   6.477
   81SBC   C09W57035   6.634   4.930   6.520
   81SBC   C07257036   6.714   5.040   6.525
   81SBC   C09H57037   6.612   4.602   6.649
   81SBC   C09G57038   6.527   4.494   6.638
   81SBC   C09P57039   6.597   4.391   6.698
   81SBC   C02O57040   6.944   4.413   6.843
   81SBC   C02M57041   7.112   4.553   6.933
   81SBC   C02F57042   7.340   4.568   7.099
   81SBC   C00W57043   7.525   4.453   7.196
   81SBC   C01R57044   7.660   4.198   7.176
   81SBC   C01N57045   7.311   4.212   7.076
   81SBC   C01L57046   7.225   4.062   6.900
   81SBC   C01H57047   7.359   3.780   6.738
   81SBC   C01K57048   7.560   3.962   6.999
   81SBC   C01E57049   7.744   3.759   6.929
   81SBC   C01G57050   7.459   3.693   6.685
   81SBC   C01D57051   7.824   3.654   6.893
   81SBC   C01A57052   8.015   3.478   6.811
   81SBC   H00157053   8.081   3.398   6.779
   81SBC   C01F57054   7.669   3.533   6.587
   81SBC   C03P57055   7.682   3.456   6.312
   81SBC   C03T57056   7.466   3.541   6.276
   81SBC   C08I57057   7.234   3.602   6.135
   81SBC   C08J57058   7.120   3.633   6.073
   81SBC   C08L57059   6.892   3.725   6.075
   81SBC   C09357060   6.651   3.796   6.087
   81SBC   C08Z57061   6.691   3.829   6.372
   81SBC   C09T57062   6.262   4.020   6.223
   81SBC   C09S57063   6.497   4.017   6.503
   81SBC   C09Q57064   6.556   4.263   6.652
   81SBC   C09F57065   6.419   4.484   6.546
   81SBC   C09E57066   6.257   4.216   6.358
   81SBC   C0A057067   6.291   4.586   6.380
   81SBC   C0CU57068   6.035   4.598   6.267
   81SBC   C0CR57069   5.899   4.611   6.234
   81SBC   C0CZ57070   5.826   4.492   6.220
   81SBC   C0DA57071   6.190   4.153   6.250
   81SBC   C0D957072   5.901   4.110   6.012
   81SBC   H00V57073   5.959   4.081   5.925
   81SBC   C0CY57074   5.899   4.369   6.221
   81SBC   C0DF57075   5.757   4.132   5.998
   81SBC   C0DE57076   5.645   4.147   5.905
   81SBC   C0GI57077   5.604   4.077   5.791
   81SBC   H01K57078   5.667   3.996   5.759
   81SBC   C0GJ57079   5.485   4.104   5.739
   81SBC   H01J57080   5.451   4.040   5.658
   81SBC   O00I57081   5.398   4.201   5.783
   81SBC   C0GH57082   5.428   4.288   5.889
   81SBC   C0GG57083   5.343   4.402   5.916
   81SBC   O00G57084   5.227   4.408   5.846
   81SBC   C0G857085   5.143   4.512   5.861
   81SBC   C0G957086   5.008   4.486   5.844
   81SBC   H01G57087   4.973   4.390   5.810
   81SBC   C0GA57088   4.921   4.585   5.885
   81SBC   H01H57089   4.817   4.556   5.877
   81SBC   C0GB57090   4.957   4.727   5.902
   81SBC   C0EP57091   5.095   4.752   5.911
   81SBC   C0E857092   5.150   4.889   5.905
   81SBC   C0CK57093   5.276   4.955   5.908
   81SBC   C0CL57094   5.350   4.894   6.009
   81SBC   C0E957095   5.356   4.754   6.036
   81SBC   C0GE57096   5.311   4.629   5.974
   81SBC   C0E757097   5.062   4.990   5.945
   81SBC   C0CJ57098   5.124   5.114   5.969
   81SBC   C0E657099   5.051   5.219   6.029
   81SBC   H00Y57100   5.093   5.307   6.075
   81SBC   C0EO57101   4.910   5.202   6.031
   81SBC   H01157102   4.850   5.286   6.062
   81SBC   C0G657103   4.846   5.081   5.993
   81SBC   C0G557104   4.704   5.041   6.013
   81SBC   H01F57105   4.641   5.117   6.057
   81SBC   C0GD57106   4.655   4.922   5.986
   81SBC   H01I57107   4.550   4.904   6.004
   81SBC   O00H57108   4.730   4.816   5.934
   81SBC   C0EQ57109   4.923   4.967   5.957
   81SBC   C0GC57110   4.862   4.840   5.930
   81SBC   C0G757111   5.182   4.639   5.917
   81SBC   C0DD57112   5.554   4.253   5.954
   81SBC   C0GF57113   5.377   4.505   6.006
   81SBC   C0CO57114   5.434   4.741   6.149
   81SBC   C0D057115   5.685   4.507   6.195
   81SBC   C0C457116   5.844   4.736   6.217
   81SBC   C0CN57117   5.484   4.867   6.192
   81SBC   C0CP57118   5.771   5.045   6.091
   81SBC   C0CM57119   5.427   4.963   6.105
   81SBC   C0CI57120   5.257   5.101   5.927
   81SBC   C0CD57121   5.360   5.565   5.850
   81SBC   C0BR57122   5.589   5.302   5.987
   81SBC   C0CS57123   5.796   5.422   6.040
   81SBC   C0B657124   5.958   5.660   6.052
   81SBC   C0CG57125   5.570   5.670   5.892
   81SBC   C0CF57126   5.443   5.680   5.848
   81SBC   C0E557127   5.168   5.701   5.790
   81SBC   C0DT57128   5.060   5.946   5.725
   81SBC   C0DL57129   5.419   6.033   5.745
   81SBC   C0DM57130   5.498   6.147   5.747
   81SBC   C0DY57131   5.315   6.283   5.670
   81SBC   C0DU57132   5.019   6.068   5.683
   81SBC   C0F057133   4.826   6.212   5.687
   81SBC   C0F457134   4.726   6.458   5.739
   81SBC   C0FG57135   5.059   6.529   5.603
   81SBC   O00B57136   4.792   6.692   5.777
   81SBC   C0FN57137   5.121   6.644   5.627
   81SBC   C0DZ57138   5.260   6.405   5.646
   81SBC   O00C57139   5.548   6.618   5.696
   81SBC   C0FR57140   5.683   6.612   5.717
   81SBC   O00D57141   5.741   6.716   5.684
   81SBC   C0E057142   5.449   6.267   5.712
   81SBC   C0E357143   5.735   6.492   5.775
   81SBC   C0AW57144   5.868   6.490   5.818
   81SBC   C0AV57145   5.959   6.601   5.829
   81SBC   H00Q57146   5.940   6.693   5.777
   81SBC   C0AU57147   6.085   6.585   5.893
   81SBC   H00R57148   6.150   6.672   5.899
   81SBC   C0AT57149   6.115   6.461   5.953
   81SBC   C0AS57150   6.209   6.406   6.051
   81SBC   C0AR57151   6.246   6.477   6.175
   81SBC   C0BE57152   6.033   6.352   5.926
   81SBC   C0DN57153   5.626   6.138   5.802
   81SBC   C0AX57154   5.903   6.363   5.873
   81SBC   C0BB57155   5.811   6.010   5.901
   81SBC   C0BD57156   6.079   6.238   5.981
   81SBC   C0B257157   5.988   5.888   6.009
   81SBC   C0AH57158   6.240   5.897   6.132
   81SBC   C0BF57159   6.195   6.259   6.054
   81SBC   C0AL57160   6.500   5.962   6.190
   81SBC   C07U57161   6.437   6.312   6.232
   81SBC   C0AQ57162   6.365   6.431   6.242
   81SBC   C0BG57163   6.213   6.610   6.227
   81SBC   C0FY57164   6.483   6.837   6.294
   81SBC   C0BJ57165   6.180   6.736   6.157
   81SBC   H00S57166   6.112   6.754   6.075
   81SBC   C0FZ57167   6.475   6.933   6.196
   81SBC   C07S57168   6.611   6.775   6.311
   81SBC   C0G157169   6.811   7.048   6.163
   81SBC   C07K57170   7.094   6.860   6.323
   81SBC   C07H57171   6.874   6.677   6.370
   81SBC   C06B57172   7.076   6.581   6.639
   81SBC   C06N57173   7.087   6.354   6.590
   81SBC   C06657174   6.763   6.447   6.393
   81SBC   C06257175   6.756   6.133   6.333
   81SBC   C05Y57176   7.080   6.093   6.555
   81SBC   C06157177   6.805   6.006   6.302
   81SBC   C05H57178   6.989   5.763   6.501
   81SBC   C06V57179   6.724   5.884   6.306
   81SBC   C06Y57180   6.601   5.636   6.317
   81SBC   C05C57181   6.902   5.508   6.499
   81SBC   C06Z57182   6.571   5.406   6.370
   81SBC   C07057183   6.673   5.162   6.468
   81SBC   C05B57184   6.947   5.385   6.562
   81SBC   C05757185   7.022   5.151   6.690
   81SBC   C05957186   6.831   5.037   6.599
   82SBC   C05857187   0.638   7.487  14.839
   82SBC   C05A57188   0.614   7.599  14.924
   82SBC   C06Q57189   0.618   7.733  14.876
   82SBC   C06R57190   0.587   7.839  14.960
   82SBC   C06S57191   0.551   7.812  15.095
   82SBC   C06T57192   0.498   7.925  15.167
   82SBC   C06U57193   0.429   7.929  15.300
   82SBC   C06X57194   0.418   7.832  15.405
   82SBC   C06057195   0.324   7.880  15.505
   82SBC   C05Z57196   0.337   7.875  15.647
   82SBC   C06857197   0.309   8.017  15.696
   82SBC   C06757198   0.305   8.069  15.835
   82SBC   C06957199   0.329   7.978  15.944
   82SBC   C06A57200   0.358   8.017  16.082
   82SBC   C07357201   0.409   8.131  16.147
   82SBC   C07P57202   0.512   8.119  16.249
   82SBC   C07O57203   0.594   8.011  16.276
   82SBC   H00D57204   0.588   7.925  16.210
   82SBC   C07N57205   0.688   7.998  16.379
   82SBC   H00E57206   0.757   7.916  16.385
   82SBC   C07M57207   0.694   8.107  16.465
   82SBC   H00F57208   0.754   8.097  16.555
   82SBC   C07L57209   0.622   8.228  16.443
   82SBC   C07Q57210   0.638   8.344  16.522
   82SBC   H00G57211   0.705   8.352  16.607
   82SBC   O00F57212   0.581   8.465  16.499
   82SBC   C07J57213   0.502   8.466  16.388
   82SBC   C07I57214   0.475   8.353  16.308
   82SBC   N00457215   0.383   8.364  16.194
   82SBC   C07R57216   0.310   8.487  16.180
   82SBC   C07T57217   0.351   8.598  16.249
   82SBC   C0FX57218   0.302   8.719  16.224
   82SBC   C0FW57219   0.344   8.842  16.284
   82SBC   C0G057220   0.437   8.827  16.389
   82SBC   C0G257221   0.493   8.941  16.443
   82SBC   H01E57222   0.562   8.923  16.525
   82SBC   C0G357223   0.463   9.069  16.395
   82SBC   H01C57224   0.515   9.155  16.434
   82SBC   C0G457225   0.364   9.082  16.294
   82SBC   H01D57226   0.354   9.181  16.252
   82SBC   O00E57227   0.475   8.703  16.431
   82SBC   C0FV57228   0.298   8.970  16.235
   82SBC   C0FU57229   0.201   8.969  16.133
   82SBC   H01B57230   0.163   9.053  16.077
   82SBC   C0FT57231   0.133   8.847  16.104
   82SBC   C0FS57232   0.041   8.807  15.999
   82SBC   C0BI57233   0.021   8.659  16.007
   82SBC   C0BH57234   0.002   8.616  15.873
   82SBC   C07F57235   0.083   8.518  15.807
   82SBC   C07E57236   0.151   8.409  15.862
   82SBC   C07G57237   0.202   8.398  15.992
   82SBC   C07457238   0.284   8.283  15.989
   82SBC   C06557239   0.212   8.308  15.785
   82SBC   C06457240   0.203   8.333  15.646
   82SBC   C06357241   0.259   8.253  15.550
   82SBC   C07557242   0.242   8.327  15.421
   82SBC   C0AM57243   0.192   8.461  15.446
   82SBC   C0AN57244   0.188   8.573  15.352
   82SBC   C0AO57245   0.249   8.599  15.216
   82SBC   C0B157246   0.242   8.728  15.151
   82SBC   C0B057247   0.180   8.829  15.208
   82SBC   C0AZ57248   0.173   8.957  15.159
   82SBC   C0AY57249   0.123   9.066  15.234
   82SBC   N00757250   0.123   9.200  15.182
   82SBC   C0E257251   0.078   9.304  15.259
   82SBC   C0E157252   0.087   9.435  15.208
   82SBC   C0E457253   0.037   9.543  15.281
   82SBC   C0FF57254   0.043   9.674  15.233
   82SBC   C0FJ57255  -0.007   9.806  15.281
   82SBC   C0FK57256  -0.134   9.836  15.349
   82SBC   H01657257  -0.192   9.762  15.403
   82SBC   C0FL57258  -0.171   9.971  15.325
   82SBC   H01757259  -0.257  10.030  15.352
   82SBC   C0FM57260  -0.073  10.023  15.239
   82SBC   C0FH57261  -0.066  10.104  15.120
   82SBC   C0FI57262   0.041  10.042  15.048
   82SBC   C0F357263   0.061  10.056  14.906
   82SBC   C0F257264   0.130   9.952  14.849
   82SBC   C0DW57265   0.146   9.828  14.906
   82SBC   C0FE57266   0.119   9.813  15.038
   82SBC   C0DV57267   0.166   9.716  14.828
   82SBC   C0DX57268   0.173   9.593  14.893
   82SBC   C0DK57269   0.198   9.483  14.812
   82SBC   C0DJ57270   0.214   9.502  14.670
   82SBC   C0DI57271   0.234   9.392  14.592
   82SBC   C0DH57272   0.255   9.269  14.651
   82SBC   C0DG57273   0.236   9.252  14.786
   82SBC   C0BV57274   0.249   9.127  14.845
   82SBC   C0BC57275   0.213   9.109  14.979
   82SBC   C0BA57276   0.297   9.016  14.772
   82SBC   C0B457277   0.306   8.891  14.827
   82SBC   C0B357278   0.273   8.870  14.961
   82SBC   C0B557279   0.367   8.788  14.756
   82SBC   C0BU57280   0.376   8.800  14.616
   82SBC   C0BT57281   0.344   8.923  14.554
   82SBC   C0BS57282   0.344   8.936  14.413
   82SBC   C0CC57283   0.316   9.059  14.352
   82SBC   C0CB57284   0.314   9.072  14.211
   82SBC   C0CH57285   0.327   9.202  14.166
   82SBC   C0DO57286   0.294   9.318  14.242
   82SBC   C0DP57287   0.241   9.431  14.181
   82SBC   C0EA57288   0.237   9.450  14.035
   82SBC   H01257289   0.270   9.376  13.963
   82SBC   O00957290   0.165   9.552  13.973
   82SBC   C0EH57291   0.131   9.655  14.051
   82SBC   C0EG57292   0.073   9.763  13.988
   82SBC   C0EJ57293   0.043   9.791  13.853
   82SBC   H01057294   0.050   9.740  13.758
   82SBC   C0EK57295  -0.006   9.934  13.849
   82SBC   H00Z57296  -0.034   9.991  13.762
   82SBC   C0EL57297  -0.014   9.974  13.983
   82SBC   C0EM57298  -0.049  10.099  14.047
   82SBC   C0EW57299  -0.101  10.222  13.986
   82SBC   H01357300  -0.111  10.219  13.878
   82SBC   C0EX57301  -0.141  10.343  14.057
   82SBC   H01457302  -0.190  10.428  14.013
   82SBC   C0F157303  -0.117  10.338  14.202
   82SBC   C0EU57304  -0.063  10.224  14.260
   82SBC   C0ET57305  -0.030  10.200  14.395
   82SBC   C0ES57306   0.022  10.068  14.399
   82SBC   C0EE57307   0.022  10.009  14.271
   82SBC   C0ED57308   0.066   9.891  14.204
   82SBC   C0EC57309   0.113   9.776  14.274
   82SBC   C0EB57310   0.138   9.765  14.413
   82SBC   C0EN57311   0.123   9.874  14.505
   82SBC   C0ER57312   0.163   9.853  14.633
   82SBC   C0DS57313   0.178   9.644  14.472
   82SBC   C0DR57314   0.199   9.528  14.397
   82SBC   C0EY57315   0.080  10.010  14.505
   82SBC   C0EZ57316   0.063  10.067  14.630
   82SBC   C0F557317  -0.008  10.172  14.698
   82SBC   C0F657318  -0.071  10.283  14.630
   82SBC   N00857319  -0.137  10.374  14.721
   82SBC   C0F757320  -0.156  10.351  14.863
   82SBC   C0FQ57321  -0.246  10.439  14.930
   82SBC   H01857322  -0.280  10.417  15.030
   82SBC   C0FP57323  -0.306  10.546  14.872
   82SBC   H01957324  -0.363  10.611  14.936
   82SBC   C0FO57325  -0.280  10.571  14.740
   82SBC   H01A57326  -0.321  10.660  14.694
   82SBC   C0F857327  -0.095  10.242  14.919
   82SBC   C0F957328  -0.201  10.486  14.660
   82SBC   C0FA57329  -0.190  10.522  14.521
   82SBC   H01557330  -0.228  10.614  14.478
   82SBC   C0FB57331  -0.133  10.420  14.435
   82SBC   C0FD57332  -0.080  10.303  14.486
   82SBC   C0FC57333  -0.154  10.440  14.294
   82SBC   O00A57334  -0.205  10.543  14.249
   82SBC   C0EV57335  -0.032  10.109  14.187
   82SBC   C0EF57336   0.042   9.878  14.063
   82SBC   C0EI57337   0.146   9.655  14.198
   82SBC   C0DQ57338   0.190   9.533  14.258
   82SBC   C0CE57339   0.278   9.299  14.378
   82SBC   H00U57340   0.357   9.218  14.063
   82SBC   C0CA57341   0.305   8.954  14.129
   82SBC   C0C957342   0.336   8.825  14.190
   82SBC   C0C857343   0.315   8.709  14.108
   82SBC   C0C757344   0.369   8.571  14.109
   82SBC   C0C657345   0.328   8.491  14.002
   82SBC   C0C557346   0.385   8.380  13.933
   82SBC   C0CQ57347   0.337   8.364  13.803
   82SBC   C0D157348   0.269   8.466  13.736
   82SBC   C0D857349   0.318   8.472  13.610
   82SBC   C0D757350   0.383   8.352  13.584
   82SBC   C0D657351   0.441   8.312  13.462
   82SBC   C0D557352   0.492   8.184  13.441
   82SBC   C0D457353   0.506   8.068  13.524
   82SBC   C0D357354   0.611   7.988  13.469
   82SBC   C0CX57355   0.678   7.914  13.573
   82SBC   C0CW57356   0.632   7.979  13.703
   82SBC   C0CV57357   0.647   7.965  13.849
   82SBC   C0D257358   0.704   7.848  13.909
   82SBC   C09D57359   0.746   7.734  13.839
   82SBC   C09C57360   0.790   7.616  13.903
   82SBC   C09B57361   0.826   7.491  13.844
   82SBC   C09A57362   0.843   7.494  13.704
   82SBC   C09957363   0.840   7.612  13.638
   82SBC   C09857364   0.822   7.576  13.501
   82SBC   C08Y57365   0.800   7.431  13.490
   82SBC   C08X57366   0.734   7.359  13.389
   82SBC   C08W57367   0.696   7.418  13.265
   82SBC   C08U57368   0.702   7.558  13.233
   82SBC   C08V57369   0.721   7.677  13.308
   82SBC   C0DC57370   0.763   7.773  13.215
   82SBC   H00W57371   0.809   7.866  13.247
   82SBC   C0DB57372   0.737   7.731  13.086
   82SBC   H00X57373   0.753   7.787  12.995
   82SBC   C08T57374   0.706   7.589  13.096
   82SBC   C08S57375   0.690   7.503  12.993
   82SBC   H00N57376   0.702   7.528  12.889
   82SBC   C08R57377   0.649   7.370  13.020
   82SBC   C08Q57378   0.611   7.269  12.928
   82SBC   H00O57379   0.627   7.298  12.825
   82SBC   C08P57380   0.543   7.148  12.960
   82SBC   C08O57381   0.457   7.078  12.869
   82SBC   H00P57382   0.467   7.098  12.764
   82SBC   C08N57383   0.385   6.964  12.918
   82SBC   C08M57384   0.302   6.885  12.832
   82SBC   O00857385   0.284   6.906  12.717
   82SBC   O00757386   0.231   6.782  12.896
   82SBC   C08H57387   0.256   6.740  13.022
   82SBC   C08G57388   0.195   6.621  13.070
   82SBC   C03V57389   0.106   6.533  13.003
   82SBC   H00957390   0.078   6.562  12.903
   82SBC   C03U57391   0.038   6.426  13.065
   82SBC   C03W57392  -0.068   6.347  13.003
   82SBC   H00A57393  -0.096   6.366  12.901
   82SBC   C03X57394  -0.128   6.250  13.073
   82SBC   H00B57395  -0.215   6.202  13.029
   82SBC   O00557396  -0.106   6.234  13.209
   82SBC   C03O57397  -0.010   6.311  13.269
   82SBC   C03N57398   0.024   6.283  13.403
   82SBC   O00057399  -0.058   6.202  13.470
   82SBC   C01957400  -0.017   6.162  13.595
   82SBC   C01857401   0.089   6.217  13.666
   82SBC   C01757402   0.165   6.314  13.599
   82SBC   C01657403   0.267   6.379  13.666
   82SBC   C01557404   0.287   6.335  13.798
   82SBC   C01457405   0.388   6.398  13.868
   82SBC   C01357406   0.463   6.510  13.821
   82SBC   C01257407   0.542   6.553  13.932
   82SBC   C01157408   0.523   6.452  14.024
   82SBC   C01057409   0.590   6.450  14.141
   82SBC   C00Z57410   0.572   6.371  14.254
   82SBC   C00Y57411   0.615   6.457  14.360
   82SBC   C01O57412   0.674   6.571  14.318
   82SBC   C01P57413   0.669   6.689  14.392
   82SBC   C02L57414   0.681   6.805  14.330
   82SBC   C02K57415   0.675   6.804  14.188
   82SBC   C01M57416   0.643   6.687  14.108
   82SBC   C02J57417   0.711   6.931  14.130
   82SBC   C02I57418   0.739   6.952  13.999
   82SBC   C02H57419   0.715   6.878  13.880
   82SBC   C01Q57420   0.650   6.759  13.862
   82SBC   C02G57421   0.630   6.735  13.722
   82SBC   C08957422   0.715   6.830  13.656
   82SBC   C08857423   0.655   6.855  13.536
   82SBC   C08757424   0.548   6.752  13.524
   82SBC   C08657425   0.479   6.721  13.407
   82SBC   C03S57426   0.378   6.619  13.394
   82SBC   N00657427   0.331   6.640  13.261
   82SBC   C08F57428   0.382   6.753  13.211
   82SBC   C01J57429   0.316   6.520  13.467
   82SBC   C03R57430   0.207   6.448  13.399
   82SBC   C03Q57431   0.173   6.475  13.264
   82SBC   C08E57432   0.479   6.804  13.296
   82SBC   C08D57433   0.537   6.929  13.268
   82SBC   C08K57434   0.497   6.985  13.144
   82SBC   C08C57435   0.623   7.011  13.342
   82SBC   C09157436   0.647   7.146  13.308
   82SBC   C09257437   0.618   7.195  13.183
   82SBC   C08B57438   0.673   6.989  13.469
   82SBC   C09057439   0.745   7.111  13.504
   82SBC   C09457440   0.817   7.134  13.624
   82SBC   C09557441   0.838   7.259  13.678
   82SBC   C09R57442   0.853   7.252  13.819
   82SBC   C09757443   0.822   7.126  13.858
   82SBC   C09657444   0.805   7.055  13.738
   82SBC   C01I57445   0.534   6.668  13.643
   82SBC   C08A57446   0.755   6.925  13.755
   82SBC   C09L57447   0.793   7.076  13.985
   82SBC   C09K57448   0.801   7.134  14.121
   82SBC   C09J57449   0.793   7.276  14.146
   82SBC   C09I57450   0.754   7.337  14.272
   82SBC   C09O57451   0.718   7.301  14.404
   82SBC   C09N57452   0.692   7.166  14.443
   82SBC   C09M57453   0.701   7.051  14.351
   82SBC   C06O57454   0.666   7.155  14.578
   82SBC   C05M57455   0.664   7.268  14.664
   82SBC   C06P57456   0.683   7.397  14.620
   82SBC   C04257457   0.639   7.248  14.802
   82SBC   C04157458   0.630   7.119  14.852
   82SBC   C04057459   0.608   7.096  14.987
   82SBC   C03Z57460   0.588   6.965  15.039
   82SBC   C03Y57461   0.593   6.856  14.958
   82SBC   C02757462   0.568   6.728  15.007
   82SBC   C02657463   0.562   6.622  14.922
   82SBC   C02857464   0.525   6.498  14.971
   82SBC   C02957465   0.493   6.480  15.101
   82SBC   C02B57466   0.445   6.357  15.144
   82SBC   C02C57467   0.412   6.339  15.280
   82SBC   C02X57468   0.359   6.218  15.320
   82SBC   C03E57469   0.316   6.205  15.454
   82SBC   C03G57470   0.311   6.310  15.540
   82SBC   C04Q57471   0.375   6.425  15.499
   82SBC   C04R57472   0.377   6.533  15.581
   82SBC   C04S57473   0.417   6.658  15.539
   82SBC   C04L57474   0.457   6.679  15.407
   82SBC   C04M57475   0.464   6.565  15.322
   82SBC   C04K57476   0.488   6.806  15.362
   82SBC   C04F57477   0.472   6.915  15.439
   82SBC   C04E57478   0.437   6.898  15.571
   82SBC   C04D57479   0.425   7.012  15.653
   82SBC   C05057480   0.379   6.996  15.781
   82SBC   C05157481   0.365   7.108  15.868
   82SBC   C05Q57482   0.347   7.098  16.001
   82SBC   C05V57483   0.339   7.211  16.080
   82SBC   N00557484   0.312   7.195  16.217
   82SBC   C07V57485   0.303   7.062  16.265
   82SBC   C08257486   0.260   7.054  16.398
   82SBC   C08157487   0.240   7.159  16.488
   82SBC   C07C57488   0.256   7.283  16.436
   82SBC   C07B57489   0.236   7.399  16.521
   82SBC   C08057490   0.203   7.381  16.653
   82SBC   C07Z57491   0.193   7.499  16.732
   82SBC   H00L57492   0.159   7.489  16.834
   82SBC   C07957493   0.205   7.631  16.687
   82SBC   C07857494   0.236   7.641  16.552
   82SBC   C07757495   0.231   7.769  16.489
   82SBC   C07X57496   0.190   7.878  16.566
   82SBC   H00I57497   0.174   7.974  16.519
   82SBC   C07Y57498   0.179   7.872  16.706
   82SBC   H00H57499   0.156   7.955  16.771
   82SBC   C07657500   0.267   7.783  16.357
   82SBC   C06C57501   0.291   7.910  16.299
   82SBC   H00C57502   0.298   7.994  16.367
   82SBC   C06F57503   0.275   7.668  16.277
   82SBC   C06E57504   0.291   7.679  16.138
   82SBC   C06G57505   0.317   7.576  16.052
   82SBC   C06H57506   0.316   7.449  16.113
   82SBC   C06I57507   0.288   7.431  16.245
   82SBC   C06L57508   0.333   7.594  15.912
   82SBC   C06M57509   0.332   7.727  15.855
   82SBC   C06K57510   0.363   7.480  15.838
   82SBC   C05S57511   0.355   7.352  15.894
   82SBC   C05U57512   0.398   7.501  15.700
   82SBC   C05X57513   0.404   7.630  15.641
   82SBC   C05G57514   0.468   7.623  15.506
   82SBC   C05F57515   0.500   7.502  15.445
   82SBC   C05E57516   0.540   7.522  15.319
   82SBC   C04857517   0.563   7.415  15.236
   82SBC   C05657518   0.593   7.441  15.105
   82SBC   C04557519   0.613   7.331  15.024
   82SBC   C04757520   0.544   7.291  15.290
   82SBC   C04957521   0.505   7.276  15.423
   82SBC   C04B57522   0.486   7.152  15.471
   82SBC   C04657523   0.562   7.182  15.204
   82SBC   C04H57524   0.541   7.056  15.258
   82SBC   C05D57525   0.532   7.653  15.284
   82SBC   C04A57526   0.474   7.383  15.506
   82SBC   C05T57527   0.428   7.382  15.629
   82SBC   C05557528   0.418   7.251  15.682
   82SBC   C06D57529   0.309   7.804  16.085
   82SBC   C07W57530   0.263   7.543  16.330
   82SBC   C08557531   0.193   7.747  16.767
   82SBC   H00M57532   0.187   7.737  16.875
   82SBC   C08457533   0.186   7.251  16.703
   82SBC   H00J57534   0.156   7.232  16.805
   82SBC   C07A57535   0.249   7.524  16.471
   82SBC   C08357536   0.199   7.144  16.622
   82SBC   H00K57537   0.178   7.043  16.655
   82SBC   O00K57538   0.232   6.926  16.447
   82SBC   C0GO57539   0.223   6.817  16.362
   82SBC   C0GN57540   0.186   6.691  16.412
   82SBC   H01L57541   0.159   6.691  16.516
   82SBC   C0GM57542   0.183   6.573  16.336
   82SBC   C0GL57543   0.150   6.458  16.388
   82SBC   H01M57544   0.140   6.462  16.496
   82SBC   O00J57545   0.151   6.339  16.315
   82SBC   C0GK57546   0.174   6.358  16.179
   82SBC   H01N57547   0.167   6.264  16.126
   82SBC   C05K57548   0.208   6.478  16.123
   82SBC   C05J57549   0.232   6.497  15.977
   82SBC   C04Y57550   0.215   6.394  15.883
   82SBC   C04X57551   0.266   6.402  15.751
   82SBC   O00657552   0.144   6.279  15.917
   82SBC   C05357553   0.102   6.189  15.821
   82SBC   C04O57554   0.171   6.175  15.702
   82SBC   C03C57555   0.160   6.079  15.598
   82SBC   C03B57556   0.076   5.962  15.571
   82SBC   C05457557  -0.037   5.937  15.647
   82SBC   C0GR57558  -0.126   5.835  15.622
   82SBC   C03M57559  -0.154   5.749  15.501
   82SBC   C03I57560  -0.082   5.749  15.375
   82SBC   C03J57561  -0.134   5.669  15.268
   82SBC   N00257562  -0.082   5.671  15.141
   82SBC   C02U57563  -0.137   5.595  15.034
   82SBC   C02T57564  -0.085   5.598  14.904
   82SBC   C02Z57565  -0.138   5.520  14.802
   82SBC   N00157566  -0.094   5.537  14.672
   82SBC   C02R57567  -0.163   5.467  14.567
   82SBC   C03257568  -0.262   5.375  14.595
   82SBC   C03157569  -0.292   5.352  14.728
   82SBC   H00757570  -0.358   5.267  14.736
   82SBC   C03357571  -0.319   5.302  14.484
   82SBC   H00357572  -0.393   5.227  14.509
   82SBC   O00457573  -0.269   5.307  14.356
   82SBC   C03457574  -0.159   5.392  14.339
   82SBC   C03557575  -0.091   5.376  14.214
   82SBC   C03657576   0.032   5.444  14.193
   82SBC   H00557577   0.078   5.442  14.096
   82SBC   C03757578   0.074   5.537  14.289
   82SBC   H00657579   0.162   5.593  14.262
   82SBC   C00D57580  -0.003   5.560  14.411
   82SBC   C00C57581   0.033   5.658  14.502
   82SBC   C00B57582   0.129   5.769  14.469
   82SBC   C00A57583   0.188   5.848  14.357
   82SBC   C00957584   0.290   5.927  14.422
   82SBC   C00857585   0.351   6.049  14.377
   82SBC   C00757586   0.316   6.086  14.245
   82SBC   C00657587   0.391   6.197  14.197
   82SBC   C00557588   0.356   6.243  14.066
   82SBC   C00457589   0.255   6.177  13.987
   82SBC   C00357590   0.181   6.070  14.044
   82SBC   C00257591   0.065   6.021  13.980
   82SBC   C01C57592   0.039   6.069  13.850
   82SBC   C01B57593  -0.080   6.030  13.781
   82SBC   H00057594  -0.164   5.975  13.822
   82SBC   C00157595  -0.003   5.915  14.037
   82SBC   C00057596   0.024   5.875  14.171
   82SBC   C01U57597  -0.078   5.787  14.214
   82SBC   H00257598  -0.090   5.739  14.310
   82SBC   C01T57599  -0.158   5.753  14.089
   82SBC   O00257600  -0.252   5.678  14.072
   82SBC   O00157601  -0.106   5.836  13.985
   82SBC   C01S57602   0.215   6.020  14.173
   82SBC   C00N57603   0.418   6.125  14.470
   82SBC   C00M57604   0.407   6.096  14.608
   82SBC   C00J57605   0.340   5.989  14.654
   82SBC   C00I57606   0.314   5.965  14.780
   82SBC   C00H57607   0.224   5.866  14.816
   82SBC   C00G57608   0.163   5.782  14.725
   82SBC   C00F57609   0.057   5.701  14.745
   82SBC   C01X57610   0.176   5.855  14.946
   82SBC   C01W57611   0.228   5.942  15.041
   82SBC   C01V57612   0.319   6.041  15.003
   82SBC   C02057613   0.354   6.138  15.094
   82SBC   C01Z57614   0.185   5.926  15.173
   82SBC   C02Y57615   0.237   6.017  15.261
   82SBC   C03957616   0.207   5.995  15.394
   82SBC   C02W57617   0.083   5.838  15.210
   82SBC   C01Y57618   0.073   5.763  14.979
   82SBC   C00U57619   0.352   6.062  14.876
   82SBC   C00S57620   0.416   6.175  14.831
   82SBC   C00T57621   0.455   6.273  14.923
   82SBC   C00R57622   0.443   6.194  14.699
   82SBC   C00Q57623   0.508   6.309  14.658
   82SBC   C00V57624   0.544   6.408  14.748
   82SBC   C02457625   0.585   6.533  14.709
   82SBC   C00X57626   0.606   6.552  14.577
   82SBC   C00P57627   0.532   6.322  14.521
   82SBC   C00O57628   0.481   6.236  14.425
   82SBC   C00K57629   0.288   5.900  14.557
   82SBC   N00057630   0.144   5.909  14.234
   82SBC   C00L57631   0.198   5.810  14.590
   82SBC   H00457632  -0.124   5.315  14.132
   82SBC   C02Q57633  -0.111   5.482  14.440
   82SBC   C00E57634   0.003   5.639  14.636
   82SBC   C03057635  -0.236   5.423  14.834
   82SBC   O00357636  -0.298   5.428  14.963
   82SBC   C02S57637   0.015   5.688  14.879
   82SBC   C03857638  -0.238   5.502  15.066
   82SBC   C03L57639  -0.265   5.486  15.197
   82SBC   H00857640  -0.336   5.410  15.228
   82SBC   C02V57641   0.030   5.753  15.111
   82SBC   C03K57642  -0.234   5.578  15.291
   82SBC   C0BK57643  -0.288   5.574  15.417
   82SBC   H00T57644  -0.361   5.499  15.445
   82SBC   C03H57645   0.029   5.834  15.339
   82SBC   C0BL57646  -0.254   5.654  15.525
   82SBC   C0GU57647  -0.315   5.637  15.652
   82SBC   H01O57648  -0.400   5.570  15.658
   82SBC   C0GT57649  -0.297   5.710  15.768
   82SBC   H01P57650  -0.342   5.681  15.862
   82SBC   C0GS57651  -0.199   5.807  15.746
   82SBC   C0GV57652  -0.150   5.903  15.840
   82SBC   C0GW57653  -0.182   5.915  15.980
   82SBC   H01Q57654  -0.261   5.858  16.027
   82SBC   C0GX57655  -0.107   6.006  16.051
   82SBC   H01R57656  -0.124   6.004  16.158
   82SBC   O00L57657  -0.009   6.089  15.999
   82SBC   C0GQ57658  -0.052   5.992  15.781
   82SBC   C03A57659   0.095   5.921  15.435
   82SBC   C05L57660   0.016   6.087  15.862
   82SBC   C04W57661   0.286   6.617  15.932
   82SBC   C05I57662   0.303   6.728  16.017
   82SBC   C05O57663   0.263   6.718  16.149
   82SBC   C05257664   0.335   6.855  15.966
   82SBC   C04V57665   0.327   6.634  15.801
   82SBC   C04U57666   0.358   6.756  15.747
   82SBC   N00957667   0.219   6.592  16.205
   82SBC   C0GP57668   0.270   6.831  16.234
   82SBC   C05W57669   0.309   6.954  16.183
   82SBC   C07D57670   0.284   7.304  16.305
   82SBC   C06J57671   0.333   7.342  16.028
   82SBC   C05P57672   0.336   6.969  16.047
   82SBC   C05R57673   0.376   7.238  15.811
   82SBC   C04Z57674   0.355   6.871  15.829
   82SBC   C04C57675   0.449   7.137  15.603
   82SBC   C04G57676   0.497   7.041  15.389
   82SBC   C04J57677   0.528   6.820  15.227
   82SBC   C04T57678   0.404   6.775  15.621
   82SBC   N00357679   0.329   6.520  15.712
   82SBC   C04P57680   0.248   6.293  15.664
   82SBC   C03D57681   0.246   6.086  15.489
   82SBC   C02157682   0.326   6.125  15.226
   82SBC   C03F57683   0.425   6.442  15.370
   82SBC   C02257684   0.424   6.253  15.056
   82SBC   C02A57685   0.494   6.585  15.188
   82SBC   C02357686   0.513   6.391  14.883
   82SBC   C02557687   0.590   6.646  14.791
   82SBC   C02D57688   0.616   6.768  14.740
   82SBC   C02E57689   0.641   6.787  14.603
   82SBC   C02N57690   0.667   6.911  14.547
   82SBC   C04N57691   0.531   6.710  15.139
   82SBC   C02P57692   0.617   6.880  14.820
   82SBC   C04I57693   0.557   6.949  15.177
   82SBC   C04457694   0.602   7.200  15.073
   82SBC   C04357695   0.634   7.008  14.766
   82SBC   C05N57696   0.655   7.027  14.630
   82SBC   C09U57697   0.710   7.416  14.486
   82SBC   C09V57698   0.718   7.555  14.444
   82SBC   C09X57699   0.754   7.588  14.315
   82SBC   C09Y57700   0.741   7.708  14.255
   82SBC   C0A157701   0.713   7.816  14.333
   82SBC   C0A257702   0.699   7.795  14.472
   82SBC   C0A457703   0.674   7.902  14.557
   82SBC   C07157704   0.658   7.881  14.693
   82SBC   C0A557705   0.623   7.988  14.773
   82SBC   C0A957706   0.623   8.119  14.720
   82SBC   C0A857707   0.635   8.132  14.581
   82SBC   C0AP57708   0.616   8.256  14.525
   82SBC   C0BY57709   0.611   8.266  14.386
   82SBC   C0BX57710   0.615   8.158  14.300
   82SBC   C0C257711   0.594   8.175  14.162
   82SBC   C0C357712   0.619   8.065  14.077
   82SBC   C0CT57713   0.674   7.946  14.134
   82SBC   C0C157714   0.538   8.288  14.110
   82SBC   C0C057715   0.534   8.403  14.199
   82SBC   C0A757716   0.647   8.036  14.355
   82SBC   C0BZ57717   0.589   8.390  14.325
   82SBC   C0BO57718   0.547   8.500  14.407
   82SBC   C0BN57719   0.545   8.489  14.548
   82SBC   C0BM57720   0.481   8.589  14.609
   82SBC   C0B957721   0.460   8.574  14.746
   82SBC   C0B857722   0.501   8.461  14.809
   82SBC   C0AD57723   0.569   8.355  14.741
   82SBC   C0AF57724   0.461   8.437  14.941
   82SBC   C0AG57725   0.383   8.531  15.016
   82SBC   C0B757726   0.357   8.654  14.951
   82SBC   C0AE57727   0.486   8.313  14.992
   82SBC   C0AB57728   0.552   8.205  14.931
   82SBC   C0AA57729   0.544   8.074  14.980
   82SBC   C0AJ57730   0.420   8.282  15.111
   82SBC   C0AK57731   0.430   8.159  15.167
   82SBC   C06W57732   0.358   8.158  15.280
   82SBC   C0AI57733   0.347   8.369  15.192
   82SBC   C0BP57734   0.477   8.595  14.330
   82SBC   C0BQ57735   0.425   8.710  14.400
   82SBC   C0BW57736   0.581   8.366  14.600
   82SBC   C0AC57737   0.586   8.230  14.799
   82SBC   C0A657738   0.659   8.024  14.498
   82SBC   C0A357739   0.678   7.933  14.270
   82SBC   C09Z57740   0.752   7.724  14.117
   82SBC   C09W57741   0.701   7.665  14.523
   82SBC   C07257742   0.679   7.640  14.658
   82SBC   C09H57743   0.764   7.479  14.238
   82SBC   C09G57744   0.792   7.497  14.103
   82SBC   C09P57745   0.818   7.373  14.046
   82SBC   C02O57746   0.737   7.043  14.212
   82SBC   C02M57747   0.684   6.924  14.405
   82SBC   C02F57748   0.646   6.678  14.524
   82SBC   C00W57749   0.592   6.437  14.494
   82SBC   C01R57750   0.482   6.263  14.287
   82SBC   C01N57751   0.650   6.570  14.185
   82SBC   C01L57752   0.615   6.673  13.967
   82SBC   C01H57753   0.446   6.560  13.688
   82SBC   C01K57754   0.426   6.355  13.996
   82SBC   C01E57755   0.222   6.231  13.859
   82SBC   C01G57756   0.339   6.489  13.604
   82SBC   C01D57757   0.115   6.174  13.794
   82SBC   C01A57758  -0.105   6.068  13.652
   82SBC   H00157759  -0.199   6.045  13.604
   82SBC   C01F57760   0.129   6.354  13.468
   82SBC   C03P57761   0.069   6.403  13.198
   82SBC   C03T57762   0.229   6.581  13.200
   82SBC   C08I57763   0.347   6.809  13.094
   82SBC   C08J57764   0.408   6.920  13.054
   82SBC   C08L57765   0.555   7.108  13.094
   82SBC   C09357766   0.646   7.331  13.159
   82SBC   C08Z57767   0.716   7.214  13.408
   82SBC   C09T57768   0.750   7.680  13.450
   82SBC   C09S57769   0.838   7.383  13.621
   82SBC   C09Q57770   0.841   7.365  13.909
   82SBC   C09F57771   0.780   7.618  14.038
   82SBC   C09E57772   0.764   7.715  13.694
   82SBC   C0A057773   0.711   7.841  14.050
   82SBC   C0CU57774   0.600   8.072  13.937
   82SBC   C0CR57775   0.519   8.175  13.894
   82SBC   C0CZ57776   0.485   8.176  13.755
   82SBC   C0DA57777   0.725   7.774  13.570
   82SBC   C0D957778   0.673   8.067  13.363
   82SBC   H00V57779   0.770   8.057  13.315
   82SBC   C0CY57780   0.535   8.077  13.668
   82SBC   C0DF57781   0.588   8.184  13.339
   82SBC   C0DE57782   0.580   8.316  13.282
   82SBC   C0GI57783   0.650   8.375  13.170
   82SBC   H01K57784   0.727   8.320  13.118
   82SBC   C0GJ57785   0.607   8.502  13.140
   82SBC   H01J57786   0.671   8.557  13.072
   82SBC   O00I57787   0.514   8.581  13.213
   82SBC   C0GH57788   0.460   8.532  13.330
   82SBC   C0GG57789   0.371   8.618  13.401
   82SBC   O00G57790   0.355   8.740  13.346
   82SBC   C0G857791   0.286   8.840  13.407
   82SBC   C0G957792   0.262   8.953  13.335
   82SBC   H01G57793   0.285   8.955  13.229
   82SBC   C0GA57794   0.207   9.065  13.397
   82SBC   H01H57795   0.177   9.148  13.336
   82SBC   C0GB57796   0.184   9.071  13.536
   82SBC   C0EP57797   0.219   8.960  13.608
   82SBC   C0E857798   0.231   8.981  13.753
   82SBC   C0CK57799   0.287   8.911  13.866
   82SBC   C0CL57800   0.272   8.774  13.865
   82SBC   C0E957801   0.249   8.693  13.747
   82SBC   C0GE57802   0.272   8.716  13.604
   82SBC   C0E757803   0.160   9.082  13.815
   82SBC   C0CJ57804   0.160   9.079  13.956
   82SBC   C0E657805   0.076   9.169  14.023
   82SBC   H00Y57806   0.057   9.161  14.129
   82SBC   C0EO57807   0.012   9.265  13.947
   82SBC   H01157808  -0.058   9.329  13.999
   82SBC   C0G657809   0.024   9.276  13.804
   82SBC   C0G557810  -0.021   9.385  13.726
   82SBC   H01F57811  -0.081   9.463  13.771
   82SBC   C0GD57812   0.002   9.390  13.595
   82SBC   H01I57813  -0.036   9.472  13.536
   82SBC   O00H57814   0.067   9.283  13.520
   82SBC   C0EQ57815   0.094   9.176  13.738
   82SBC   C0GC57816   0.115   9.179  13.598
   82SBC   C0G757817   0.263   8.841  13.543
   82SBC   C0DD57818   0.489   8.397  13.361
   82SBC   C0GF57819   0.317   8.599  13.533
   82SBC   C0CO57820   0.231   8.572  13.803
   82SBC   C0D057821   0.405   8.286  13.712
   82SBC   C0C457822   0.483   8.287  13.980
   82SBC   C0CN57823   0.221   8.567  13.944
   82SBC   C0CP57824   0.475   8.539  14.197
   82SBC   C0CM57825   0.235   8.701  13.987
   82SBC   C0CI57826   0.259   8.980  13.993
   82SBC   C0CD57827   0.294   9.172  14.436
   82SBC   C0BR57828   0.372   8.823  14.334
   82SBC   C0CS57829   0.430   8.699  14.540
   82SBC   C0B657830   0.405   8.674  14.821
   82SBC   C0CG57831   0.312   9.030  14.634
   82SBC   C0CF57832   0.291   9.158  14.574
   82SBC   C0E557833   0.240   9.408  14.458
   82SBC   C0DT57834   0.190   9.624  14.612
   82SBC   C0DL57835   0.205   9.363  14.865
   82SBC   C0DM57836   0.173   9.347  14.999
   82SBC   C0DY57837   0.144   9.578  15.028
   82SBC   C0DU57838   0.174   9.727  14.692
   82SBC   C0F057839   0.121   9.966  14.710
   82SBC   C0F457840  -0.009  10.158  14.841
   82SBC   C0FG57841   0.078   9.926  15.107
   82SBC   O00B57842  -0.136  10.206  15.055
   82SBC   C0FN57843   0.028   9.926  15.227
   82SBC   C0DZ57844   0.108   9.689  15.102
   82SBC   O00C57845  -0.021   9.521  15.403
   82SBC   C0FR57846  -0.032   9.397  15.459
   82SBC   O00D57847  -0.082   9.400  15.568
   82SBC   C0E057848   0.133   9.454  15.078
   82SBC   C0E357849   0.018   9.278  15.384
   82SBC   C0AW57850   0.004   9.150  15.429
   82SBC   C0AV57851  -0.060   9.109  15.552
   82SBC   H00Q57852  -0.110   9.180  15.617
   82SBC   C0AU57853  -0.063   8.974  15.592
   82SBC   H00R57854  -0.125   8.945  15.675
   82SBC   C0AT57855   0.005   8.877  15.513
   82SBC   C0AS57856   0.055   8.739  15.528
   82SBC   C0AR57857   0.049   8.679  15.659
   82SBC   C0BE57858   0.064   8.918  15.402
   82SBC   C0DN57859   0.168   9.218  15.048
   82SBC   C0AX57860   0.062   9.052  15.355
   82SBC   C0BB57861   0.222   8.978  15.032
   82SBC   C0BD57862   0.121   8.813  15.332
   82SBC   C0B257863   0.292   8.751  15.023
   82SBC   C0AH57864   0.326   8.503  15.144
   82SBC   C0BF57865   0.124   8.694  15.409
   82SBC   C0AL57866   0.303   8.291  15.302
   82SBC   C07U57867   0.156   8.456  15.587
   82SBC   C0AQ57868   0.097   8.549  15.673
   82SBC   C0BG57869  -0.007   8.727  15.787
   82SBC   C0FY57870   0.125   8.615  16.095
   82SBC   C0BJ57871   0.038   8.847  15.860
   82SBC   H00S57872   0.081   8.937  15.819
   82SBC   C0FZ57873   0.184   8.729  16.150
   82SBC   C07S57874   0.204   8.496  16.088
   82SBC   C0G157875   0.446   8.591  16.353
   82SBC   C07K57876   0.536   8.234  16.330
   82SBC   C07H57877   0.357   8.253  16.106
   82SBC   C06B57878   0.316   7.913  16.165
   82SBC   C06N57879   0.315   7.832  15.952
   82SBC   C06657880   0.280   8.210  15.863
   82SBC   C06257881   0.294   8.107  15.576
   82SBC   C05Y57882   0.357   7.744  15.715
   82SBC   C06157883   0.290   8.014  15.470
   82SBC   C05H57884   0.491   7.719  15.402
   82SBC   C06V57885   0.349   8.037  15.344
   82SBC   C06Y57886   0.498   8.051  15.104
   82SBC   C05C57887   0.561   7.683  15.142
   82SBC   C06Z57888   0.591   7.967  14.905
   82SBC   C07057889   0.650   7.752  14.743
   82SBC   C05B57890   0.589   7.573  15.058
   82SBC   C05757891   0.627   7.355  14.889
   82SBC   C05957892   0.666   7.509  14.705
   83SBC   C05857893  10.860   7.837  12.473
   83SBC   C05A57894  10.890   7.973  12.484
   83SBC   C06Q57895  10.821   8.067  12.413
   83SBC   C06R57896  10.844   8.203  12.427
   83SBC   C06S57897  10.944   8.249  12.514
   83SBC   C06T57898  10.962   8.395  12.529
   83SBC   C06U57899  11.035   8.471  12.634
   83SBC   C06X57900  11.132   8.434  12.731
   83SBC   C06057901  11.158   8.551  12.814
   83SBC   C05Z57902  11.284   8.588  12.871
   83SBC   C06857903  11.293   8.735  12.844
   83SBC   C06757904  11.404   8.830  12.878
   83SBC   C06957905  11.512   8.790  12.964
   83SBC   C06A57906  11.633   8.860  13.002
   83SBC   C07357907  11.713   8.931  12.918
   83SBC   C07P57908  11.849   8.912  12.911
   83SBC   C07O57909  11.930   8.807  12.962
   83SBC   H00D57910  11.893   8.736  13.034
   83SBC   C07N57911  12.066   8.791  12.935
   83SBC   H00E57912  12.114   8.716  12.998
   83SBC   C07M57913  12.116   8.855  12.823
   83SBC   H00F57914  12.217   8.848  12.785
   83SBC   C07L57915  12.042   8.957  12.764
   83SBC   C07Q57916  12.096   9.030  12.655
   83SBC   H00G57917  12.189   8.998  12.610
   83SBC   O00F57918  12.045   9.147  12.617
   83SBC   C07J57919  11.918   9.176  12.651
   83SBC   C07I57920  11.849   9.092  12.746
   83SBC   N00457921  11.717   9.127  12.784
   83SBC   C07R57922  11.673   9.260  12.747
   83SBC   C07T57923  11.734   9.329  12.637
   83SBC   C0FX57924  11.678   9.450  12.586
   83SBC   C0FW57925  11.733   9.513  12.477
   83SBC   C0G057926  11.861   9.468  12.427
   83SBC   C0G257927  11.926   9.533  12.322
   83SBC   H01E57928  12.028   9.509  12.297
   83SBC   C0G357929  11.865   9.642  12.256
   83SBC   H01C57930  11.912   9.688  12.170
   83SBC   C0G457931  11.736   9.675  12.299
   83SBC   H01D57932  11.695   9.759  12.243
   83SBC   O00E57933  11.924   9.361  12.493
   83SBC   C0FV57934  11.664   9.617  12.409
   83SBC   C0FU57935  11.534   9.651  12.460
   83SBC   H01B57936  11.468   9.722  12.414
   83SBC   C0FT57937  11.492   9.592  12.575
   83SBC   C0FS57938  11.367   9.571  12.639
   83SBC   C0BI57939  11.383   9.501  12.767
   83SBC   C0BH57940  11.257   9.434  12.791
   83SBC   C07F57941  11.245   9.290  12.781
   83SBC   C07E57942  11.325   9.184  12.818
   83SBC   C07G57943  11.462   9.191  12.827
   83SBC   C07457944  11.503   9.065  12.843
   83SBC   C06557945  11.293   9.050  12.803
   83SBC   C06457946  11.169   9.026  12.743
   83SBC   C06357947  11.128   8.901  12.704
   83SBC   C07557948  11.021   8.930  12.608
   83SBC   C0AM57949  10.990   9.073  12.592
   83SBC   C0AN57950  10.890   9.142  12.504
   83SBC   C0AO57951  10.794   9.078  12.400
   83SBC   C0B157952  10.704   9.163  12.328
   83SBC   C0B057953  10.703   9.303  12.349
   83SBC   C0AZ57954  10.613   9.394  12.295
   83SBC   C0AY57955  10.620   9.533  12.325
   83SBC   N00757956  10.531   9.620  12.270
   83SBC   C0E257957  10.540   9.764  12.297
   83SBC   C0E157958  10.451   9.850  12.240
   83SBC   C0E457959  10.462   9.989  12.260
   83SBC   C0FF57960  10.365  10.077  12.213
   83SBC   C0FJ57961  10.359  10.224  12.205
   83SBC   C0FK57962  10.478  10.298  12.179
   83SBC   H01657963  10.579  10.267  12.200
   83SBC   C0FL57964  10.423  10.421  12.108
   83SBC   H01757965  10.469  10.511  12.070
   83SBC   C0FM57966  10.283  10.406  12.092
   83SBC   C0FH57967  10.170  10.437  12.006
   83SBC   C0FI57968  10.089  10.323  12.027
   83SBC   C0F357969  10.022  10.274  11.910
   83SBC   C0F257970  10.001  10.143  11.914
   83SBC   C0DW57971  10.069  10.051  11.995
   83SBC   C0FE57972  10.146  10.095  12.098
   83SBC   C0DV57973  10.069   9.917  11.961
   83SBC   C0DX57974  10.159   9.833  12.024
   83SBC   C0DK57975  10.160   9.701  11.985
   83SBC   C0DJ57976  10.075   9.659  11.882
   83SBC   C0DI57977  10.089   9.528  11.841
   83SBC   C0DH57978  10.164   9.438  11.908
   83SBC   C0DG57979  10.251   9.482  12.005
   83SBC   C0BV57980  10.332   9.390  12.068
   83SBC   C0BC57981  10.428   9.437  12.152
   83SBC   C0BA57982  10.319   9.255  12.041
   83SBC   C0B457983  10.408   9.164  12.094
   83SBC   C0B357984  10.511   9.212  12.183
   83SBC   C0B557985  10.394   9.027  12.065
   83SBC   C0BU57986  10.296   8.985  11.976
   83SBC   C0BT57987  10.208   9.074  11.920
   83SBC   C0BS57988  10.098   9.024  11.847
   83SBC   C0CC57989  10.031   9.122  11.774
   83SBC   C0CB57990   9.931   9.085  11.687
   83SBC   C0CH57991   9.896   9.178  11.586
   83SBC   C0DO57992   9.925   9.314  11.599
   83SBC   C0DP57993   9.875   9.405  11.512
   83SBC   C0EA57994   9.812   9.356  11.390
   83SBC   H01257995   9.817   9.255  11.350
   83SBC   O00957996   9.750   9.444  11.302
   83SBC   C0EH57997   9.759   9.583  11.331
   83SBC   C0EG57998   9.724   9.673  11.235
   83SBC   C0EJ57999   9.662   9.661  11.106
   83SBC   H01058000   9.631   9.572  11.054
   83SBC   C0EK58001   9.645   9.788  11.040
   83SBC   H00Z58002   9.597   9.812  10.946
   83SBC   C0EL58003   9.691   9.882  11.138
   83SBC   C0EM58004   9.684  10.026  11.150
   83SBC   C0EW58005   9.632  10.117  11.054
   83SBC   H01358006   9.571  10.083  10.971
   83SBC   C0EX58007   9.640  10.259  11.072
   83SBC   H01458008   9.602  10.336  11.007
   83SBC   C0F158009   9.696  10.306  11.196
   83SBC   C0EU58010   9.741  10.216  11.294
   83SBC   C0ET58011   9.800  10.237  11.422
   83SBC   C0ES58012   9.813  10.104  11.480
   83SBC   C0EE58013   9.779  10.006  11.386
   83SBC   C0ED58014   9.780   9.866  11.376
   83SBC   C0EC58015   9.836   9.774  11.470
   83SBC   C0EB58016   9.882   9.809  11.602
   83SBC   C0EN58017   9.873   9.943  11.655
   83SBC   C0ER58018   9.920   9.965  11.782
   83SBC   C0DS58019   9.937   9.715  11.688
   83SBC   C0DR58020   9.938   9.581  11.653
   83SBC   C0EY58021   9.834  10.078  11.609
   83SBC   C0EZ58022   9.879  10.186  11.696
   83SBC   C0F558023   9.913  10.331  11.699
   83SBC   C0F658024   9.888  10.413  11.587
   83SBC   N00858025   9.932  10.549  11.604
   83SBC   C0F758026  10.010  10.593  11.721
   83SBC   C0FQ58027  10.043  10.733  11.728
   83SBC   H01858028  10.097  10.758  11.818
   83SBC   C0FP58029  10.000  10.828  11.636
   83SBC   H01958030  10.012  10.935  11.650
   83SBC   C0FO58031   9.936  10.773  11.523
   83SBC   H01A58032   9.897  10.849  11.456
   83SBC   C0F858033  10.047  10.494  11.817
   83SBC   C0F958034   9.889  10.643  11.508
   83SBC   C0FA58035   9.808  10.606  11.396
   83SBC   H01558036   9.778  10.683  11.326
   83SBC   C0FB58037   9.785  10.469  11.369
   83SBC   C0FD58038   9.823  10.376  11.463
   83SBC   C0FC58039   9.714  10.442  11.241
   83SBC   O00A58040   9.672  10.538  11.177
   83SBC   C0EV58041   9.733  10.079  11.270
   83SBC   C0EF58042   9.737   9.805  11.253
   83SBC   C0EI58043   9.825   9.632  11.446
   83SBC   C0DQ58044   9.878   9.540  11.535
   83SBC   C0CE58045   9.999   9.354  11.705
   83SBC   H00U58046   9.829   9.128  11.517
   83SBC   C0CA58047   9.870   8.953  11.701
   83SBC   C0C958048   9.960   8.847  11.747
   83SBC   C0C858049   9.930   8.715  11.690
   83SBC   C0C758050   9.981   8.585  11.723
   83SBC   C0C658051   9.918   8.472  11.658
   83SBC   C0C558052   9.889   8.331  11.676
   83SBC   C0CQ58053   9.776   8.277  11.607
   83SBC   C0D158054   9.685   8.370  11.553
   83SBC   C0D858055   9.563   8.328  11.579
   83SBC   C0D758056   9.577   8.184  11.604
   83SBC   C0D658057   9.467   8.097  11.637
   83SBC   C0D558058   9.488   7.961  11.679
   83SBC   C0D458059   9.604   7.889  11.718
   83SBC   C0D358060   9.563   7.788  11.811
   83SBC   C0CX58061   9.680   7.750  11.895
   83SBC   C0CW58062   9.777   7.859  11.861
   83SBC   C0CV58063   9.919   7.889  11.891
   83SBC   C0D258064  10.010   7.789  11.942
   83SBC   C09D58065   9.983   7.648  11.943
   83SBC   C09C58066  10.090   7.556  11.972
   83SBC   C09B58067  10.082   7.415  11.974
   83SBC   C09A58068   9.958   7.360  11.930
   83SBC   C09958069   9.863   7.442  11.893
   83SBC   C09858070   9.742   7.375  11.902
   83SBC   C08Y58071   9.767   7.239  11.963
   83SBC   C08X58072   9.681   7.149  12.022
   83SBC   C08W58073   9.537   7.175  12.032
   83SBC   C08U58074   9.464   7.297  11.996
   83SBC   C08V58075   9.502   7.434  11.953
   83SBC   C0DC58076   9.377   7.492  11.910
   83SBC   H00W58077   9.368   7.591  11.869
   83SBC   C0DB58078   9.263   7.412  11.940
   83SBC   H00X58079   9.158   7.429  11.918
   83SBC   C08T58080   9.325   7.293  11.986
   83SBC   C08S58081   9.251   7.186  12.030
   83SBC   H00N58082   9.144   7.187  12.014
   83SBC   C08R58083   9.314   7.072  12.079
   83SBC   C08Q58084   9.248   6.963  12.137
   83SBC   H00O58085   9.142   6.982  12.146
   83SBC   C08P58086   9.296   6.838  12.178
   83SBC   C08O58087   9.213   6.727  12.222
   83SBC   H00P58088   9.106   6.740  12.233
   83SBC   C08N58089   9.277   6.606  12.268
   83SBC   C08M58090   9.199   6.498  12.306
   83SBC   O00858091   9.076   6.480  12.288
   83SBC   O00758092   9.263   6.391  12.375
   83SBC   C08H58093   9.402   6.387  12.389
   83SBC   C08G58094   9.463   6.288  12.465
   83SBC   C03V58095   9.405   6.175  12.528
   83SBC   H00958096   9.299   6.154  12.528
   83SBC   C03U58097   9.482   6.084  12.603
   83SBC   C03W58098   9.428   5.973  12.677
   83SBC   H00A58099   9.324   5.947  12.664
   83SBC   C03X58100   9.510   5.905  12.757
   83SBC   H00B58101   9.472   5.814  12.801
   83SBC   O00558102   9.643   5.932  12.781
   83SBC   C03O58103   9.694   6.029  12.703
   83SBC   C03N58104   9.829   6.049  12.714
   83SBC   O00058105   9.898   5.946  12.772
   83SBC   C01958106  10.028   5.973  12.799
   83SBC   C01858107  10.092   6.088  12.751
   83SBC   C01758108  10.027   6.176  12.672
   83SBC   C01658109  10.089   6.287  12.621
   83SBC   C01558110  10.219   6.306  12.667
   83SBC   C01458111  10.282   6.425  12.627
   83SBC   C01358112  10.234   6.508  12.526
   83SBC   C01258113  10.342   6.610  12.511
   83SBC   C01158114  10.442   6.564  12.596
   83SBC   C01058115  10.555   6.637  12.607
   83SBC   C00Z58116  10.660   6.622  12.696
   83SBC   C00Y58117  10.743   6.733  12.673
   83SBC   C01O58118  10.692   6.818  12.583
   83SBC   C01P58119  10.720   6.947  12.569
   83SBC   C02L58120  10.638   7.019  12.488
   83SBC   C02K58121  10.524   6.949  12.438
   83SBC   C01M58122  10.479   6.814  12.466
   83SBC   C02J58123  10.463   7.027  12.333
   83SBC   C02I58124  10.355   6.991  12.257
   83SBC   C02H58125  10.269   6.880  12.266
   83SBC   C01Q58126  10.266   6.771  12.344
   83SBC   C02G58127  10.139   6.703  12.337
   83SBC   C08958128  10.075   6.770  12.233
   83SBC   C08858129   9.941   6.734  12.213
   83SBC   C08758130   9.936   6.625  12.312
   83SBC   C08658131   9.812   6.550  12.337
   83SBC   C03S58132   9.800   6.433  12.423
   83SBC   N00658133   9.667   6.399  12.413
   83SBC   C08F58134   9.606   6.486  12.336
   83SBC   C01J58135   9.880   6.352  12.505
   83SBC   C03R58136   9.818   6.244  12.573
   83SBC   C03Q58137   9.681   6.216  12.556
   83SBC   C08E58138   9.683   6.591  12.302
   83SBC   C08D58139   9.635   6.713  12.241
   83SBC   C08K58140   9.495   6.715  12.226
   83SBC   C08C58141   9.708   6.817  12.185
   83SBC   C09158142   9.646   6.933  12.137
   83SBC   C09258143   9.504   6.944  12.136
   83SBC   C08B58144   9.844   6.832  12.171
   83SBC   C09058145   9.862   6.958  12.090
   83SBC   C09458146   9.987   7.014  12.043
   83SBC   C09558147  10.002   7.145  12.003
   83SBC   C09R58148  10.132   7.193  12.031
   83SBC   C09758149  10.200   7.096  12.102
   83SBC   C09658150  10.111   6.986  12.108
   83SBC   C01I58151  10.059   6.593  12.381
   83SBC   C08A58152  10.149   6.877  12.190
   83SBC   C09L58153  10.323   7.096  12.175
   83SBC   C09K58154  10.421   7.198  12.193
   83SBC   C09J58155  10.411   7.330  12.145
   83SBC   C09I58156  10.478   7.445  12.195
   83SBC   C09O58157  10.584   7.479  12.288
   83SBC   C09N58158  10.644   7.381  12.374
   83SBC   C09M58159  10.607   7.242  12.382
   83SBC   C06O58160  10.744   7.428  12.462
   83SBC   C05M58161  10.787   7.564  12.458
   83SBC   C06P58162  10.727   7.659  12.376
   83SBC   C04258163  10.878   7.609  12.551
   83SBC   C04158164  10.943   7.520  12.637
   83SBC   C04058165  11.045   7.564  12.722
   83SBC   C03Z58166  11.117   7.476  12.804
   83SBC   C03Y58167  11.091   7.342  12.802
   83SBC   C02758168  11.152   7.261  12.896
   83SBC   C02658169  11.116   7.129  12.903
   83SBC   C02858170  11.170   7.045  12.999
   83SBC   C02958171  11.266   7.094  13.083
   83SBC   C02B58172  11.310   7.007  13.185
   83SBC   C02C58173  11.395   7.055  13.283
   83SBC   C02X58174  11.450   6.960  13.373
   83SBC   C03E58175  11.533   7.015  13.463
   83SBC   C03G58176  11.554   7.148  13.484
   83SBC   C04Q58177  11.508   7.238  13.383
   83SBC   C04R58178  11.529   7.374  13.394
   83SBC   C04S58179  11.484   7.456  13.293
   83SBC   C04L58180  11.401   7.407  13.190
   83SBC   C04M58181  11.380   7.273  13.179
   83SBC   C04K58182  11.349   7.493  13.098
   83SBC   C04F58183  11.372   7.625  13.109
   83SBC   C04E58184  11.456   7.678  13.212
   83SBC   C04D58185  11.476   7.813  13.222
   83SBC   C05058186  11.547   7.866  13.324
   83SBC   C05158187  11.562   8.006  13.339
   83SBC   C05Q58188  11.618   8.060  13.450
   83SBC   C05V58189  11.640   8.200  13.452
   83SBC   N00558190  11.700   8.259  13.563
   83SBC   C07V58191  11.727   8.174  13.670
   83SBC   C08258192  11.773   8.237  13.784
   83SBC   C08158193  11.803   8.368  13.801
   83SBC   C07C58194  11.798   8.444  13.685
   83SBC   C07B58195  11.838   8.582  13.685
   83SBC   C08058196  11.898   8.638  13.798
   83SBC   C07Z58197  11.943   8.767  13.783
   83SBC   H00L58198  11.985   8.814  13.871
   83SBC   C07958199  11.940   8.845  13.673
   83SBC   C07858200  11.879   8.788  13.562
   83SBC   C07758201  11.869   8.856  13.440
   83SBC   C07X58202  11.929   8.982  13.424
   83SBC   H00I58203  11.937   9.035  13.330
   83SBC   C07Y58204  11.990   9.045  13.535
   83SBC   H00H58205  12.032   9.143  13.519
   83SBC   C07658206  11.787   8.801  13.337
   83SBC   C06C58207  11.777   8.870  13.215
   83SBC   H00C58208  11.830   8.959  13.186
   83SBC   C06F58209  11.730   8.677  13.350
   83SBC   C06E58210  11.653   8.621  13.251
   83SBC   C06G58211  11.606   8.496  13.246
   83SBC   C06H58212  11.641   8.416  13.354
   83SBC   C06I58213  11.713   8.467  13.459
   83SBC   C06L58214  11.515   8.456  13.145
   83SBC   C06M58215  11.460   8.548  13.050
   83SBC   C06K58216  11.479   8.320  13.149
   83SBC   C05S58217  11.535   8.236  13.244
   83SBC   C05U58218  11.393   8.269  13.047
   83SBC   C05X58219  11.333   8.358  12.953
   83SBC   C05G58220  11.254   8.278  12.856
   83SBC   C05F58221  11.245   8.141  12.856
   83SBC   C05E58222  11.167   8.086  12.757
   83SBC   C04858223  11.143   7.952  12.748
   83SBC   C05658224  11.049   7.918  12.655
   83SBC   C04558225  11.018   7.789  12.642
   83SBC   C04758226  11.203   7.875  12.840
   83SBC   C04958227  11.289   7.925  12.937
   83SBC   C04B58228  11.344   7.843  13.031
   83SBC   C04658229  11.178   7.741  12.826
   83SBC   C04H58230  11.238   7.658  12.914
   83SBC   C05D58231  11.102   8.187  12.691
   83SBC   C04A58232  11.308   8.064  12.949
   83SBC   C05T58233  11.378   8.129  13.047
   83SBC   C05558234  11.433   8.041  13.144
   83SBC   C06D58235  11.608   8.707  13.149
   83SBC   C07W58236  11.761   8.603  13.456
   83SBC   C08558237  11.996   8.972  13.658
   83SBC   H00M58238  12.044   9.020  13.741
   83SBC   C08458239  11.902   8.555  13.917
   83SBC   H00J58240  11.940   8.595  14.010
   83SBC   C07A58241  11.827   8.659  13.569
   83SBC   C08358242  11.856   8.425  13.920
   83SBC   H00K58243  11.862   8.371  14.014
   83SBC   O00K58244  11.797   8.160  13.895
   83SBC   C0GO58245  11.776   8.022  13.898
   83SBC   C0GN58246  11.792   7.940  14.011
   83SBC   H01L58247  11.829   7.981  14.103
   83SBC   C0GM58248  11.772   7.798  13.999
   83SBC   C0GL58249  11.780   7.722  14.108
   83SBC   H01M58250  11.796   7.765  14.205
   83SBC   O00J58251  11.756   7.586  14.110
   83SBC   C0GK58252  11.730   7.535  13.985
   83SBC   H01N58253  11.717   7.428  13.989
   83SBC   C05K58254  11.728   7.604  13.873
   83SBC   C05J58255  11.701   7.535  13.753
   83SBC   C04Y58256  11.696   7.394  13.726
   83SBC   C04X58257  11.646   7.336  13.607
   83SBC   O00658258  11.736   7.301  13.821
   83SBC   C05358259  11.690   7.174  13.830
   83SBC   C04O58260  11.654   7.111  13.711
   83SBC   C03C58261  11.619   6.970  13.692
   83SBC   C03B58262  11.599   6.858  13.782
   83SBC   C05458263  11.599   6.871  13.926
   83SBC   C0GR58264  11.561   6.768  14.018
   83SBC   C03M58265  11.512   6.632  14.008
   83SBC   C03I58266  11.461   6.572  13.888
   83SBC   C03J58267  11.398   6.445  13.900
   83SBC   N00258268  11.331   6.389  13.789
   83SBC   C02U58269  11.262   6.266  13.797
   83SBC   C02T58270  11.167   6.220  13.702
   83SBC   C02Z58271  11.098   6.106  13.728
   83SBC   N00158272  10.993   6.062  13.638
   83SBC   C02R58273  10.915   5.950  13.672
   83SBC   C03258274  10.937   5.885  13.791
   83SBC   C03158275  11.046   5.921  13.870
   83SBC   H00758276  11.071   5.867  13.960
   83SBC   C03358277  10.856   5.769  13.808
   83SBC   H00358278  10.868   5.716  13.901
   83SBC   O00458279  10.747   5.743  13.731
   83SBC   C03458280  10.735   5.792  13.604
   83SBC   C03558281  10.645   5.745  13.512
   83SBC   C03658282  10.633   5.807  13.389
   83SBC   H00558283  10.584   5.761  13.304
   83SBC   C03758284  10.717   5.912  13.359
   83SBC   H00658285  10.712   5.949  13.258
   83SBC   C00D58286  10.797   5.977  13.458
   83SBC   C00C58287  10.866   6.094  13.429
   83SBC   C00B58288  10.839   6.186  13.313
   83SBC   C00A58289  10.747   6.214  13.191
   83SBC   C00958290  10.815   6.319  13.125
   83SBC   C00858291  10.772   6.389  13.009
   83SBC   C00758292  10.652   6.346  12.950
   83SBC   C00658293  10.603   6.419  12.841
   83SBC   C00558294  10.477   6.385  12.782
   83SBC   C00458295  10.410   6.270  12.820
   83SBC   C00358296  10.457   6.197  12.933
   83SBC   C00258297  10.394   6.079  12.970
   83SBC   C01C58298  10.280   6.040  12.906
   83SBC   C01B58299  10.224   5.913  12.928
   83SBC   H00058300  10.258   5.835  12.995
   83SBC   C00158301  10.423   6.029  13.096
   83SBC   C00058302  10.528   6.091  13.172
   83SBC   C01U58303  10.484   6.062  13.302
   83SBC   H00258304  10.523   6.105  13.393
   83SBC   C01T58305  10.374   5.955  13.293
   83SBC   O00258306  10.318   5.887  13.376
   83SBC   O00158307  10.348   5.939  13.166
   83SBC   C01S58308  10.578   6.236  12.997
   83SBC   C00N58309  10.847   6.500  12.975
   83SBC   C00M58310  10.957   6.541  13.048
   83SBC   C00J58311  11.000   6.471  13.160
   83SBC   C00I58312  11.100   6.508  13.247
   83SBC   C00H58313  11.120   6.426  13.357
   83SBC   C00G58314  11.048   6.311  13.385
   83SBC   C00F58315  11.056   6.239  13.496
   83SBC   C01X58316  11.224   6.465  13.446
   83SBC   C01W58317  11.293   6.580  13.419
   83SBC   C01V58318  11.262   6.657  13.302
   83SBC   C02058319  11.314   6.784  13.285
   83SBC   C01Z58320  11.373   6.632  13.517
   83SBC   C02Y58321  11.436   6.748  13.481
   83SBC   C03958322  11.528   6.792  13.580
   83SBC   C02W58323  11.387   6.569  13.646
   83SBC   C01Y58324  11.236   6.398  13.562
   83SBC   C00U58325  11.165   6.618  13.213
   83SBC   C00S58326  11.118   6.704  13.113
   83SBC   C00T58327  11.169   6.830  13.099
   83SBC   C00R58328  11.022   6.660  13.027
   83SBC   C00Q58329  10.983   6.738  12.923
   83SBC   C00V58330  11.041   6.867  12.909
   83SBC   C02458331  10.989   6.953  12.818
   83SBC   C00X58332  10.888   6.907  12.733
   83SBC   C00P58333  10.876   6.693  12.847
   83SBC   C00O58334  10.806   6.572  12.867
   83SBC   C00K58335  10.922   6.362  13.193
   83SBC   N00058336  10.625   6.176  13.122
   83SBC   C00L58337  10.938   6.281  13.300
   83SBC   H00458338  10.590   5.656  13.538
   83SBC   C02Q58339  10.816   5.906  13.575
   83SBC   C00E58340  10.968   6.132  13.521
   83SBC   C03058341  11.123   6.032  13.848
   83SBC   O00358342  11.227   6.064  13.934
   83SBC   C02S58343  11.148   6.286  13.590
   83SBC   C03858344  11.282   6.190  13.917
   83SBC   C03L58345  11.360   6.241  14.022
   83SBC   H00858346  11.367   6.180  14.110
   83SBC   C02V58347  11.320   6.453  13.663
   83SBC   C03K58348  11.410   6.371  14.020
   83SBC   C0BK58349  11.469   6.435  14.133
   83SBC   H00T58350  11.470   6.385  14.228
   83SBC   C03H58351  11.462   6.626  13.753
   83SBC   C0BL58352  11.515   6.560  14.133
   83SBC   C0GU58353  11.559   6.623  14.249
   83SBC   H01O58354  11.575   6.565  14.339
   83SBC   C0GT58355  11.587   6.759  14.266
   83SBC   H01P58356  11.615   6.804  14.360
   83SBC   C0GS58357  11.584   6.828  14.148
   83SBC   C0GV58358  11.616   6.961  14.135
   83SBC   C0GW58359  11.632   7.058  14.240
   83SBC   H01Q58360  11.614   7.031  14.343
   83SBC   C0GX58361  11.681   7.177  14.199
   83SBC   H01R58362  11.693   7.260  14.268
   83SBC   O00L58363  11.714   7.210  14.064
   83SBC   C0GQ58364  11.637   6.991  13.998
   83SBC   C03A58365  11.526   6.748  13.717
   83SBC   C05L58366  11.681   7.120  13.963
   83SBC   C04W58367  11.665   7.614  13.637
   83SBC   C05I58368  11.680   7.755  13.646
   83SBC   C05O58369  11.726   7.820  13.761
   83SBC   C05258370  11.650   7.838  13.536
   83SBC   C04V58371  11.608   7.561  13.521
   83SBC   C04U58372  11.566   7.643  13.416
   83SBC   N00958373  11.744   7.739  13.874
   83SBC   C0GP58374  11.737   7.961  13.775
   83SBC   C05W58375  11.710   8.039  13.663
   83SBC   C07D58376  11.731   8.395  13.573
   83SBC   C06J58377  11.608   8.285  13.349
   83SBC   C05P58378  11.658   7.978  13.550
   83SBC   C05R58379  11.511   8.098  13.240
   83SBC   C04Z58380  11.592   7.781  13.427
   83SBC   C04C58381  11.421   7.901  13.133
   83SBC   C04G58382  11.318   7.710  13.019
   83SBC   C04J58383  11.273   7.444  12.992
   83SBC   C04T58384  11.506   7.592  13.304
   83SBC   N00358385  11.594   7.419  13.506
   83SBC   C04P58386  11.627   7.198  13.596
   83SBC   C03D58387  11.578   6.921  13.563
   83SBC   C02158388  11.410   6.831  13.373
   83SBC   C03F58389  11.434   7.189  13.277
   83SBC   C02258390  11.270   6.872  13.188
   83SBC   C02A58391  11.301   7.227  13.082
   83SBC   C02358392  11.126   6.912  13.000
   83SBC   C02558393  11.022   7.082  12.808
   83SBC   C02D58394  10.957   7.166  12.718
   83SBC   C02E58395  10.862   7.123  12.626
   83SBC   C02N58396  10.789   7.205  12.545
   83SBC   C04N58397  11.242   7.310  12.989
   83SBC   C02P58398  10.987   7.299  12.718
   83SBC   C04I58399  11.213   7.527  12.902
   83SBC   C04458400  11.082   7.697  12.732
   83SBC   C04358401  10.915   7.389  12.633
   83SBC   C05N58402  10.816   7.338  12.545
   83SBC   C09U58403  10.619   7.618  12.292
   83SBC   C09V58404  10.552   7.719  12.227
   83SBC   C09X58405  10.447   7.688  12.147
   83SBC   C09Y58406  10.365   7.776  12.083
   83SBC   C0A158407  10.399   7.905  12.086
   83SBC   C0A258408  10.512   7.943  12.163
   83SBC   C0A458409  10.539   8.076  12.171
   83SBC   C07158410  10.646   8.120  12.248
   83SBC   C0A558411  10.675   8.254  12.259
   83SBC   C0A958412  10.590   8.344  12.197
   83SBC   C0A858413  10.486   8.300  12.122
   83SBC   C0AP58414  10.409   8.390  12.053
   83SBC   C0BY58415  10.300   8.349  11.983
   83SBC   C0BX58416  10.261   8.219  11.970
   83SBC   C0C258417  10.141   8.184  11.903
   83SBC   C0C358418  10.096   8.052  11.915
   83SBC   C0CT58419  10.180   7.959  11.980
   83SBC   C0C158420  10.063   8.281  11.840
   83SBC   C0C058421  10.097   8.422  11.867
   83SBC   C0A758422  10.341   8.130  12.038
   83SBC   C0BZ58423  10.215   8.448  11.936
   83SBC   C0BO58424  10.247   8.580  11.947
   83SBC   C0BN58425  10.359   8.626  12.013
   83SBC   C0BM58426  10.377   8.761  12.021
   83SBC   C0B958427  10.480   8.808  12.098
   83SBC   C0B858428  10.558   8.712  12.157
   83SBC   C0AD58429  10.540   8.574  12.143
   83SBC   C0AF58430  10.662   8.758  12.240
   83SBC   C0AG58431  10.679   8.894  12.271
   83SBC   C0B758432  10.586   8.982  12.213
   83SBC   C0AE58433  10.744   8.662  12.288
   83SBC   C0AB58434  10.730   8.522  12.281
   83SBC   C0AA58435  10.800   8.428  12.358
   83SBC   C0AJ58436  10.837   8.710  12.379
   83SBC   C0AK58437  10.900   8.616  12.460
   83SBC   C06W58438  10.971   8.688  12.548
   83SBC   C0AI58439  10.861   8.845  12.422
   83SBC   C0BP58440  10.152   8.655  11.884
   83SBC   C0BQ58441  10.169   8.799  11.888
   83SBC   C0BW58442  10.437   8.528  12.069
   83SBC   C0AC58443  10.617   8.478  12.206
   83SBC   C0A658444  10.456   8.167  12.110
   83SBC   C0A358445  10.308   7.996  12.031
   83SBC   C09Z58446  10.239   7.739  12.031
   83SBC   C09W58447  10.592   7.850  12.227
   83SBC   C07258448  10.692   7.892  12.307
   83SBC   C09H58449  10.414   7.553  12.133
   83SBC   C09G58450  10.303   7.515  12.059
   83SBC   C09P58451  10.298   7.380  12.067
   83SBC   C02O58452  10.502   7.165  12.308
   83SBC   C02M58453  10.676   7.158  12.471
   83SBC   C02F58454  10.826   6.991  12.643
   83SBC   C00W58455  10.843   6.778  12.751
   83SBC   C01R58456  10.687   6.533  12.802
   83SBC   C01N58457  10.577   6.755  12.543
   83SBC   C01L58458  10.362   6.736  12.436
   83SBC   C01H58459  10.098   6.490  12.479
   83SBC   C01K58460  10.409   6.458  12.676
   83SBC   C01E58461  10.283   6.237  12.768
   83SBC   C01G58462  10.018   6.377  12.534
   83SBC   C01D58463  10.217   6.120  12.807
   83SBC   C01A58464  10.097   5.880  12.881
   83SBC   H00158465  10.044   5.795  12.921
   83SBC   C01F58466   9.889   6.158  12.650
   83SBC   C03P58467   9.619   6.114  12.622
   83SBC   C03T58468   9.600   6.293  12.481
   83SBC   C08I58469   9.473   6.492  12.327
   83SBC   C08J58470   9.417   6.607  12.276
   83SBC   C08L58471   9.432   6.833  12.177
   83SBC   C09358472   9.455   7.064  12.084
   83SBC   C08Z58473   9.732   7.025  12.076
   83SBC   C09T58474   9.645   7.477  11.931
   83SBC   C09S58475   9.907   7.233  11.957
   83SBC   C09Q58476  10.176   7.327  12.031
   83SBC   C09F58477  10.203   7.609  12.021
   83SBC   C09E58478   9.859   7.580  11.915
   83SBC   C0A058479  10.139   7.827  11.981
   83SBC   C0CU58480   9.970   8.018  11.863
   83SBC   C0CR58481   9.900   8.115  11.784
   83SBC   C0CZ58482   9.773   8.076  11.734
   83SBC   C0DA58483   9.717   7.608  11.909
   83SBC   C0D958484   9.429   7.821  11.854
   83SBC   H00V58485   9.377   7.773  11.936
   83SBC   C0CY58486   9.722   7.946  11.765
   83SBC   C0DF58487   9.380   7.925  11.769
   83SBC   C0DE58488   9.280   8.028  11.758
   83SBC   C0GI58489   9.147   8.045  11.807
   83SBC   H01K58490   9.096   7.969  11.865
   83SBC   C0GJ58491   9.074   8.149  11.767
   83SBC   H01J58492   8.973   8.158  11.802
   83SBC   O00I58493   9.130   8.261  11.703
   83SBC   C0GH58494   9.266   8.260  11.667
   83SBC   C0GG58495   9.318   8.386  11.617
   83SBC   O00G58496   9.218   8.468  11.585
   83SBC   C0G858497   9.248   8.601  11.566
   83SBC   C0G958498   9.141   8.682  11.534
   83SBC   H01G58499   9.040   8.651  11.513
   83SBC   C0GA58500   9.152   8.820  11.535
   83SBC   H01H58501   9.064   8.875  11.507
   83SBC   C0GB58502   9.272   8.882  11.554
   83SBC   C0EP58503   9.385   8.796  11.578
   83SBC   C0E858504   9.510   8.864  11.618
   83SBC   C0CK58505   9.649   8.835  11.629
   83SBC   C0CL58506   9.703   8.713  11.586
   83SBC   C0E958507   9.622   8.598  11.556
   83SBC   C0GE58508   9.480   8.559  11.570
   83SBC   C0E758509   9.499   8.994  11.662
   83SBC   C0CJ58510   9.627   9.051  11.693
   83SBC   C0E658511   9.637   9.183  11.735
   83SBC   H00Y58512   9.721   9.236  11.777
   83SBC   C0EO58513   9.522   9.262  11.715
   83SBC   H01158514   9.522   9.369  11.730
   83SBC   C0G658515   9.394   9.210  11.660
   83SBC   C0G558516   9.281   9.289  11.613
   83SBC   H01F58517   9.281   9.396  11.625
   83SBC   C0GD58518   9.179   9.227  11.559
   83SBC   H01I58519   9.100   9.292  11.523
   83SBC   O00H58520   9.176   9.091  11.530
   83SBC   C0EQ58521   9.391   9.073  11.635
   83SBC   C0GC58522   9.286   9.022  11.565
   83SBC   C0G758523   9.379   8.654  11.574
   83SBC   C0DD58524   9.339   8.135  11.682
   83SBC   C0GF58525   9.453   8.418  11.576
   83SBC   C0CO58526   9.718   8.499  11.535
   83SBC   C0D058527   9.710   8.176  11.658
   83SBC   C0C458528   9.948   8.244  11.769
   83SBC   C0CN58529   9.851   8.540  11.554
   83SBC   C0CP58530  10.055   8.560  11.836
   83SBC   C0CM58531   9.846   8.681  11.580
   83SBC   C0CI58532   9.726   8.948  11.681
   83SBC   C0CD58533  10.061   9.261  11.786
   83SBC   C0BR58534  10.071   8.889  11.832
   83SBC   C0CS58535  10.277   8.847  11.966
   83SBC   C0B658536  10.482   8.938  12.130
   83SBC   C0CG58537  10.231   9.210  11.944
   83SBC   C0CF58538  10.151   9.301  11.882
   83SBC   C0E558539  10.008   9.489  11.738
   83SBC   C0DT58540  10.006   9.749  11.804
   83SBC   C0DL58541  10.255   9.620  12.038
   83SBC   C0DM58542  10.352   9.667  12.122
   83SBC   C0DY58543  10.254   9.883  12.112
   83SBC   C0DU58544   9.997   9.870  11.854
   83SBC   C0F058545   9.928  10.104  11.805
   83SBC   C0F458546   9.989  10.367  11.807
   83SBC   C0FG58547  10.141  10.234  12.117
   83SBC   O00B58548  10.133  10.528  11.915
   83SBC   C0FN58549  10.245  10.297  12.172
   83SBC   C0DZ58550  10.253  10.019  12.149
   83SBC   O00C58551  10.564  10.039  12.335
   83SBC   C0FR58552  10.655   9.958  12.397
   83SBC   O00D58553  10.747  10.012  12.454
   83SBC   C0E058554  10.351   9.799  12.161
   83SBC   C0E358555  10.641   9.815  12.379
   83SBC   C0AW58556  10.725   9.725  12.444
   83SBC   C0AV58557  10.824   9.750  12.540
   83SBC   H00Q58558  10.847   9.854  12.563
   83SBC   C0AU58559  10.900   9.654  12.609
   83SBC   H00R58560  10.977   9.685  12.678
   83SBC   C0AT58561  10.881   9.513  12.578
   83SBC   C0AS58562  10.940   9.388  12.600
   83SBC   C0AR58563  11.074   9.377  12.661
   83SBC   C0BE58564  10.790   9.495  12.471
   83SBC   C0DN58565  10.434   9.573  12.174
   83SBC   C0AX58566  10.705   9.593  12.417
   83SBC   C0BB58567  10.512   9.345  12.214
   83SBC   C0BD58568  10.792   9.360  12.441
   83SBC   C0B258569  10.602   9.119  12.240
   83SBC   C0AH58570  10.774   8.944  12.370
   83SBC   C0BF58571  10.874   9.284  12.521
   83SBC   C0AL58572  10.957   8.831  12.528
   83SBC   C07U58573  11.089   9.128  12.683
   83SBC   C0AQ58574  11.125   9.260  12.716
   83SBC   C0BG58575  11.166   9.484  12.694
   83SBC   C0FY58576  11.506   9.437  12.755
   83SBC   C0BJ58577  11.234   9.566  12.597
   83SBC   H00S58578  11.196   9.602  12.503
   83SBC   C0FZ58579  11.568   9.502  12.646
   83SBC   C07S58580  11.547   9.302  12.788
   83SBC   C0G158581  11.858   9.288  12.588
   83SBC   C07K58582  11.915   8.992  12.814
   83SBC   C07H58583  11.642   9.037  12.855
   83SBC   C06B58584  11.679   8.824  13.132
   83SBC   C06N58585  11.504   8.684  13.063
   83SBC   C06658586  11.398   8.968  12.847
   83SBC   C06258587  11.176   8.774  12.768
   83SBC   C05Y58588  11.363   8.500  12.959
   83SBC   C06158589  11.094   8.663  12.761
   83SBC   C05H58590  11.165   8.309  12.748
   83SBC   C06V58591  11.036   8.613  12.640
   83SBC   C06Y58592  10.886   8.472  12.451
   83SBC   C05C58593  11.013   8.150  12.588
   83SBC   C06Z58594  10.773   8.292  12.348
   83SBC   C07058595  10.722   8.029  12.319
   83SBC   C05B58596  10.987   8.014  12.574
   83SBC   C05758597  10.921   7.745  12.557
   83SBC   C05958598  10.759   7.796  12.385
   84SBC   C05858599   8.783   4.358  10.957
   84SBC   C05A58600   8.751   4.256  11.047
   84SBC   C06Q58601   8.658   4.274  11.145
   84SBC   C06R58602   8.627   4.171  11.238
   84SBC   C06S58603   8.681   4.039  11.221
   84SBC   C06T58604   8.650   3.939  11.317
   84SBC   C06U58605   8.680   3.790  11.315
   84SBC   C06X58606   8.759   3.711  11.238
   84SBC   C06058607   8.743   3.576  11.283
   84SBC   C05Z58608   8.848   3.470  11.291
   84SBC   C06858609   8.818   3.400  11.422
   84SBC   C06758610   8.886   3.289  11.485
   84SBC   C06958611   8.983   3.212  11.411
   84SBC   C06A58612   9.054   3.092  11.454
   84SBC   C07358613   9.102   3.059  11.582
   84SBC   C07P58614   9.241   3.028  11.598
   84SBC   C07O58615   9.341   3.039  11.496
   84SBC   H00D58616   9.311   3.086  11.403
   84SBC   C07N58617   9.475   2.991  11.513
   84SBC   H00E58618   9.541   3.004  11.429
   84SBC   C07M58619   9.514   2.957  11.638
   84SBC   H00F58620   9.616   2.929  11.658
   84SBC   C07L58621   9.423   2.945  11.745
   84SBC   C07Q58622   9.459   2.897  11.880
   84SBC   H00G58623   9.561   2.864  11.892
   84SBC   O00F58624   9.372   2.885  11.984
   84SBC   C07J58625   9.239   2.917  11.954
   84SBC   C07I58626   9.193   2.962  11.826
   84SBC   N00458627   9.051   2.999  11.808
   84SBC   C07R58628   8.960   2.958  11.910
   84SBC   C07T58629   9.010   2.916  12.032
   84SBC   C0FX58630   8.928   2.897  12.138
   84SBC   C0FW58631   8.961   2.882  12.273
   84SBC   C0G058632   9.101   2.878  12.296
   84SBC   C0G258633   9.140   2.871  12.432
   84SBC   H01E58634   9.245   2.873  12.459
   84SBC   C0G358635   9.049   2.868  12.534
   84SBC   H01C58636   9.082   2.866  12.637
   84SBC   C0G458637   8.917   2.894  12.506
   84SBC   H01D58638   8.853   2.903  12.592
   84SBC   O00E58639   9.203   2.883  12.199
   84SBC   C0FV58640   8.863   2.887  12.376
   84SBC   C0FU58641   8.732   2.903  12.345
   84SBC   H01B58642   8.657   2.926  12.421
   84SBC   C0FT58643   8.690   2.901  12.214
   84SBC   C0FS58644   8.576   2.938  12.144
   84SBC   C0BI58645   8.596   2.929  11.997
   84SBC   C0BH58646   8.514   3.027  11.933
   84SBC   C07F58647   8.560   3.133  11.848
   84SBC   C07E58648   8.671   3.137  11.760
   84SBC   C07G58649   8.789   3.063  11.776
   84SBC   C07458650   8.881   3.117  11.689
   84SBC   C06558651   8.702   3.245  11.674
   84SBC   C06458652   8.613   3.351  11.687
   84SBC   C06358653   8.625   3.466  11.616
   84SBC   C07558654   8.517   3.558  11.672
   84SBC   C0AM58655   8.455   3.501  11.789
   84SBC   C0AN58656   8.362   3.564  11.886
   84SBC   C0AO58657   8.292   3.702  11.891
   84SBC   C0B158658   8.191   3.733  11.991
   84SBC   C0B058659   8.156   3.646  12.087
   84SBC   C0AZ58660   8.069   3.675  12.198
   84SBC   C0AY58661   8.049   3.580  12.298
   84SBC   N00758662   7.971   3.610  12.412
   84SBC   C0E258663   7.955   3.519  12.517
   84SBC   C0E158664   7.869   3.553  12.619
   84SBC   C0E458665   7.854   3.459  12.728
   84SBC   C0FF58666   7.777   3.494  12.841
   84SBC   C0FJ58667   7.730   3.415  12.950
   84SBC   C0FK58668   7.690   3.279  12.936
   84SBC   H01658669   7.719   3.207  12.861
   84SBC   C0FL58670   7.574   3.262  13.021
   84SBC   H01758671   7.492   3.192  13.022
   84SBC   C0FM58672   7.563   3.371  13.108
   84SBC   C0FH58673   7.448   3.451  13.151
   84SBC   C0FI58674   7.489   3.583  13.115
   84SBC   C0F358675   7.396   3.683  13.089
   84SBC   C0F258676   7.445   3.786  13.021
   84SBC   C0DW58677   7.557   3.780  12.937
   84SBC   C0FE58678   7.640   3.676  12.947
   84SBC   C0DV58679   7.574   3.867  12.831
   84SBC   C0DX58680   7.661   3.831  12.729
   84SBC   C0DK58681   7.665   3.916  12.618
   84SBC   C0DJ58682   7.584   4.027  12.611
   84SBC   C0DI58683   7.596   4.116  12.505
   84SBC   C0DH58684   7.694   4.096  12.404
   84SBC   C0DG58685   7.769   3.978  12.412
   84SBC   C0BV58686   7.849   3.943  12.304
   84SBC   C0BC58687   7.922   3.823  12.302
   84SBC   C0BA58688   7.859   4.030  12.194
   84SBC   C0B458689   7.955   4.002  12.094
   84SBC   C0B358690   8.032   3.885  12.099
   84SBC   C0B558691   7.981   4.098  11.996
   84SBC   C0BU58692   7.905   4.215  11.996
   84SBC   C0BT58693   7.793   4.232  12.078
   84SBC   C0BS58694   7.711   4.343  12.073
   84SBC   C0CC58695   7.609   4.365  12.167
   84SBC   C0CB58696   7.519   4.477  12.151
   84SBC   C0CH58697   7.453   4.511  12.273
   84SBC   C0DO58698   7.440   4.423  12.378
   84SBC   C0DP58699   7.340   4.440  12.473
   84SBC   C0EA58700   7.248   4.556  12.470
   84SBC   H01258701   7.246   4.634  12.395
   84SBC   O00958702   7.152   4.576  12.569
   84SBC   C0EH58703   7.120   4.468  12.649
   84SBC   C0EG58704   7.002   4.469  12.718
   84SBC   C0EJ58705   6.891   4.560  12.728
   84SBC   H01058706   6.887   4.648  12.665
   84SBC   C0EK58707   6.790   4.508  12.814
   84SBC   H00Z58708   6.694   4.553  12.830
   84SBC   C0EL58709   6.838   4.380  12.856
   84SBC   C0EM58710   6.778   4.267  12.925
   84SBC   C0EW58711   6.650   4.256  12.985
   84SBC   H01358712   6.592   4.346  12.975
   84SBC   C0EX58713   6.610   4.133  13.053
   84SBC   H01458714   6.513   4.128  13.100
   84SBC   C0F158715   6.700   4.018  13.054
   84SBC   C0EU58716   6.821   4.035  12.999
   84SBC   C0ET58717   6.923   3.941  12.991
   84SBC   C0ES58718   7.024   4.006  12.912
   84SBC   C0EE58719   6.982   4.136  12.876
   84SBC   C0ED58720   7.038   4.246  12.813
   84SBC   C0EC58721   7.167   4.252  12.747
   84SBC   C0EB58722   7.270   4.165  12.771
   84SBC   C0EN58723   7.263   4.059  12.872
   84SBC   C0ER58724   7.381   3.984  12.906
   84SBC   C0DS58725   7.388   4.157  12.690
   84SBC   C0DR58726   7.401   4.244  12.585
   84SBC   C0EY58727   7.158   3.990  12.942
   84SBC   C0EZ58728   7.209   3.876  13.012
   84SBC   C0F558729   7.161   3.750  13.074
   84SBC   C0F658730   7.025   3.727  13.093
   84SBC   N00858731   6.994   3.598  13.160
   84SBC   C0F758732   7.089   3.495  13.184
   84SBC   C0FQ58733   7.042   3.369  13.230
   84SBC   H01858734   7.120   3.296  13.246
   84SBC   C0FP58735   6.914   3.343  13.266
   84SBC   H01958736   6.874   3.248  13.297
   84SBC   C0FO58737   6.824   3.450  13.254
   84SBC   H01A58738   6.722   3.417  13.268
   84SBC   C0F858739   7.224   3.527  13.164
   84SBC   C0F958740   6.859   3.578  13.200
   84SBC   C0FA58741   6.757   3.676  13.185
   84SBC   H01558742   6.654   3.658  13.212
   84SBC   C0FB58743   6.781   3.799  13.116
   84SBC   C0FD58744   6.913   3.820  13.073
   84SBC   C0FC58745   6.672   3.897  13.121
   84SBC   O00A58746   6.566   3.880  13.177
   84SBC   C0EV58747   6.857   4.151  12.935
   84SBC   C0EF58748   6.963   4.365  12.796
   84SBC   C0EI58749   7.204   4.357  12.659
   84SBC   C0DQ58750   7.317   4.346  12.575
   84SBC   C0CE58751   7.525   4.314  12.385
   84SBC   H00U58752   7.397   4.602  12.283
   84SBC   C0CA58753   7.497   4.531  12.025
   84SBC   C0C958754   7.598   4.513  11.928
   84SBC   C0C858755   7.581   4.571  11.796
   84SBC   C0C758756   7.669   4.599  11.683
   84SBC   C0C658757   7.611   4.670  11.573
   84SBC   C0C558758   7.644   4.770  11.474
   84SBC   C0CQ58759   7.544   4.860  11.433
   84SBC   C0D158760   7.425   4.866  11.506
   84SBC   C0D858761   7.380   4.996  11.504
   84SBC   C0D758762   7.446   5.059  11.394
   84SBC   C0D658763   7.452   5.196  11.371
   84SBC   C0D558764   7.532   5.261  11.270
   84SBC   C0D458765   7.612   5.207  11.170
   84SBC   C0D358766   7.681   5.317  11.115
   84SBC   C0CX58767   7.812   5.266  11.077
   84SBC   C0CW58768   7.840   5.136  11.155
   84SBC   C0CV58769   7.951   5.047  11.192
   84SBC   C0D258770   8.072   5.058  11.125
   84SBC   C09D58771   8.112   5.161  11.033
   84SBC   C09C58772   8.240   5.156  10.967
   84SBC   C09B58773   8.284   5.239  10.867
   84SBC   C09A58774   8.200   5.341  10.821
   84SBC   C09958775   8.093   5.371  10.891
   84SBC   C09858776   8.016   5.468  10.819
   84SBC   C08Y58777   8.076   5.482  10.693
   84SBC   C08X58778   8.024   5.538  10.571
   84SBC   C08W58779   7.885   5.578  10.564
   84SBC   C08U58780   7.778   5.556  10.659
   84SBC   C08V58781   7.771   5.477  10.779
   84SBC   C0DC58782   7.635   5.494  10.823
   84SBC   H00W58783   7.605   5.453  10.918
   84SBC   C0DB58784   7.557   5.576  10.733
   84SBC   H00X58785   7.453   5.606  10.735
   84SBC   C08T58786   7.652   5.612  10.636
   84SBC   C08S58787   7.625   5.700  10.532
   84SBC   H00N58788   7.533   5.756  10.533
   84SBC   C08R58789   7.715   5.707  10.426
   84SBC   C08Q58790   7.689   5.772  10.301
   84SBC   H00O58791   7.595   5.822  10.289
   84SBC   C08P58792   7.765   5.768  10.185
   84SBC   C08O58793   7.732   5.818  10.057
   84SBC   H00P58794   7.634   5.861  10.048
   84SBC   C08N58795   7.822   5.808   9.947
   84SBC   C08M58796   7.785   5.863   9.817
   84SBC   O00858797   7.681   5.931   9.805
   84SBC   O00758798   7.868   5.842   9.708
   84SBC   C08H58799   7.984   5.781   9.726
   84SBC   C08G58800   8.078   5.765   9.611
   84SBC   C03V58801   8.057   5.806   9.482
   84SBC   H00958802   7.966   5.859   9.457
   84SBC   C03U58803   8.148   5.779   9.378
   84SBC   C03W58804   8.128   5.807   9.233
   84SBC   H00A58805   8.040   5.857   9.196
   84SBC   C03X58806   8.223   5.770   9.144
   84SBC   H00B58807   8.210   5.792   9.040
   84SBC   O00558808   8.342   5.712   9.183
   84SBC   C03O58809   8.358   5.686   9.314
   84SBC   C03N58810   8.480   5.621   9.348
   84SBC   O00058811   8.558   5.581   9.245
   84SBC   C01958812   8.664   5.499   9.268
   84SBC   C01858813   8.701   5.459   9.399
   84SBC   C01758814   8.627   5.504   9.505
   84SBC   C01658815   8.652   5.449   9.635
   84SBC   C01558816   8.759   5.362   9.642
   84SBC   C01458817   8.785   5.304   9.768
   84SBC   C01358818   8.710   5.334   9.885
   84SBC   C01258819   8.786   5.267   9.995
   84SBC   C01158820   8.891   5.202   9.928
   84SBC   C01058821   8.986   5.126   9.994
   84SBC   C00Z58822   9.082   5.040   9.938
   84SBC   C00Y58823   9.108   4.956  10.053
   84SBC   C01O58824   9.033   4.988  10.163
   84SBC   C01P58825   9.011   4.901  10.262
   84SBC   C02L58826   8.908   4.934  10.345
   84SBC   C02K58827   8.832   5.049  10.313
   84SBC   C01M58828   8.848   5.130  10.194
   84SBC   C02J58829   8.743   5.087  10.416
   84SBC   C02I58830   8.656   5.196  10.419
   84SBC   C02H58831   8.617   5.283  10.326
   84SBC   C01Q58832   8.652   5.293  10.195
   84SBC   C02G58833   8.573   5.393  10.131
   84SBC   C08958834   8.500   5.455  10.235
   84SBC   C08858835   8.388   5.521  10.192
   84SBC   C08758836   8.417   5.526  10.046
   84SBC   C08658837   8.323   5.580   9.954
   84SBC   C03S58838   8.343   5.594   9.807
   84SBC   N00658839   8.229   5.661   9.760
   84SBC   C08F58840   8.143   5.680   9.863
   84SBC   C01J58841   8.447   5.561   9.712
   84SBC   C03R58842   8.419   5.611   9.581
   84SBC   C03Q58843   8.301   5.678   9.545
   84SBC   C08E58844   8.192   5.632   9.978
   84SBC   C08D58845   8.113   5.639  10.101
   84SBC   C08K58846   7.979   5.700  10.091
   84SBC   C08C58847   8.145   5.604  10.230
   84SBC   C09158848   8.061   5.615  10.346
   84SBC   C09258849   7.922   5.654  10.329
   84SBC   C08B58850   8.273   5.549  10.278
   84SBC   C09058851   8.251   5.514  10.421
   84SBC   C09458852   8.340   5.449  10.505
   84SBC   C09558853   8.309   5.393  10.629
   84SBC   C09R58854   8.401   5.294  10.666
   84SBC   C09758855   8.495   5.283  10.565
   84SBC   C09658856   8.457   5.381  10.471
   84SBC   C01I58857   8.540   5.456  10.002
   84SBC   C08A58858   8.522   5.378  10.351
   84SBC   C09L58859   8.594   5.192  10.543
   84SBC   C09K58860   8.636   5.076  10.610
   84SBC   C09J58861   8.586   5.041  10.739
   84SBC   C09I58862   8.608   4.920  10.803
   84SBC   C09O58863   8.686   4.797  10.780
   84SBC   C09N58864   8.769   4.780  10.664
   84SBC   C09M58865   8.785   4.868  10.552
   84SBC   C06O58866   8.847   4.659  10.666
   84SBC   C05M58867   8.830   4.561  10.762
   84SBC   C06P58868   8.728   4.572  10.855
   84SBC   C04258869   8.905   4.440  10.762
   84SBC   C04158870   8.999   4.417  10.659
   84SBC   C04058871   9.072   4.298  10.654
   84SBC   C03Z58872   9.161   4.272  10.549
   84SBC   C03Y58873   9.185   4.369  10.457
   84SBC   C02758874   9.273   4.341  10.352
   84SBC   C02658875   9.288   4.432  10.246
   84SBC   C02858876   9.377   4.409  10.143
   84SBC   C02958877   9.433   4.283  10.135
   84SBC   C02B58878   9.502   4.248  10.018
   84SBC   C02C58879   9.553   4.119  10.003
   84SBC   C02X58880   9.611   4.081   9.882
   84SBC   C03E58881   9.651   3.951   9.868
   84SBC   C03G58882   9.630   3.852   9.962
   84SBC   C04Q58883   9.588   3.891  10.083
   84SBC   C04R58884   9.556   3.797  10.181
   84SBC   C04S58885   9.494   3.830  10.300
   84SBC   C04L58886   9.453   3.963  10.316
   84SBC   C04M58887   9.476   4.060  10.222
   84SBC   C04K58888   9.374   3.997  10.427
   84SBC   C04F58889   9.337   3.893  10.518
   84SBC   C04E58890   9.384   3.766  10.505
   84SBC   C04D58891   9.345   3.663  10.590
   84SBC   C05058892   9.372   3.530  10.565
   84SBC   C05158893   9.321   3.427  10.643
   84SBC   C05Q58894   9.349   3.295  10.614
   84SBC   C05V58895   9.309   3.197  10.704
   84SBC   N00558896   9.341   3.062  10.675
   84SBC   C07V58897   9.408   3.032  10.560
   84SBC   C08258898   9.445   2.901  10.537
   84SBC   C08158899   9.453   2.803  10.638
   84SBC   C07C58900   9.384   2.833  10.752
   84SBC   C07B58901   9.367   2.736  10.851
   84SBC   C08058902   9.429   2.608  10.840
   84SBC   C07Z58903   9.410   2.519  10.945
   84SBC   H00L58904   9.453   2.421  10.932
   84SBC   C07958905   9.337   2.547  11.061
   84SBC   C07858906   9.285   2.675  11.072
   84SBC   C07758907   9.226   2.713  11.195
   84SBC   C07X58908   9.212   2.616  11.300
   84SBC   H00I58909   9.164   2.641  11.394
   84SBC   C07Y58910   9.252   2.486  11.280
   84SBC   H00H58911   9.217   2.415  11.353
   84SBC   C07658912   9.179   2.840  11.206
   84SBC   C06C58913   9.122   2.880  11.333
   84SBC   H00C58914   9.101   2.816  11.417
   84SBC   C06F58915   9.184   2.931  11.104
   84SBC   C06E58916   9.130   3.056  11.112
   84SBC   C06G58917   9.143   3.157  11.023
   84SBC   C06H58918   9.214   3.125  10.910
   84SBC   C06I58919   9.256   2.994  10.893
   84SBC   C06L58920   9.091   3.286  11.052
   84SBC   C06M58921   9.017   3.321  11.171
   84SBC   C06K58922   9.114   3.387  10.957
   84SBC   C05S58923   9.194   3.358  10.847
   84SBC   C05U58924   9.067   3.513  10.973
   84SBC   C05X58925   8.977   3.546  11.079
   84SBC   C05G58926   8.937   3.681  11.073
   84SBC   C05F58927   8.987   3.771  10.982
   84SBC   C05E58928   8.938   3.900  11.003
   84SBC   C04858929   8.979   4.005  10.921
   84SBC   C05658930   8.918   4.120  10.941
   84SBC   C04558931   8.955   4.223  10.851
   84SBC   C04758932   9.073   3.972  10.823
   84SBC   C04958933   9.124   3.847  10.810
   84SBC   C04B58934   9.210   3.820  10.710
   84SBC   C04658935   9.110   4.077  10.734
   84SBC   C04H58936   9.192   4.050  10.629
   84SBC   C05D58937   8.842   3.899  11.103
   84SBC   C04A58938   9.085   3.747  10.893
   84SBC   C05T58939   9.118   3.611  10.883
   84SBC   C05558940   9.208   3.589  10.777
   84SBC   C06D58941   9.071   3.090  11.236
   84SBC   C07W58942   9.246   2.897  10.987
   84SBC   C08558943   9.319   2.450  11.162
   84SBC   H00M58944   9.347   2.348  11.144
   84SBC   C08458945   9.502   2.583  10.725
   84SBC   H00J58946   9.535   2.483  10.701
   84SBC   C07A58947   9.297   2.769  10.968
   84SBC   C08358948   9.515   2.678  10.625
   84SBC   H00K58949   9.580   2.650  10.543
   84SBC   O00K58950   9.499   2.864  10.417
   84SBC   C0GO58951   9.521   2.962  10.324
   84SBC   C0GN58952   9.572   2.932  10.200
   84SBC   H01L58953   9.578   2.829  10.166
   84SBC   C0GM58954   9.624   3.027  10.113
   84SBC   C0GL58955   9.688   2.987  10.002
   84SBC   H01M58956   9.700   2.882   9.978
   84SBC   O00J58957   9.715   3.074   9.901
   84SBC   C0GK58958   9.686   3.206   9.929
   84SBC   H01N58959   9.696   3.264   9.839
   84SBC   C05K58960   9.640   3.250  10.049
   84SBC   C05J58961   9.622   3.392  10.083
   84SBC   C04Y58962   9.670   3.497  10.000
   84SBC   C04X58963   9.641   3.631  10.029
   84SBC   O00658964   9.741   3.478   9.888
   84SBC   C05358965   9.723   3.540   9.773
   84SBC   C04O58966   9.687   3.673   9.794
   84SBC   C03C58967   9.692   3.780   9.698
   84SBC   C03B58968   9.699   3.780   9.554
   84SBC   C05458969   9.709   3.669   9.472
   84SBC   C0GR58970   9.702   3.669   9.332
   84SBC   C03M58971   9.681   3.773   9.229
   84SBC   C03I58972   9.647   3.911   9.257
   84SBC   C03J58973   9.624   3.996   9.144
   84SBC   N00258974   9.585   4.136   9.159
   84SBC   C02U58975   9.560   4.223   9.047
   84SBC   C02T58976   9.506   4.349   9.063
   84SBC   C02Z58977   9.456   4.416   8.954
   84SBC   N00158978   9.400   4.546   8.966
   84SBC   C02R58979   9.353   4.616   8.851
   84SBC   C03258980   9.362   4.556   8.720
   84SBC   C03158981   9.422   4.428   8.712
   84SBC   H00758982   9.419   4.383   8.613
   84SBC   C03358983   9.295   4.633   8.611
   84SBC   H00358984   9.311   4.591   8.512
   84SBC   O00458985   9.231   4.750   8.622
   84SBC   C03458986   9.241   4.805   8.749
   84SBC   C03558987   9.185   4.933   8.761
   84SBC   C03658988   9.197   5.007   8.883
   84SBC   H00558989   9.163   5.109   8.869
   84SBC   C03758990   9.248   4.943   8.997
   84SBC   H00658991   9.253   5.000   9.088
   84SBC   C00D58992   9.292   4.806   8.988
   84SBC   C00C58993   9.326   4.740   9.104
   84SBC   C00B58994   9.310   4.793   9.243
   84SBC   C00A58995   9.251   4.902   9.332
   84SBC   C00958996   9.295   4.880   9.461
   84SBC   C00858997   9.236   4.924   9.582
   84SBC   C00758998   9.135   5.020   9.574
   84SBC   C00658999   9.073   5.064   9.692
   84SBC   C00559000   8.968   5.160   9.677
   84SBC   C00459001   8.925   5.202   9.550
   84SBC   C00359002   8.980   5.145   9.436
   84SBC   C00259003   8.937   5.189   9.310
   84SBC   C01C59004   8.856   5.300   9.298
   84SBC   C01B59005   8.829   5.360   9.168
   84SBC   H00059006   8.893   5.330   9.087
   84SBC   C00159007   8.966   5.107   9.200
   84SBC   C00059008   9.051   4.994   9.220
   84SBC   C01U59009   9.002   4.907   9.129
   84SBC   H00259010   9.041   4.809   9.102
   84SBC   C01T59011   8.913   4.978   9.034
   84SBC   O00259012   8.866   4.946   8.924
   84SBC   O00159013   8.896   5.099   9.088
   84SBC   C01S59014   9.078   5.048   9.450
   84SBC   C00N59015   9.279   4.866   9.699
   84SBC   C00M59016   9.360   4.747   9.699
   84SBC   C00J59017   9.412   4.696   9.579
   84SBC   C00I59018   9.467   4.568   9.565
   84SBC   C00H59019   9.482   4.514   9.436
   84SBC   C00G59020   9.447   4.588   9.328
   84SBC   C00F59021   9.440   4.533   9.201
   84SBC   C01X59022   9.527   4.387   9.427
   84SBC   C01W59023   9.554   4.311   9.543
   84SBC   C01V59024   9.542   4.368   9.671
   84SBC   C02059025   9.549   4.286   9.782
   84SBC   C01Z59026   9.598   4.179   9.523
   84SBC   C02Y59027   9.623   4.116   9.641
   84SBC   C03959028   9.667   3.987   9.626
   84SBC   C02W59029   9.604   4.117   9.397
   84SBC   C01Y59030   9.536   4.327   9.300
   84SBC   C00U59031   9.486   4.495   9.678
   84SBC   C00S59032   9.444   4.547   9.803
   84SBC   C00T59033   9.453   4.465   9.916
   84SBC   C00R59034   9.384   4.667   9.814
   84SBC   C00Q59035   9.317   4.702   9.926
   84SBC   C00V59036   9.316   4.616  10.038
   84SBC   C02459037   9.228   4.635  10.141
   84SBC   C00X59038   9.160   4.754  10.152
   84SBC   C00P59039   9.240   4.817   9.928
   84SBC   C00O59040   9.222   4.903   9.814
   84SBC   C00K59041   9.375   4.765   9.468
   84SBC   N00059042   9.130   4.975   9.335
   84SBC   C00L59043   9.382   4.712   9.339
   84SBC   H00459044   9.149   4.986   8.674
   84SBC   C02Q59045   9.297   4.742   8.866
   84SBC   C00E59046   9.389   4.610   9.093
   84SBC   C03059047   9.480   4.361   8.824
   84SBC   O00359048   9.535   4.237   8.805
   84SBC   C02S59049   9.497   4.406   9.189
   84SBC   C03859050   9.577   4.176   8.917
   84SBC   C03L59051   9.616   4.047   8.900
   84SBC   H00859052   9.629   4.007   8.801
   84SBC   C02V59053   9.582   4.194   9.285
   84SBC   C03K59054   9.636   3.957   9.011
   84SBC   C0BK59055   9.668   3.826   8.999
   84SBC   H00T59056   9.674   3.783   8.900
   84SBC   C03H59057   9.638   3.977   9.385
   84SBC   C0BL59058   9.698   3.729   9.097
   84SBC   C0GU59059   9.730   3.595   9.065
   84SBC   H01O59060   9.723   3.566   8.961
   84SBC   C0GT59061   9.747   3.496   9.160
   84SBC   H01P59062   9.759   3.392   9.134
   84SBC   C0GS59063   9.730   3.538   9.290
   84SBC   C0GV59064   9.757   3.455   9.405
   84SBC   C0GW59065   9.791   3.318   9.409
   84SBC   H01Q59066   9.806   3.260   9.320
   84SBC   C0GX59067   9.805   3.271   9.531
   84SBC   H01R59068   9.842   3.170   9.538
   84SBC   O00L59069   9.784   3.342   9.648
   84SBC   C0GQ59070   9.735   3.540   9.518
   84SBC   C03A59071   9.669   3.912   9.509
   84SBC   C05L59072   9.750   3.475   9.645
   84SBC   C04W59073   9.572   3.431  10.208
   84SBC   C05I59074   9.525   3.333  10.293
   84SBC   C05O59075   9.539   3.198  10.266
   84SBC   C05259076   9.466   3.367  10.419
   84SBC   C04V59077   9.550   3.564  10.245
   84SBC   C04U59078   9.484   3.599  10.368
   84SBC   N00959079   9.610   3.165  10.148
   84SBC   C0GP59080   9.506   3.100  10.356
   84SBC   C05W59081   9.438   3.134  10.468
   84SBC   C07D59082   9.322   2.959  10.773
   84SBC   C06J59083   9.237   3.227  10.821
   84SBC   C05P59084   9.416   3.266  10.499
   84SBC   C05R59085   9.235   3.455  10.750
   84SBC   C04Z59086   9.452   3.498  10.455
   84SBC   C04C59087   9.257   3.692  10.694
   84SBC   C04G59088   9.242   3.921  10.616
   84SBC   C04J59089   9.314   4.121  10.437
   84SBC   C04T59090   9.460   3.733  10.393
   84SBC   N00359091   9.586   3.663  10.154
   84SBC   C04P59092   9.659   3.721   9.929
   84SBC   C03D59093   9.677   3.909   9.736
   84SBC   C02159094   9.599   4.164   9.770
   84SBC   C03F59095   9.548   4.023  10.107
   84SBC   C02259096   9.508   4.335   9.908
   84SBC   C02A59097   9.418   4.188  10.234
   84SBC   C02359098   9.388   4.497  10.035
   84SBC   C02559099   9.211   4.547  10.246
   84SBC   C02D59100   9.130   4.579  10.355
   84SBC   C02E59101   9.060   4.699  10.362
   84SBC   C02N59102   8.960   4.724  10.460
   84SBC   C04N59103   9.338   4.216  10.341
   84SBC   C02P59104   9.112   4.488  10.460
   84SBC   C04I59105   9.227   4.150  10.543
   84SBC   C04459106   9.053   4.203  10.752
   84SBC   C04359107   9.018   4.514  10.563
   84SBC   C05N59108   8.943   4.633  10.561
   84SBC   C09U59109   8.659   4.693  10.870
   84SBC   C09V59110   8.564   4.710  10.978
   84SBC   C09X59111   8.484   4.822  11.000
   84SBC   C09Y59112   8.370   4.837  11.080
   84SBC   C0A159113   8.350   4.739  11.167
   84SBC   C0A259114   8.443   4.633  11.166
   84SBC   C0A459115   8.423   4.533  11.260
   84SBC   C07159116   8.499   4.414  11.256
   84SBC   C0A559117   8.474   4.318  11.347
   84SBC   C0A959118   8.377   4.341  11.442
   84SBC   C0A859119   8.303   4.456  11.443
   84SBC   C0AP59120   8.208   4.473  11.544
   84SBC   C0BY59121   8.118   4.577  11.527
   84SBC   C0BX59122   8.118   4.664  11.425
   84SBC   C0C259123   8.010   4.747  11.402
   84SBC   C0C359124   8.024   4.848  11.308
   84SBC   C0CT59125   8.141   4.849  11.234
   84SBC   C0C159126   7.888   4.732  11.469
   84SBC   C0C059127   7.891   4.653  11.593
   84SBC   C0A759128   8.228   4.659  11.340
   84SBC   C0BZ59129   8.014   4.584  11.618
   84SBC   C0BO59130   8.009   4.504  11.729
   84SBC   C0BN59131   8.086   4.390  11.737
   84SBC   C0BM59132   8.044   4.295  11.823
   84SBC   C0B959133   8.118   4.181  11.823
   84SBC   C0B859134   8.223   4.163  11.734
   84SBC   C0AD59135   8.253   4.259  11.638
   84SBC   C0AF59136   8.291   4.041  11.728
   84SBC   C0AG59137   8.263   3.939  11.816
   84SBC   C0B759138   8.158   3.962  11.908
   84SBC   C0AE59139   8.380   4.029  11.627
   84SBC   C0AB59140   8.414   4.126  11.535
   84SBC   C0AA59141   8.500   4.097  11.430
   84SBC   C0AJ59142   8.449   3.911  11.622
   84SBC   C0AK59143   8.531   3.882  11.515
   84SBC   C06W59144   8.560   3.750  11.524
   84SBC   C0AI59145   8.424   3.793  11.699
   84SBC   C0BP59146   7.877   4.507  11.783
   84SBC   C0BQ59147   7.835   4.412  11.882
   84SBC   C0BW59148   8.185   4.377  11.640
   84SBC   C0AC59149   8.350   4.246  11.538
   84SBC   C0A659150   8.318   4.551  11.352
   84SBC   C0A359151   8.237   4.749  11.244
   84SBC   C09Z59152   8.282   4.944  11.071
   84SBC   C09W59153   8.539   4.608  11.069
   84SBC   C07259154   8.620   4.496  11.065
   84SBC   C09H59155   8.512   4.922  10.911
   84SBC   C09G59156   8.438   5.034  10.915
   84SBC   C09P59157   8.475   5.105  10.805
   84SBC   C02O59158   8.727   5.002  10.533
   84SBC   C02M59159   8.880   4.844  10.455
   84SBC   C02F59160   9.086   4.786  10.263
   84SBC   C00W59161   9.170   4.836  10.040
   84SBC   C01R59162   9.122   5.003   9.809
   84SBC   C01N59163   8.962   5.096  10.127
   84SBC   C01L59164   8.754   5.228  10.133
   84SBC   C01H59165   8.601   5.425   9.875
   84SBC   C01K59166   8.890   5.214   9.790
   84SBC   C01E59167   8.828   5.305   9.535
   84SBC   C01G59168   8.567   5.480   9.741
   84SBC   C01D59169   8.797   5.358   9.410
   84SBC   C01A59170   8.732   5.458   9.157
   84SBC   H00159171   8.714   5.495   9.057
   84SBC   C01F59172   8.507   5.581   9.480
   84SBC   C03P59173   8.270   5.714   9.414
   84SBC   C03T59174   8.201   5.704   9.635
   84SBC   C08I59175   8.020   5.732   9.852
   84SBC   C08J59176   7.941   5.745   9.967
   84SBC   C08L59177   7.893   5.712  10.203
   84SBC   C09359178   7.840   5.647  10.443
   84SBC   C08Z59179   8.114   5.552  10.459
   84SBC   C09T59180   7.881   5.434  10.862
   84SBC   C09S59181   8.196   5.410  10.707
   84SBC   C09Q59182   8.392   5.210  10.778
   84SBC   C09F59183   8.313   5.046  10.991
   84SBC   C09E59184   8.037   5.278  10.979
   84SBC   C0A059185   8.165   4.952  11.144
   84SBC   C0CU59186   7.921   4.939  11.281
   84SBC   C0CR59187   7.794   4.915  11.338
   84SBC   C0CZ59188   7.693   5.010  11.305
   84SBC   C0DA59189   7.900   5.325  10.975
   84SBC   C0D959190   7.662   5.429  11.205
   84SBC   H00V59191   7.733   5.509  11.220
   84SBC   C0CY59192   7.714   5.114  11.214
   84SBC   C0DF59193   7.552   5.397  11.295
   84SBC   C0DE59194   7.471   5.421  11.414
   84SBC   C0GI59195   7.430   5.546  11.478
   84SBC   H01K59196   7.456   5.641  11.434
   84SBC   C0GJ59197   7.354   5.536  11.589
   84SBC   H01J59198   7.316   5.630  11.627
   84SBC   O00I59199   7.306   5.416  11.645
   84SBC   C0GH59200   7.329   5.299  11.581
   84SBC   C0GG59201   7.265   5.186  11.645
   84SBC   O00G59202   7.182   5.212  11.753
   84SBC   C0G859203   7.126   5.116  11.826
   84SBC   C0G959204   7.008   5.150  11.893
   84SBC   H01G59205   6.970   5.250  11.904
   84SBC   C0GA59206   6.953   5.040  11.968
   84SBC   H01H59207   6.854   5.053  12.010
   84SBC   C0GB59208   7.018   4.915  11.991
   84SBC   C0EP59209   7.141   4.898  11.926
   84SBC   C0E859210   7.228   4.782  11.970
   84SBC   C0CK59211   7.359   4.730  11.942
   84SBC   C0CL59212   7.378   4.719  11.808
   84SBC   C0E959213   7.336   4.819  11.712
   84SBC   C0GE59214   7.276   4.957  11.726
   84SBC   C0E759215   7.162   4.679  12.047
   84SBC   C0CJ59216   7.250   4.572  12.070
   84SBC   C0E659217   7.198   4.464  12.132
   84SBC   H00Y59218   7.258   4.375  12.142
   84SBC   C0EO59219   7.062   4.475  12.176
   84SBC   H01159220   7.017   4.384  12.215
   84SBC   C0G659221   6.984   4.591  12.163
   84SBC   C0G559222   6.860   4.615  12.225
   84SBC   H01F59223   6.813   4.539  12.286
   84SBC   C0GD59224   6.788   4.726  12.206
   84SBC   H01I59225   6.691   4.734  12.253
   84SBC   O00H59226   6.837   4.833  12.134
   84SBC   C0EQ59227   7.034   4.699  12.096
   84SBC   C0GC59228   6.962   4.807  12.072
   84SBC   C0G759229   7.187   4.986  11.833
   84SBC   C0DD59230   7.410   5.297  11.465
   84SBC   C0GF59231   7.300   5.051  11.620
   84SBC   C0CO59232   7.393   4.772  11.594
   84SBC   C0D059233   7.561   4.978  11.367
   84SBC   C0C459234   7.773   4.806  11.426
   84SBC   C0CN59235   7.470   4.652  11.609
   84SBC   C0CP59236   7.808   4.606  11.703
   84SBC   C0CM59237   7.455   4.611  11.745
   84SBC   C0CI59238   7.380   4.613  12.019
   84SBC   C0CD59239   7.611   4.287  12.283
   84SBC   C0BR59240   7.714   4.428  11.954
   84SBC   C0CS59241   7.931   4.310  11.903
   84SBC   C0B659242   8.086   4.076  11.906
   84SBC   C0CG59243   7.785   4.144  12.186
   84SBC   C0CF59244   7.697   4.176  12.292
   84SBC   C0E559245   7.507   4.226  12.492
   84SBC   C0DT59246   7.489   4.060  12.705
   84SBC   C0DL59247   7.752   3.885  12.516
   84SBC   C0DM59248   7.827   3.768  12.522
   84SBC   C0DY59249   7.731   3.709  12.730
   84SBC   C0DU59250   7.486   3.975  12.814
   84SBC   C0F059251   7.349   3.883  12.991
   84SBC   C0F459252   7.260   3.659  13.114
   84SBC   C0FG59253   7.615   3.585  13.049
   84SBC   O00B59254   7.317   3.421  13.172
   84SBC   C0FN59255   7.664   3.461  13.064
   84SBC   C0DZ59256   7.721   3.627  12.842
   84SBC   O00C59257   7.910   3.332  12.719
   84SBC   C0FR59258   7.981   3.292  12.612
   84SBC   O00D59259   8.024   3.180  12.613
   84SBC   C0E059260   7.811   3.675  12.624
   84SBC   C0E359261   8.012   3.392  12.508
   84SBC   C0AW59262   8.092   3.359  12.393
   84SBC   C0AV59263   8.160   3.237  12.363
   84SBC   H00Q59264   8.151   3.147  12.423
   84SBC   C0AU59265   8.238   3.215  12.248
   84SBC   H00R59266   8.271   3.115  12.225
   84SBC   C0AT59267   8.250   3.316  12.159
   84SBC   C0AS59268   8.333   3.339  12.042
   84SBC   C0AR59269   8.411   3.233  11.981
   84SBC   C0BE59270   8.180   3.430  12.181
   84SBC   C0DN59271   7.904   3.735  12.409
   84SBC   C0AX59272   8.104   3.456  12.291
   84SBC   C0BB59273   8.006   3.795  12.198
   84SBC   C0BD59274   8.217   3.523  12.086
   84SBC   C0B259275   8.132   3.865  12.000
   84SBC   C0AH59276   8.320   3.807  11.804
   84SBC   C0BF59277   8.316   3.476  11.993
   84SBC   C0AL59278   8.499   3.692  11.634
   84SBC   C07U59279   8.512   3.362  11.790
   84SBC   C0AQ59280   8.494   3.252  11.872
   84SBC   C0BG59281   8.430   3.092  12.030
   84SBC   C0FY59282   8.732   2.917  11.981
   84SBC   C0BJ59283   8.496   3.058  12.156
   84SBC   H00S59284   8.499   3.123  12.241
   84SBC   C0FZ59285   8.787   2.894  12.108
   84SBC   C07S59286   8.820   2.969  11.877
   84SBC   C0G159287   9.152   2.905  12.063
   84SBC   C07K59288   9.286   2.980  11.723
   84SBC   C07H59289   9.009   3.064  11.687
   84SBC   C06B59290   9.074   3.006  11.346
   84SBC   C06N59291   9.026   3.215  11.269
   84SBC   C06659292   8.825   3.222  11.602
   84SBC   C06259293   8.696   3.472  11.480
   84SBC   C05Y59294   8.946   3.446  11.181
   84SBC   C06159295   8.653   3.572  11.389
   84SBC   C05H59296   8.843   3.760  11.144
   84SBC   C06V59297   8.632   3.709  11.417
   84SBC   C06Y59298   8.561   3.977  11.414
   84SBC   C05C59299   8.779   4.028  11.121
   84SBC   C06Z59300   8.530   4.197  11.337
   84SBC   C07059301   8.593   4.398  11.161
   84SBC   C05B59302   8.817   4.135  11.038
   84SBC   C05759303   8.880   4.343  10.858
   84SBC   C05959304   8.707   4.473  10.958
   85SBC   C05859305   5.855   3.771  14.053
   85SBC   C05A59306   5.764   3.877  14.042
   85SBC   C06Q59307   5.654   3.886  14.128
   85SBC   C06R59308   5.569   3.997  14.129
   85SBC   C06S59309   5.580   4.102  14.033
   85SBC   C06T59310   5.489   4.210  14.041
   85SBC   C06U59311   5.497   4.339  13.971
   85SBC   C06X59312   5.586   4.399  13.884
   85SBC   C06059313   5.556   4.544  13.867
   85SBC   C05Z59314   5.560   4.625  13.744
   85SBC   C06859315   5.431   4.704  13.742
   85SBC   C06759316   5.394   4.817  13.653
   85SBC   C06959317   5.497   4.876  13.569
   85SBC   C06A59318   5.480   4.990  13.476
   85SBC   C07359319   5.375   5.040  13.394
   85SBC   C07P59320   5.410   5.083  13.265
   85SBC   C07O59321   5.537   5.057  13.201
   85SBC   H00D59322   5.598   4.973  13.232
   85SBC   C07N59323   5.576   5.118  13.084
   85SBC   H00E59324   5.664   5.080  13.034
   85SBC   C07M59325   5.494   5.218  13.029
   85SBC   H00F59326   5.516   5.273  12.939
   85SBC   C07L59327   5.363   5.244  13.085
   85SBC   C07Q59328   5.265   5.339  13.034
   85SBC   H00G59329   5.298   5.382  12.940
   85SBC   O00F59330   5.143   5.366  13.096
   85SBC   C07J59331   5.106   5.284  13.198
   85SBC   C07I59332   5.198   5.195  13.260
   85SBC   N00459333   5.162   5.132  13.381
   85SBC   C07R59334   5.035   5.174  13.436
   85SBC   C07T59335   4.945   5.241  13.356
   85SBC   C0FX59336   4.812   5.264  13.393
   85SBC   C0FW59337   4.706   5.317  13.323
   85SBC   C0G059338   4.747   5.363  13.193
   85SBC   C0G259339   4.653   5.422  13.107
   85SBC   H01E59340   4.678   5.447  13.005
   85SBC   C0G359341   4.526   5.435  13.154
   85SBC   H01C59342   4.448   5.470  13.087
   85SBC   C0G459343   4.483   5.373  13.274
   85SBC   H01D59344   4.377   5.367  13.292
   85SBC   O00E59345   4.882   5.363  13.160
   85SBC   C0FV59346   4.575   5.319  13.370
   85SBC   C0FU59347   4.545   5.264  13.498
   85SBC   H01B59348   4.445   5.240  13.532
   85SBC   C0FT59349   4.655   5.229  13.582
   85SBC   C0FS59350   4.679   5.158  13.706
   85SBC   C0BI59351   4.818   5.170  13.736
   85SBC   C0BH59352   4.853   5.089  13.842
   85SBC   C07F59353   4.947   4.982  13.826
   85SBC   C07E59354   5.064   4.969  13.741
   85SBC   C07G59355   5.088   5.043  13.631
   85SBC   C07459356   5.204   4.998  13.578
   85SBC   C06559357   5.154   4.868  13.754
   85SBC   C06459358   5.121   4.778  13.855
   85SBC   C06359359   5.200   4.666  13.894
   85SBC   C07559360   5.117   4.600  13.998
   85SBC   C0AM59361   4.985   4.664  14.017
   85SBC   C0AN59362   4.880   4.619  14.109
   85SBC   C0AO59363   4.861   4.499  14.205
   85SBC   C0B159364   4.757   4.487  14.303
   85SBC   C0B059365   4.654   4.575  14.298
   85SBC   C0AZ59366   4.547   4.578  14.389
   85SBC   C0AY59367   4.444   4.671  14.370
   85SBC   N00759368   4.344   4.683  14.467
   85SBC   C0E259369   4.240   4.777  14.448
   85SBC   C0E159370   4.156   4.798  14.557
   85SBC   C0E459371   4.057   4.890  14.547
   85SBC   C0FF59372   3.981   4.932  14.658
   85SBC   C0FJ59373   3.875   5.032  14.673
   85SBC   C0FK59374   3.775   5.069  14.578
   85SBC   H01659375   3.780   5.057  14.471
   85SBC   C0FL59376   3.654   5.109  14.651
   85SBC   H01759377   3.556   5.122  14.608
   85SBC   C0FM59378   3.683   5.105  14.791
   85SBC   C0FH59379   3.622   5.056  14.910
   85SBC   C0FI59380   3.726   4.986  14.975
   85SBC   C0F359381   3.696   4.882  15.068
   85SBC   C0F259382   3.803   4.797  15.083
   85SBC   C0DW59383   3.911   4.788  14.995
   85SBC   C0FE59384   3.931   4.881  14.894
   85SBC   C0DV59385   3.986   4.672  14.989
   85SBC   C0DX59386   4.081   4.653  14.885
   85SBC   C0DK59387   4.162   4.540  14.884
   85SBC   C0DJ59388   4.140   4.439  14.979
   85SBC   C0DI59389   4.216   4.326  14.972
   85SBC   C0DH59390   4.319   4.312  14.882
   85SBC   C0DG59391   4.336   4.413  14.785
   85SBC   C0BV59392   4.429   4.396  14.684
   85SBC   C0BC59393   4.436   4.493  14.582
   85SBC   C0BA59394   4.522   4.298  14.688
   85SBC   C0B459395   4.629   4.300  14.598
   85SBC   C0B359396   4.642   4.398  14.499
   85SBC   C0B559397   4.718   4.196  14.606
   85SBC   C0BU59398   4.714   4.105  14.716
   85SBC   C0BT59399   4.617   4.106  14.812
   85SBC   C0BS59400   4.610   4.008  14.916
   85SBC   C0CC59401   4.491   4.012  14.999
   85SBC   C0CB59402   4.471   3.915  15.096
   85SBC   C0CH59403   4.341   3.899  15.142
   85SBC   C0DO59404   4.243   3.998  15.131
   85SBC   C0DP59405   4.118   3.988  15.188
   85SBC   C0EA59406   4.073   3.867  15.259
   85SBC   H01259407   4.139   3.782  15.267
   85SBC   O00959408   3.955   3.859  15.322
   85SBC   C0EH59409   3.869   3.969  15.318
   85SBC   C0EG59410   3.746   3.964  15.386
   85SBC   C0EJ59411   3.684   3.859  15.472
   85SBC   H01059412   3.715   3.765  15.515
   85SBC   C0EK59413   3.553   3.909  15.509
   85SBC   H00Z59414   3.476   3.866  15.570
   85SBC   C0EL59415   3.545   4.044  15.459
   85SBC   C0EM59416   3.445   4.146  15.465
   85SBC   C0EW59417   3.318   4.138  15.526
   85SBC   H01359418   3.292   4.048  15.581
   85SBC   C0EX59419   3.214   4.242  15.515
   85SBC   H01459420   3.117   4.231  15.561
   85SBC   C0F159421   3.244   4.358  15.429
   85SBC   C0EU59422   3.374   4.366  15.371
   85SBC   C0ET59423   3.418   4.468  15.287
   85SBC   C0ES59424   3.552   4.417  15.252
   85SBC   C0EE59425   3.578   4.292  15.308
   85SBC   C0ED59426   3.680   4.187  15.308
   85SBC   C0EC59427   3.813   4.204  15.254
   85SBC   C0EB59428   3.863   4.327  15.198
   85SBC   C0EN59429   3.788   4.448  15.198
   85SBC   C0ER59430   3.849   4.563  15.143
   85SBC   C0DS59431   3.985   4.327  15.132
   85SBC   C0DR59432   4.068   4.215  15.129
   85SBC   C0EY59433   3.653   4.503  15.225
   85SBC   C0EZ59434   3.632   4.632  15.174
   85SBC   C0F559435   3.525   4.727  15.152
   85SBC   C0F659436   3.391   4.695  15.186
   85SBC   N00859437   3.299   4.794  15.137
   85SBC   C0F759438   3.327   4.893  15.042
   85SBC   C0FQ59439   3.223   4.969  14.995
   85SBC   H01859440   3.253   5.037  14.916
   85SBC   C0FP59441   3.094   4.963  15.041
   85SBC   H01959442   3.021   5.035  15.007
   85SBC   C0FO59443   3.070   4.880  15.148
   85SBC   H01A59444   2.974   4.882  15.197
   85SBC   C0F859445   3.464   4.925  15.027
   85SBC   C0F959446   3.167   4.781  15.185
   85SBC   C0FA59447   3.123   4.687  15.285
   85SBC   H01559448   3.021   4.691  15.319
   85SBC   C0FB59449   3.210   4.577  15.318
   85SBC   C0FD59450   3.334   4.583  15.260
   85SBC   C0FC59451   3.158   4.471  15.407
   85SBC   O00A59452   3.042   4.467  15.449
   85SBC   C0EV59453   3.468   4.267  15.390
   85SBC   C0EF59454   3.657   4.069  15.379
   85SBC   C0EI59455   3.903   4.091  15.248
   85SBC   C0DQ59456   4.032   4.099  15.191
   85SBC   C0CE59457   4.279   4.111  15.061
   85SBC   H00U59458   4.318   3.808  15.195
   85SBC   C0CA59459   4.591   3.851  15.150
   85SBC   C0C959460   4.711   3.842  15.065
   85SBC   C0C859461   4.828   3.784  15.117
   85SBC   C0C759462   4.944   3.724  15.056
   85SBC   C0C659463   5.040   3.665  15.141
   85SBC   C0C559464   5.146   3.569  15.139
   85SBC   C0CQ59465   5.180   3.515  15.264
   85SBC   C0D159466   5.090   3.517  15.371
   85SBC   C0D859467   5.074   3.400  15.440
   85SBC   C0D759468   5.193   3.337  15.406
   85SBC   C0D659469   5.223   3.210  15.450
   85SBC   C0D559470   5.341   3.144  15.414
   85SBC   C0D459471   5.442   3.172  15.312
   85SBC   C0D359472   5.498   3.042  15.276
   85SBC   C0CX59473   5.540   3.052  15.135
   85SBC   C0CW59474   5.481   3.178  15.079
   85SBC   C0CV59475   5.481   3.252  14.953
   85SBC   C0D259476   5.565   3.222  14.846
   85SBC   C09D59477   5.642   3.102  14.827
   85SBC   C09C59478   5.730   3.089  14.712
   85SBC   C09B59479   5.819   2.981  14.687
   85SBC   C09A59480   5.821   2.881  14.780
   85SBC   C09959481   5.738   2.880  14.888
   85SBC   C09859482   5.793   2.800  14.988
   85SBC   C08Y59483   5.932   2.761  14.946
   85SBC   C08X59484   6.048   2.732  15.031
   85SBC   C08W59485   6.035   2.713  15.175
   85SBC   C08U59486   5.919   2.733  15.257
   85SBC   C08V59487   5.790   2.806  15.236
   85SBC   C0DC59488   5.716   2.772  15.352
   85SBC   H00W59489   5.616   2.812  15.362
   85SBC   C0DB59490   5.797   2.696  15.442
   85SBC   H00X59491   5.760   2.656  15.535
   85SBC   C08T59492   5.919   2.675  15.389
   85SBC   C08S59493   6.024   2.604  15.441
   85SBC   H00N59494   6.011   2.572  15.543
   85SBC   C08R59495   6.149   2.621  15.379
   85SBC   C08Q59496   6.273   2.592  15.441
   85SBC   H00O59497   6.267   2.560  15.543
   85SBC   C08P59498   6.395   2.615  15.382
   85SBC   C08O59499   6.515   2.598  15.453
   85SBC   H00P59500   6.514   2.574  15.558
   85SBC   C08N59501   6.644   2.590  15.382
   85SBC   C08M59502   6.766   2.565  15.451
   85SBC   O00859503   6.772   2.559  15.575
   85SBC   O00759504   6.884   2.555  15.384
   85SBC   C08H59505   6.892   2.575  15.248
   85SBC   C08G59506   7.010   2.545  15.167
   85SBC   C03V59507   7.125   2.481  15.207
   85SBC   H00959508   7.125   2.448  15.310
   85SBC   C03U59509   7.234   2.460  15.117
   85SBC   C03W59510   7.352   2.386  15.146
   85SBC   H00A59511   7.362   2.354  15.248
   85SBC   C03X59512   7.443   2.355  15.049
   85SBC   H00B59513   7.534   2.303  15.073
   85SBC   O00559514   7.435   2.407  14.916
   85SBC   C03O59515   7.320   2.480  14.888
   85SBC   C03N59516   7.307   2.518  14.755
   85SBC   O00059517   7.417   2.506  14.670
   85SBC   C01959518   7.411   2.571  14.547
   85SBC   C01859519   7.290   2.631  14.495
   85SBC   C01759520   7.179   2.635  14.580
   85SBC   C01659521   7.061   2.693  14.534
   85SBC   C01559522   7.073   2.753  14.405
   85SBC   C01459523   6.952   2.804  14.351
   85SBC   C01359524   6.830   2.794  14.420
   85SBC   C01259525   6.736   2.860  14.325
   85SBC   C01159526   6.818   2.889  14.206
   85SBC   C01059527   6.760   2.926  14.090
   85SBC   C00Z59528   6.823   2.970  13.975
   85SBC   C00Y59529   6.715   3.036  13.912
   85SBC   C01O59530   6.601   3.034  13.988
   85SBC   C01P59531   6.512   3.148  13.995
   85SBC   C02L59532   6.419   3.145  14.092
   85SBC   C02K59533   6.437   3.047  14.195
   85SBC   C01M59534   6.553   2.964  14.216
   85SBC   C02J59535   6.332   3.049  14.290
   85SBC   C02I59536   6.308   2.952  14.384
   85SBC   C02H59537   6.390   2.857  14.444
   85SBC   C01Q59538   6.523   2.836  14.425
   85SBC   C02G59539   6.567   2.757  14.530
   85SBC   C08959540   6.454   2.707  14.599
   85SBC   C08859541   6.488   2.699  14.735
   85SBC   C08759542   6.636   2.698  14.732
   85SBC   C08659543   6.718   2.687  14.847
   85SBC   C03S59544   6.859   2.654  14.846
   85SBC   N00659545   6.891   2.627  14.978
   85SBC   C08F59546   6.778   2.639  15.058
   85SBC   C01J59547   6.959   2.647  14.752
   85SBC   C03R59548   7.081   2.593  14.799
   85SBC   C03Q59549   7.104   2.555  14.936
   85SBC   C08E59550   6.665   2.677  14.981
   85SBC   C08D59551   6.533   2.677  15.042
   85SBC   C08K59552   6.526   2.646  15.181
   85SBC   C08C59553   6.405   2.691  14.976
   85SBC   C09159554   6.285   2.700  15.052
   85SBC   C09259555   6.277   2.664  15.185
   85SBC   C08B59556   6.384   2.699  14.838
   85SBC   C09059557   6.236   2.715  14.830
   85SBC   C09459558   6.158   2.734  14.708
   85SBC   C09559559   6.028   2.797  14.707
   85SBC   C09R59560   6.011   2.875  14.595
   85SBC   C09759561   6.134   2.879  14.531
   85SBC   C09659562   6.218   2.790  14.593
   85SBC   C01I59563   6.693   2.725  14.602
   85SBC   C08A59564   6.346   2.774  14.546
   85SBC   C09L59565   6.177   2.959  14.425
   85SBC   C09K59566   6.117   3.073  14.354
   85SBC   C09J59567   5.988   3.122  14.371
   85SBC   C09I59568   5.954   3.257  14.347
   85SBC   C09O59569   6.000   3.359  14.254
   85SBC   C09N59570   6.111   3.344  14.165
   85SBC   C09M59571   6.211   3.249  14.175
   85SBC   C06O59572   6.122   3.448  14.072
   85SBC   C05M59573   6.039   3.561  14.070
   85SBC   C06P59574   5.930   3.571  14.157
   85SBC   C04259575   6.052   3.656  13.971
   85SBC   C04159576   6.158   3.659  13.887
   85SBC   C04059577   6.179   3.764  13.796
   85SBC   C03Z59578   6.297   3.772  13.726
   85SBC   C03Y59579   6.393   3.675  13.735
   85SBC   C02759580   6.506   3.680  13.659
   85SBC   C02659581   6.597   3.576  13.673
   85SBC   C02859582   6.721   3.584  13.611
   85SBC   C02959583   6.754   3.698  13.537
   85SBC   C02B59584   6.880   3.723  13.492
   85SBC   C02C59585   6.915   3.844  13.431
   85SBC   C02X59586   7.050   3.870  13.399
   85SBC   C03E59587   7.080   3.992  13.347
   85SBC   C03G59588   6.990   4.094  13.324
   85SBC   C04Q59589   6.860   4.069  13.355
   85SBC   C04R59590   6.770   4.173  13.350
   85SBC   C04S59591   6.645   4.152  13.396
   85SBC   C04L59592   6.607   4.033  13.455
   85SBC   C04M59593   6.696   3.927  13.458
   85SBC   C04K59594   6.478   4.010  13.510
   85SBC   C04F59595   6.389   4.115  13.506
   85SBC   C04E59596   6.428   4.241  13.452
   85SBC   C04D59597   6.337   4.347  13.448
   85SBC   C05059598   6.375   4.467  13.397
   85SBC   C05159599   6.287   4.575  13.403
   85SBC   C05Q59600   6.338   4.702  13.377
   85SBC   C05V59601   6.253   4.805  13.392
   85SBC   N00559602   6.295   4.936  13.354
   85SBC   C07V59603   6.421   4.947  13.292
   85SBC   C08259604   6.456   5.070  13.242
   85SBC   C08159605   6.382   5.187  13.267
   85SBC   C07C59606   6.261   5.180  13.334
   85SBC   C07B59607   6.180   5.291  13.356
   85SBC   C08059608   6.226   5.419  13.326
   85SBC   C07Z59609   6.140   5.527  13.363
   85SBC   H00L59610   6.186   5.623  13.344
   85SBC   C07959611   6.009   5.514  13.403
   85SBC   C07859612   5.962   5.383  13.417
   85SBC   C07759613   5.827   5.361  13.443
   85SBC   C07X59614   5.736   5.470  13.440
   85SBC   H00I59615   5.628   5.469  13.440
   85SBC   C07Y59616   5.781   5.602  13.434
   85SBC   H00H59617   5.718   5.690  13.429
   85SBC   C07659618   5.787   5.230  13.466
   85SBC   C06C59619   5.643   5.196  13.463
   85SBC   H00C59620   5.554   5.255  13.450
   85SBC   C06F59621   5.878   5.126  13.477
   85SBC   C06E59622   5.836   5.001  13.520
   85SBC   C06G59623   5.915   4.889  13.515
   85SBC   C06H59624   6.042   4.906  13.464
   85SBC   C06I59625   6.092   5.034  13.431
   85SBC   C06L59626   5.859   4.764  13.554
   85SBC   C06M59627   5.722   4.746  13.599
   85SBC   C06K59628   5.943   4.650  13.536
   85SBC   C05S59629   6.076   4.665  13.477
   85SBC   C05U59630   5.903   4.528  13.583
   85SBC   C05X59631   5.779   4.521  13.657
   85SBC   C05G59632   5.762   4.389  13.719
   85SBC   C05F59633   5.858   4.290  13.700
   85SBC   C05E59634   5.835   4.177  13.774
   85SBC   C04859635   5.923   4.077  13.785
   85SBC   C05659636   5.893   3.975  13.872
   85SBC   C04559637   5.979   3.868  13.873
   85SBC   C04759638   6.033   4.084  13.703
   85SBC   C04959639   6.065   4.197  13.630
   85SBC   C04B59640   6.185   4.210  13.570
   85SBC   C04659641   6.120   3.978  13.711
   85SBC   C04H59642   6.238   3.982  13.636
   85SBC   C05D59643   5.723   4.196  13.857
   85SBC   C04A59644   5.978   4.306  13.634
   85SBC   C05T59645   6.000   4.427  13.579
   85SBC   C05559646   6.127   4.441  13.520
   85SBC   C06D59647   5.698   4.976  13.527
   85SBC   C07W59648   6.009   5.148  13.444
   85SBC   C08559649   5.921   5.622  13.418
   85SBC   H00M59650   5.961   5.723  13.414
   85SBC   C08459651   6.347   5.424  13.256
   85SBC   H00J59652   6.388   5.520  13.227
   85SBC   C07A59653   6.050   5.272  13.406
   85SBC   C08359654   6.420   5.315  13.223
   85SBC   H00K59655   6.513   5.326  13.169
   85SBC   O00K59656   6.557   5.080  13.152
   85SBC   C0GO59657   6.637   4.975  13.130
   85SBC   C0GN59658   6.753   4.991  13.055
   85SBC   H01L59659   6.766   5.080  12.996
   85SBC   C0GM59660   6.844   4.880  13.034
   85SBC   C0GL59661   6.952   4.897  12.958
   85SBC   H01M59662   6.966   4.991  12.907
   85SBC   O00J59663   7.036   4.794  12.931
   85SBC   C0GK59664   7.014   4.680  13.006
   85SBC   H01N59665   7.088   4.602  12.996
   85SBC   C05K59666   6.912   4.663  13.096
   85SBC   C05J59667   6.891   4.537  13.160
   85SBC   C04Y59668   6.981   4.428  13.182
   85SBC   C04X59669   6.948   4.316  13.257
   85SBC   O00659670   7.110   4.432  13.125
   85SBC   C05359671   7.213   4.340  13.156
   85SBC   C04O59672   7.177   4.228  13.232
   85SBC   C03C59673   7.266   4.125  13.279
   85SBC   C03B59674   7.413   4.100  13.275
   85SBC   C05459675   7.497   4.167  13.190
   85SBC   C0GR59676   7.628   4.115  13.163
   85SBC   C03M59677   7.717   4.004  13.209
   85SBC   C03I59678   7.675   3.890  13.288
   85SBC   C03J59679   7.773   3.797  13.331
   85SBC   N00259680   7.736   3.672  13.392
   85SBC   C02U59681   7.832   3.577  13.440
   85SBC   C02T59682   7.797   3.462  13.505
   85SBC   C02Z59683   7.887   3.371  13.551
   85SBC   N00159684   7.858   3.251  13.615
   85SBC   C02R59685   7.960   3.156  13.655
   85SBC   C03259686   8.090   3.205  13.654
   85SBC   C03159687   8.122   3.331  13.602
   85SBC   H00759688   8.226   3.357  13.592
   85SBC   C03359689   8.188   3.103  13.692
   85SBC   H00359690   8.294   3.121  13.702
   85SBC   O00459691   8.155   2.972  13.736
   85SBC   C03459692   8.020   2.940  13.747
   85SBC   C03559693   7.981   2.811  13.785
   85SBC   C03659694   7.845   2.773  13.798
   85SBC   H00559695   7.832   2.669  13.825
   85SBC   C03759696   7.746   2.868  13.762
   85SBC   H00659697   7.640   2.844  13.760
   85SBC   C00D59698   7.788   3.006  13.729
   85SBC   C00C59699   7.684   3.092  13.694
   85SBC   C00B59700   7.543   3.077  13.729
   85SBC   C00A59701   7.450   2.987  13.806
   85SBC   C00959702   7.318   3.032  13.766
   85SBC   C00859703   7.199   3.015  13.829
   85SBC   C00759704   7.190   2.949  13.942
   85SBC   C00659705   7.066   2.932  14.009
   85SBC   C00559706   7.066   2.861  14.135
   85SBC   C00459707   7.185   2.816  14.194
   85SBC   C00359708   7.307   2.840  14.127
   85SBC   C00259709   7.424   2.791  14.190
   85SBC   C01C59710   7.415   2.712  14.302
   85SBC   C01B59711   7.527   2.642  14.348
   85SBC   H00059712   7.618   2.631  14.291
   85SBC   C00159713   7.550   2.836  14.147
   85SBC   C00059714   7.556   2.903  14.020
   85SBC   C01U59715   7.684   2.968  14.030
   85SBC   H00259716   7.728   3.042  13.965
   85SBC   C01T59717   7.761   2.913  14.141
   85SBC   O00259718   7.876   2.940  14.177
   85SBC   O00159719   7.674   2.833  14.209
   85SBC   C01S59720   7.309   2.911  14.005
   85SBC   C00N59721   7.096   3.096  13.778
   85SBC   C00M59722   7.110   3.196  13.682
   85SBC   C00J59723   7.232   3.223  13.627
   85SBC   C00I59724   7.270   3.344  13.574
   85SBC   C00H59725   7.399   3.369  13.543
   85SBC   C00G59726   7.498   3.279  13.577
   85SBC   C00F59727   7.633   3.309  13.573
   85SBC   C01X59728   7.433   3.484  13.490
   85SBC   C01W59729   7.337   3.583  13.476
   85SBC   C01V59730   7.204   3.562  13.500
   85SBC   C02059731   7.108   3.650  13.477
   85SBC   C01Z59732   7.375   3.708  13.427
   85SBC   C02Y59733   7.273   3.796  13.403
   85SBC   C03959734   7.305   3.921  13.353
   85SBC   C02W59735   7.505   3.743  13.397
   85SBC   C01Y59736   7.567   3.518  13.471
   85SBC   C00U59737   7.172   3.439  13.552
   85SBC   C00S59738   7.038   3.410  13.588
   85SBC   C00T59739   6.938   3.503  13.565
   85SBC   C00R59740   7.014   3.293  13.663
   85SBC   C00Q59741   6.892   3.273  13.710
   85SBC   C00V59742   6.795   3.374  13.698
   85SBC   C02459743   6.670   3.366  13.757
   85SBC   C00X59744   6.639   3.249  13.825
   85SBC   C00P59745   6.866   3.162  13.793
   85SBC   C00O59746   6.976   3.082  13.841
   85SBC   C00K59747   7.334   3.132  13.670
   85SBC   N00059748   7.443   2.933  13.943
   85SBC   C00L59749   7.465   3.156  13.638
   85SBC   H00459750   8.052   2.738  13.822
   85SBC   C02Q59751   7.921   3.037  13.711
   85SBC   C00E59752   7.721   3.213  13.625
   85SBC   C03059753   8.023   3.415  13.547
   85SBC   O00359754   8.066   3.529  13.488
   85SBC   C02S59755   7.666   3.433  13.519
   85SBC   C03859756   7.971   3.609  13.429
   85SBC   C03L59757   8.005   3.726  13.359
   85SBC   H00859758   8.111   3.746  13.357
   85SBC   C02V59759   7.601   3.645  13.424
   85SBC   C03K59760   7.908   3.817  13.301
   85SBC   C0BK59761   7.941   3.922  13.218
   85SBC   H00T59762   8.039   3.946  13.177
   85SBC   C03H59763   7.542   3.867  13.339
   85SBC   C0BL59764   7.853   4.018  13.165
   85SBC   C0GU59765   7.888   4.122  13.078
   85SBC   H01O59766   7.987   4.139  13.038
   85SBC   C0GT59767   7.809   4.213  13.021
   85SBC   H01P59768   7.833   4.284  12.944
   85SBC   C0GS59769   7.679   4.213  13.070
   85SBC   C0GV59770   7.578   4.308  13.041
   85SBC   C0GW59771   7.577   4.415  12.953
   85SBC   H01Q59772   7.665   4.444  12.898
   85SBC   C0GX59773   7.465   4.490  12.948
   85SBC   H01R59774   7.470   4.577  12.885
   85SBC   O00L59775   7.350   4.466  13.017
   85SBC   C0GQ59776   7.460   4.277  13.111
   85SBC   C03A59777   7.434   3.962  13.317
   85SBC   C05L59778   7.343   4.357  13.099
   85SBC   C04W59779   6.762   4.521  13.223
   85SBC   C05I59780   6.669   4.620  13.228
   85SBC   C05O59781   6.695   4.742  13.173
   85SBC   C05259782   6.546   4.605  13.292
   85SBC   C04V59783   6.722   4.403  13.286
   85SBC   C04U59784   6.594   4.381  13.337
   85SBC   N00959785   6.816   4.762  13.110
   85SBC   C0GP59786   6.611   4.850  13.188
   85SBC   C05W59787   6.505   4.840  13.273
   85SBC   C07D59788   6.216   5.053  13.377
   85SBC   C06J59789   6.124   4.794  13.447
   85SBC   C05P59790   6.462   4.716  13.313
   85SBC   C05R59791   6.160   4.558  13.462
   85SBC   C04Z59792   6.502   4.484  13.337
   85SBC   C04C59793   6.213   4.334  13.511
   85SBC   C04G59794   6.270   4.099  13.567
   85SBC   C04J59795   6.445   3.892  13.577
   85SBC   C04T59796   6.553   4.262  13.394
   85SBC   N00359797   6.816   4.298  13.301
   85SBC   C04P59798   7.043   4.211  13.270
   85SBC   C03D59799   7.210   4.016  13.324
   85SBC   C02159800   7.144   3.769  13.424
   85SBC   C03F59801   6.826   3.948  13.414
   85SBC   C02259802   6.975   3.627  13.510
   85SBC   C02A59803   6.664   3.806  13.525
   85SBC   C02359804   6.814   3.483  13.620
   85SBC   C02559805   6.573   3.466  13.745
   85SBC   C02D59806   6.458   3.454  13.815
   85SBC   C02E59807   6.432   3.343  13.897
   85SBC   C02N59808   6.324   3.345  13.984
   85SBC   C04N59809   6.537   3.791  13.578
   85SBC   C02P59810   6.369   3.562  13.812
   85SBC   C04I59811   6.326   3.882  13.646
   85SBC   C04459812   6.094   3.870  13.794
   85SBC   C04359813   6.255   3.560  13.893
   85SBC   C05N59814   6.231   3.453  13.981
   85SBC   C09U59815   5.912   3.473  14.252
   85SBC   C09V59816   5.801   3.493  14.344
   85SBC   C09X59817   5.780   3.401  14.445
   85SBC   C09Y59818   5.683   3.405  14.546
   85SBC   C0A159819   5.592   3.505  14.532
   85SBC   C0A259820   5.608   3.596  14.426
   85SBC   C0A459821   5.510   3.692  14.406
   85SBC   C07159822   5.527   3.788  14.310
   85SBC   C0A559823   5.435   3.884  14.294
   85SBC   C0A959824   5.314   3.879  14.367
   85SBC   C0A859825   5.304   3.787  14.472
   85SBC   C0AP59826   5.195   3.791  14.555
   85SBC   C0BY59827   5.192   3.700  14.658
   85SBC   C0BX59828   5.283   3.608  14.687
   85SBC   C0C259829   5.288   3.539  14.805
   85SBC   C0C359830   5.385   3.439  14.829
   85SBC   C0CT59831   5.487   3.426  14.733
   85SBC   C0C159832   5.190   3.565  14.906
   85SBC   C0C059833   5.071   3.639  14.863
   85SBC   C0A759834   5.390   3.602  14.600
   85SBC   C0BZ59835   5.078   3.697  14.735
   85SBC   C0BO59836   4.972   3.787  14.711
   85SBC   C0BN59837   4.986   3.891  14.619
   85SBC   C0BM59838   4.897   3.991  14.619
   85SBC   C0B959839   4.907   4.087  14.518
   85SBC   C0B859840   5.012   4.085  14.435
   85SBC   C0AD59841   5.108   3.985  14.445
   85SBC   C0AF59842   5.027   4.185  14.336
   85SBC   C0AG59843   4.933   4.285  14.314
   85SBC   C0B759844   4.831   4.290  14.412
   85SBC   C0AE59845   5.136   4.174  14.254
   85SBC   C0AB59846   5.231   4.073  14.260
   85SBC   C0AA59847   5.352   4.077  14.186
   85SBC   C0AJ59848   5.157   4.278  14.168
   85SBC   C0AK59849   5.277   4.283  14.101
   85SBC   C06W59850   5.274   4.402  14.031
   85SBC   C0AI59851   5.073   4.389  14.148
   85SBC   C0BP59852   4.892   3.794  14.826
   85SBC   C0BQ59853   4.797   3.904  14.830
   85SBC   C0BW59854   5.096   3.889  14.539
   85SBC   C0AC59855   5.220   3.979  14.360
   85SBC   C0A659856   5.404   3.691  14.495
   85SBC   C0A359857   5.488   3.511  14.621
   85SBC   C09Z59858   5.656   3.307  14.640
   85SBC   C09W59859   5.713   3.595  14.332
   85SBC   C07259860   5.725   3.681  14.230
   85SBC   C09H59861   5.852   3.286  14.431
   85SBC   C09G59862   5.826   3.183  14.523
   85SBC   C09P59863   5.906   3.078  14.483
   85SBC   C02O59864   6.217   3.136  14.270
   85SBC   C02M59865   6.319   3.246  14.084
   85SBC   C02F59866   6.521   3.239  13.896
   85SBC   C00W59867   6.734   3.145  13.833
   85SBC   C01R59868   6.962   2.988  13.943
   85SBC   C01N59869   6.630   2.965  14.098
   85SBC   C01L59870   6.599   2.889  14.325
   85SBC   C01H59871   6.824   2.741  14.552
   85SBC   C01K59872   6.948   2.854  14.216
   85SBC   C01E59873   7.186   2.756  14.323
   85SBC   C01G59874   6.946   2.686  14.614
   85SBC   C01D59875   7.295   2.698  14.372
   85SBC   C01A59876   7.528   2.574  14.470
   85SBC   H00159877   7.619   2.533  14.510
   85SBC   C01F59878   7.185   2.578  14.709
   85SBC   C03P59879   7.218   2.498  14.980
   85SBC   C03T59880   7.009   2.582  15.032
   85SBC   C08I59881   6.770   2.609  15.184
   85SBC   C08J59882   6.647   2.618  15.248
   85SBC   C08L59883   6.397   2.647  15.249
   85SBC   C09359884   6.151   2.666  15.245
   85SBC   C08Z59885   6.174   2.713  14.966
   85SBC   C09T59886   5.740   2.860  15.110
   85SBC   C09S59887   5.932   2.798  14.809
   85SBC   C09Q59888   5.911   2.976  14.579
   85SBC   C09F59889   5.729   3.194  14.625
   85SBC   C09E59890   5.665   2.994  14.922
   85SBC   C0A059891   5.564   3.316  14.737
   85SBC   C0CU59892   5.391   3.362  14.946
   85SBC   C0CR59893   5.314   3.404  15.053
   85SBC   C0CZ59894   5.327   3.346  15.177
   85SBC   C0DA59895   5.641   2.971  15.062
   85SBC   C0D959896   5.407   2.942  15.335
   85SBC   H00V59897   5.393   2.842  15.295
   85SBC   C0CY59898   5.414   3.237  15.186
   85SBC   C0DF59899   5.317   3.010  15.430
   85SBC   C0DE59900   5.202   2.993  15.513
   85SBC   C0GI59901   5.156   2.880  15.584
   85SBC   H01K59902   5.202   2.782  15.579
   85SBC   C0GJ59903   5.037   2.898  15.642
   85SBC   H01J59904   4.992   2.810  15.684
   85SBC   O00I59905   4.958   3.021  15.641
   85SBC   C0GH59906   5.009   3.134  15.579
   85SBC   C0GG59907   4.929   3.250  15.589
   85SBC   O00G59908   4.813   3.239  15.667
   85SBC   C0G859909   4.731   3.348  15.682
   85SBC   C0G959910   4.635   3.340  15.777
   85SBC   H01G59911   4.622   3.250  15.835
   85SBC   C0GA59912   4.545   3.443  15.795
   85SBC   H01H59913   4.468   3.427  15.868
   85SBC   C0GB59914   4.533   3.547  15.702
   85SBC   C0EP59915   4.620   3.543  15.588
   85SBC   C0E859916   4.591   3.636  15.475
   85SBC   C0CK59917   4.640   3.662  15.342
   85SBC   C0CL59918   4.779   3.664  15.344
   85SBC   C0E959919   4.865   3.573  15.419
   85SBC   C0GE59920   4.851   3.461  15.508
   85SBC   C0E759921   4.492   3.734  15.485
   85SBC   C0CJ59922   4.492   3.826  15.382
   85SBC   C0E659923   4.421   3.948  15.406
   85SBC   H00Y59924   4.427   4.035  15.343
   85SBC   C0EO59925   4.350   3.960  15.528
   85SBC   H01159926   4.307   4.057  15.551
   85SBC   C0G659927   4.346   3.857  15.626
   85SBC   C0G559928   4.271   3.867  15.747
   85SBC   H01F59929   4.202   3.946  15.774
   85SBC   C0GD59930   4.301   3.778  15.844
   85SBC   H01I59931   4.257   3.789  15.943
   85SBC   O00H59932   4.381   3.669  15.828
   85SBC   C0EQ59933   4.425   3.742  15.607
   85SBC   C0GC59934   4.445   3.655  15.711
   85SBC   C0G759935   4.733   3.452  15.587
   85SBC   C0DD59936   5.137   3.122  15.522
   85SBC   C0GF59937   4.952   3.368  15.515
   85SBC   C0CO59938   4.990   3.607  15.365
   85SBC   C0D059939   5.238   3.390  15.280
   85SBC   C0C459940   5.217   3.515  15.033
   85SBC   C0CN59941   4.988   3.708  15.264
   85SBC   C0CP59942   4.946   3.696  14.914
   85SBC   C0CM59943   4.855   3.750  15.255
   85SBC   C0CI59944   4.577   3.778  15.279
   85SBC   C0CD59945   4.400   4.111  14.985
   85SBC   C0BR59946   4.706   3.909  14.935
   85SBC   C0CS59947   4.801   3.999  14.723
   85SBC   C0B659948   4.817   4.192  14.514
   85SBC   C0CG59949   4.515   4.204  14.796
   85SBC   C0CF59950   4.410   4.209  14.888
   85SBC   C0E559951   4.190   4.220  15.061
   85SBC   C0DT59952   4.033   4.443  15.066
   85SBC   C0DL59953   4.254   4.522  14.781
   85SBC   C0DM59954   4.254   4.612  14.678
   85SBC   C0DY59955   4.081   4.743  14.778
   85SBC   C0DU59956   3.963   4.562  15.072
   85SBC   C0F059957   3.761   4.668  15.136
   85SBC   C0F459958   3.562   4.844  15.085
   85SBC   C0FG59959   3.849   4.992  14.898
   85SBC   O00B59960   3.490   5.026  14.936
   85SBC   C0FN59961   3.824   5.076  14.799
   85SBC   C0DZ59962   4.008   4.859  14.778
   85SBC   O00C59963   4.033   4.952  14.427
   85SBC   C0FR59964   4.115   4.941  14.317
   85SBC   O00D59965   4.088   5.009  14.221
   85SBC   C0E059966   4.163   4.713  14.668
   85SBC   C0E359967   4.231   4.853  14.331
   85SBC   C0AW59968   4.341   4.849  14.243
   85SBC   C0AV59969   4.354   4.940  14.134
   85SBC   H00Q59970   4.278   5.014  14.112
   85SBC   C0AU59971   4.469   4.944  14.055
   85SBC   H00R59972   4.481   5.022  13.981
   85SBC   C0AT59973   4.570   4.850  14.081
   85SBC   C0AS59974   4.706   4.818  14.037
   85SBC   C0AR59975   4.772   4.903  13.946
   85SBC   C0BE59976   4.551   4.761  14.186
   85SBC   C0DN59977   4.339   4.592  14.576
   85SBC   C0AX59978   4.434   4.754  14.262
   85SBC   C0BB59979   4.539   4.491  14.489
   85SBC   C0BD59980   4.658   4.675  14.200
   85SBC   C0B259981   4.743   4.392  14.404
   85SBC   C0AH59982   4.950   4.391  14.220
   85SBC   C0BF59983   4.759   4.701  14.108
   85SBC   C0AL59984   5.146   4.470  14.054
   85SBC   C07U59985   4.997   4.774  13.928
   85SBC   C0AQ59986   4.904   4.876  13.907
   85SBC   C0BG59987   4.734   5.033  13.895
   85SBC   C0FY59988   4.883   5.191  13.619
   85SBC   C0BJ59989   4.633   5.060  13.795
   85SBC   H00S59990   4.548   5.000  13.769
   85SBC   C0FZ59991   4.785   5.241  13.526
   85SBC   C07S59992   5.007   5.141  13.567
   85SBC   C0G159993   4.973   5.295  13.238
   85SBC   C07K59994   5.329   5.174  13.203
   85SBC   C07H59995   5.251   5.047  13.455
   85SBC   C06B59996   5.600   5.065  13.491
   85SBC   C06N59997   5.642   4.851  13.558
   85SBC   C06659998   5.260   4.885  13.659
   85SBC   C06259999   5.345   4.640  13.846
   85SBC   C05Y60000   5.684   4.628  13.662
   85SBC   C06160001   5.433   4.563  13.926
   85SBC   C05H60002   5.683   4.326  13.817
   85SBC   C06V60003   5.395   4.436  13.975
   85SBC   C06Y60004   5.377   4.186  14.112
   85SBC   C05C60005   5.689   4.093  13.950
   85SBC   C06Z60006   5.449   3.986  14.202
   85SBC   C07060007   5.635   3.788  14.221
   85SBC   C05B60008   5.784   3.987  13.956
   85SBC   C05760009   5.961   3.759  13.963
   85SBC   C05960010   5.839   3.672  14.146
   86SBC   C05860011   1.480   7.149  15.408
   86SBC   C05A60012   1.413   7.082  15.519
   86SBC   C06Q60013   1.380   7.153  15.631
   86SBC   C06R60014   1.297   7.097  15.728
   86SBC   C06S60015   1.252   6.964  15.718
   86SBC   C06T60016   1.166   6.916  15.819
   86SBC   C06U60017   1.082   6.792  15.823
   86SBC   C06X60018   1.089   6.676  15.750
   86SBC   C06060019   0.969   6.595  15.771
   86SBC   C05Z60020   0.968   6.448  15.790
   86SBC   C06860021   0.903   6.417  15.918
   86SBC   C06760022   0.889   6.284  15.990
   86SBC   C06960023   0.921   6.156  15.923
   86SBC   C06A60024   0.926   6.018  15.977
   86SBC   C07360025   0.944   5.983  16.106
   86SBC   C07P60026   1.045   5.884  16.132
   86SBC   C07O60027   1.141   5.843  16.033
   86SBC   H00D60028   1.134   5.883  15.933
   86SBC   C07N60029   1.243   5.755  16.053
   86SBC   H00E60030   1.314   5.718  15.980
   86SBC   C07M60031   1.249   5.699  16.187
   86SBC   H00F60032   1.330   5.633  16.213
   86SBC   C07L60033   1.159   5.729  16.292
   86SBC   C07Q60034   1.166   5.685  16.423
   86SBC   H00G60035   1.250   5.623  16.451
   86SBC   O00F60036   1.083   5.727  16.519
   86SBC   C07J60037   0.980   5.809  16.484
   86SBC   C07I60038   0.963   5.861  16.354
   86SBC   N00460039   0.867   5.959  16.328
   86SBC   C07R60040   0.777   5.992  16.435
   86SBC   C07T60041   0.793   5.936  16.565
   86SBC   C0FX60042   0.715   5.976  16.675
   86SBC   C0FW60043   0.752   5.953  16.806
   86SBC   C0G060044   0.859   5.857  16.826
   86SBC   C0G260045   0.898   5.816  16.952
   86SBC   H01E60046   0.967   5.735  16.973
   86SBC   C0G360047   0.840   5.873  17.069
   86SBC   H01C60048   0.852   5.831  17.168
   86SBC   C0G460049   0.739   5.976  17.046
   86SBC   H01D60050   0.686   6.036  17.119
   86SBC   O00E60051   0.922   5.799  16.714
   86SBC   C0FV60052   0.692   6.021  16.919
   86SBC   C0FU60053   0.602   6.127  16.883
   86SBC   H01B60054   0.553   6.187  16.958
   86SBC   C0FT60055   0.564   6.149  16.748
   86SBC   C0FS60056   0.498   6.250  16.673
   86SBC   C0BI60057   0.488   6.219  16.535
   86SBC   C0BH60058   0.473   6.336  16.458
   86SBC   C07F60059   0.573   6.386  16.372
   86SBC   C07E60060   0.660   6.314  16.286
   86SBC   C07G60061   0.701   6.184  16.301
   86SBC   C07460062   0.799   6.161  16.208
   86SBC   C06560063   0.742   6.377  16.193
   86SBC   C06460064   0.746   6.519  16.201
   86SBC   C06360065   0.822   6.599  16.114
   86SBC   C07560066   0.806   6.734  16.176
   86SBC   C0AM60067   0.715   6.737  16.292
   86SBC   C0AN60068   0.690   6.845  16.393
   86SBC   C0AO60069   0.741   6.986  16.398
   86SBC   C0B160070   0.696   7.083  16.497
   86SBC   C0B060071   0.602   7.053  16.586
   86SBC   C0AZ60072   0.556   7.135  16.686
   86SBC   C0AY60073   0.461   7.086  16.781
   86SBC   N00760074   0.412   7.166  16.884
   86SBC   C0E260075   0.312   7.115  16.978
   86SBC   C0E160076   0.255   7.205  17.068
   86SBC   C0E460077   0.149   7.161  17.150
   86SBC   C0FF60078   0.099   7.241  17.252
   86SBC   C0FJ60079   0.012   7.214  17.370
   86SBC   C0FK60080   0.011   7.086  17.436
   86SBC   H01660081   0.042   6.991  17.396
   86SBC   C0FL60082  -0.018   7.127  17.575
   86SBC   H01760083  -0.013   7.063  17.662
   86SBC   C0FM60084  -0.050   7.265  17.586
   86SBC   C0FH60085  -0.038   7.386  17.669
   86SBC   C0FI60086  -0.010   7.489  17.573
   86SBC   C0F360087   0.090   7.584  17.609
   86SBC   C0F260088   0.158   7.639  17.509
   86SBC   C0DW60089   0.169   7.585  17.382
   86SBC   C0FE60090   0.103   7.471  17.355
   86SBC   C0DV60091   0.271   7.631  17.297
   86SBC   C0DX60092   0.314   7.544  17.195
   86SBC   C0DK60093   0.425   7.580  17.118
   86SBC   C0DJ60094   0.505   7.691  17.150
   86SBC   C0DI60095   0.617   7.723  17.077
   86SBC   C0DH60096   0.645   7.657  16.961
   86SBC   C0DG60097   0.579   7.539  16.936
   86SBC   C0BV60098   0.613   7.464  16.823
   86SBC   C0BC60099   0.552   7.343  16.803
   86SBC   C0BA60100   0.713   7.513  16.733
   86SBC   C0B460101   0.752   7.429  16.629
   86SBC   C0B360102   0.702   7.302  16.614
   86SBC   C0B560103   0.856   7.474  16.544
   86SBC   C0BU60104   0.903   7.609  16.557
   86SBC   C0BT60105   0.865   7.684  16.669
   86SBC   C0BS60106   0.915   7.814  16.691
   86SBC   C0CC60107   0.892   7.877  16.807
   86SBC   C0CB60108   0.938   8.006  16.827
   86SBC   C0CH60109   0.949   8.045  16.961
   86SBC   C0DO60110   0.865   7.992  17.063
   86SBC   C0DP60111   0.849   8.047  17.188
   86SBC   C0EA60112   0.931   8.151  17.237
   86SBC   H01260113   1.005   8.203  17.178
   86SBC   O00960114   0.925   8.207  17.366
   86SBC   C0EH60115   0.831   8.145  17.442
   86SBC   C0EG60116   0.835   8.190  17.567
   86SBC   C0EJ60117   0.912   8.283  17.639
   86SBC   H01060118   0.988   8.343  17.591
   86SBC   C0EK60119   0.872   8.279  17.776
   86SBC   H00Z60120   0.908   8.332  17.863
   86SBC   C0EL60121   0.774   8.183  17.787
   86SBC   C0EM60122   0.703   8.132  17.899
   86SBC   C0EW60123   0.706   8.172  18.033
   86SBC   H01360124   0.776   8.245  18.070
   86SBC   C0EX60125   0.612   8.118  18.131
   86SBC   H01460126   0.612   8.156  18.232
   86SBC   C0F160127   0.524   8.015  18.089
   86SBC   C0EU60128   0.529   7.963  17.957
   86SBC   C0ET60129   0.436   7.877  17.895
   86SBC   C0ES60130   0.474   7.886  17.757
   86SBC   C0EE60131   0.586   7.967  17.741
   86SBC   C0ED60132   0.658   8.035  17.634
   86SBC   C0EC60133   0.645   7.999  17.498
   86SBC   C0EB60134   0.542   7.918  17.442
   86SBC   C0EN60135   0.422   7.878  17.521
   86SBC   C0ER60136   0.326   7.797  17.454
   86SBC   C0DS60137   0.558   7.866  17.311
   86SBC   C0DR60138   0.670   7.894  17.235
   86SBC   C0EY60139   0.378   7.871  17.657
   86SBC   C0EZ60140   0.265   7.781  17.673
   86SBC   C0F560141   0.204   7.701  17.783
   86SBC   C0F660142   0.238   7.723  17.921
   86SBC   N00860143   0.151   7.651  18.016
   86SBC   C0F760144   0.061   7.549  17.974
   86SBC   C0FQ60145  -0.012   7.483  18.070
   86SBC   H01860146  -0.065   7.395  18.037
   86SBC   C0FP60147  -0.005   7.516  18.206
   86SBC   H01960148  -0.056   7.458  18.281
   86SBC   C0FO60149   0.080   7.619  18.246
   86SBC   H01A60150   0.097   7.643  18.349
   86SBC   C0F860151   0.046   7.527  17.839
   86SBC   C0F960152   0.156   7.686  18.152
   86SBC   C0FA60153   0.248   7.789  18.199
   86SBC   H01560154   0.253   7.809  18.305
   86SBC   C0FB60155   0.335   7.853  18.111
   86SBC   C0FD60156   0.334   7.816  17.977
   86SBC   C0FC60157   0.429   7.945  18.173
   86SBC   O00A60158   0.432   7.969  18.294
   86SBC   C0EV60159   0.606   8.028  17.865
   86SBC   C0EF60160   0.755   8.129  17.661
   86SBC   C0EI60161   0.744   8.042  17.406
   86SBC   C0DQ60162   0.751   7.994  17.274
   86SBC   C0CE60163   0.787   7.886  17.025
   86SBC   H00U60164   0.999   8.137  16.988
   86SBC   C0CA60165   0.973   8.086  16.709
   86SBC   C0C960166   0.997   8.019  16.585
   86SBC   C0C860167   1.018   8.100  16.464
   86SBC   C0C760168   1.081   8.071  16.337
   86SBC   C0C660169   1.095   8.182  16.247
   86SBC   C0C560170   1.179   8.227  16.135
   86SBC   C0CQ60171   1.180   8.363  16.116
   86SBC   C0D160172   1.136   8.449  16.221
   86SBC   C0D860173   1.218   8.554  16.238
   86SBC   C0D760174   1.300   8.557  16.120
   86SBC   C0D660175   1.394   8.657  16.081
   86SBC   C0D560176   1.471   8.641  15.961
   86SBC   C0D460177   1.472   8.553  15.854
   86SBC   C0D360178   1.600   8.568  15.787
   86SBC   C0CX60179   1.635   8.434  15.730
   86SBC   C0CW60180   1.552   8.333  15.791
   86SBC   C0CV60181   1.529   8.186  15.776
   86SBC   C0D260182   1.608   8.111  15.682
   86SBC   C09D60183   1.704   8.152  15.584
   86SBC   C09C60184   1.782   8.064  15.498
   86SBC   C09B60185   1.848   8.102  15.380
   86SBC   C09A60186   1.848   8.244  15.360
   86SBC   C09960187   1.812   8.333  15.454
   86SBC   C09860188   1.797   8.463  15.399
   86SBC   C08Y60189   1.812   8.448  15.255
   86SBC   C08X60190   1.769   8.543  15.157
   86SBC   C08W60191   1.700   8.664  15.188
   86SBC   C08U60192   1.633   8.703  15.310
   86SBC   C08V60193   1.620   8.640  15.441
   86SBC   C0DC60194   1.553   8.734  15.523
   86SBC   H00W60195   1.520   8.708  15.623
   86SBC   C0DB60196   1.523   8.848  15.448
   86SBC   H00X60197   1.466   8.928  15.494
   86SBC   C08T60198   1.577   8.832  15.319
   86SBC   C08S60199   1.583   8.928  15.217
   86SBC   H00N60200   1.540   9.026  15.229
   86SBC   C08R60201   1.640   8.895  15.096
   86SBC   C08Q60202   1.653   8.990  14.991
   86SBC   H00O60203   1.622   9.092  15.005
   86SBC   C08P60204   1.685   8.950  14.858
   86SBC   C08O60205   1.694   9.035  14.744
   86SBC   H00P60206   1.688   9.142  14.755
   86SBC   C08N60207   1.685   8.981  14.612
   86SBC   C08M60208   1.693   9.069  14.496
   86SBC   O00860209   1.716   9.190  14.512
   86SBC   O00760210   1.663   9.015  14.375
   86SBC   C08H60211   1.658   8.879  14.357
   86SBC   C08G60212   1.637   8.816  14.228
   86SBC   C03V60213   1.597   8.884  14.112
   86SBC   H00960214   1.578   8.989  14.127
   86SBC   C03U60215   1.582   8.812  13.987
   86SBC   C03W60216   1.541   8.868  13.866
   86SBC   H00A60217   1.524   8.974  13.855
   86SBC   C03X60218   1.530   8.794  13.757
   86SBC   H00B60219   1.483   8.839  13.670
   86SBC   O00560220   1.571   8.659  13.751
   86SBC   C03O60221   1.606   8.600  13.870
   86SBC   C03N60222   1.649   8.469  13.864
   86SBC   O00060223   1.679   8.415  13.747
   86SBC   C01960224   1.701   8.280  13.740
   86SBC   C01860225   1.713   8.203  13.857
   86SBC   C01760226   1.709   8.265  13.980
   86SBC   C01660227   1.745   8.193  14.097
   86SBC   C01560228   1.767   8.061  14.077
   86SBC   C01460229   1.813   7.981  14.185
   86SBC   C01360230   1.822   8.034  14.316
   86SBC   C01260231   1.857   7.915  14.395
   86SBC   C01160232   1.869   7.807  14.304
   86SBC   C01060233   1.883   7.681  14.340
   86SBC   C00Z60234   1.863   7.559  14.274
   86SBC   C00Y60235   1.860   7.463  14.373
   86SBC   C01O60236   1.869   7.519  14.501
   86SBC   C01P60237   1.831   7.461  14.621
   86SBC   C02L60238   1.819   7.540  14.733
   86SBC   C02K60239   1.842   7.677  14.711
   86SBC   C01M60240   1.856   7.745  14.581
   86SBC   C02J60241   1.848   7.750  14.833
   86SBC   C02I60242   1.867   7.887  14.845
   86SBC   C02H60243   1.885   7.990  14.749
   86SBC   C01Q60244   1.871   7.995  14.614
   86SBC   C02G60245   1.872   8.130  14.571
   86SBC   C08960246   1.916   8.210  14.681
   86SBC   C08860247   1.856   8.335  14.680
   86SBC   C08760248   1.802   8.339  14.543
   86SBC   C08660249   1.742   8.452  14.480
   86SBC   C03S60250   1.716   8.471  14.342
   86SBC   N00660251   1.685   8.607  14.328
   86SBC   C08F60252   1.698   8.665  14.444
   86SBC   C01J60253   1.715   8.392  14.224
   86SBC   C03R60254   1.678   8.466  14.103
   86SBC   C03Q60255   1.644   8.602  14.102
   86SBC   C08E60256   1.733   8.580  14.546
   86SBC   C08D60257   1.737   8.622  14.681
   86SBC   C08K60258   1.712   8.758  14.702
   86SBC   C08C60259   1.769   8.544  14.793
   86SBC   C09160260   1.751   8.600  14.918
   86SBC   C09260261   1.711   8.734  14.945
   86SBC   C08B60262   1.819   8.412  14.799
   86SBC   C09060263   1.842   8.390  14.942
   86SBC   C09460264   1.910   8.275  14.999
   86SBC   C09560265   1.888   8.235  15.130
   86SBC   C09R60266   1.889   8.095  15.149
   86SBC   C09760267   1.896   8.045  15.020
   86SBC   C09660268   1.908   8.151  14.927
   86SBC   C01I60269   1.815   8.214  14.472
   86SBC   C08A60270   1.913   8.118  14.793
   86SBC   C09L60271   1.876   7.908  14.983
   86SBC   C09K60272   1.843   7.786  15.056
   86SBC   C09J60273   1.840   7.769  15.197
   86SBC   C09I60274   1.771   7.665  15.258
   86SBC   C09O60275   1.718   7.532  15.225
   86SBC   C09N60276   1.731   7.473  15.095
   86SBC   C09M60277   1.773   7.544  14.978
   86SBC   C06O60278   1.682   7.343  15.083
   86SBC   C05M60279   1.618   7.275  15.195
   86SBC   C06P60280   1.596   7.341  15.316
   86SBC   C04260281   1.567   7.147  15.176
   86SBC   C04160282   1.571   7.085  15.055
   86SBC   C04060283   1.511   6.962  15.043
   86SBC   C03Z60284   1.503   6.900  14.920
   86SBC   C03Y60285   1.572   6.954  14.811
   86SBC   C02760286   1.561   6.892  14.687
   86SBC   C02660287   1.612   6.959  14.575
   86SBC   C02860288   1.590   6.906  14.447
   86SBC   C02960289   1.505   6.794  14.433
   86SBC   C02B60290   1.466   6.749  14.307
   86SBC   C02C60291   1.373   6.647  14.294
   86SBC   C02X60292   1.315   6.617  14.171
   86SBC   C03E60293   1.238   6.506  14.163
   86SBC   C03G60294   1.189   6.437  14.269
   86SBC   C04Q60295   1.232   6.479  14.391
   86SBC   C04R60296   1.201   6.404  14.503
   86SBC   C04S60297   1.238   6.441  14.628
   86SBC   C04L60298   1.318   6.556  14.639
   86SBC   C04M60299   1.376   6.616  14.532
   86SBC   C04K60300   1.355   6.600  14.766
   86SBC   C04F60301   1.301   6.536  14.875
   86SBC   C04E60302   1.239   6.414  14.863
   86SBC   C04D60303   1.189   6.350  14.972
   86SBC   C05060304   1.139   6.220  14.953
   86SBC   C05160305   1.095   6.152  15.066
   86SBC   C05Q60306   1.039   6.021  15.056
   86SBC   C05V60307   0.997   5.960  15.170
   86SBC   N00560308   0.947   5.834  15.163
   86SBC   C07V60309   0.945   5.777  15.034
   86SBC   C08260310   0.899   5.642  15.023
   86SBC   C08160311   0.863   5.564  15.136
   86SBC   C07C60312   0.858   5.628  15.263
   86SBC   C07B60313   0.822   5.550  15.372
   86SBC   C08060314   0.779   5.415  15.361
   86SBC   C07Z60315   0.746   5.353  15.477
   86SBC   H00L60316   0.711   5.251  15.474
   86SBC   C07960317   0.750   5.408  15.606
   86SBC   C07860318   0.787   5.546  15.613
   86SBC   C07760319   0.782   5.608  15.740
   86SBC   C07X60320   0.743   5.540  15.861
   86SBC   H00I60321   0.748   5.586  15.959
   86SBC   C07Y60322   0.711   5.406  15.848
   86SBC   H00H60323   0.685   5.354  15.939
   86SBC   C07660324   0.828   5.738  15.748
   86SBC   C06C60325   0.848   5.797  15.874
   86SBC   H00C60326   0.850   5.757  15.975
   86SBC   C06F60327   0.860   5.808  15.630
   86SBC   C06E60328   0.909   5.940  15.638
   86SBC   C06G60329   0.954   6.017  15.536
   86SBC   C06H60330   0.945   5.957  15.408
   86SBC   C06I60331   0.893   5.825  15.400
   86SBC   C06L60332   0.994   6.152  15.554
   86SBC   C06M60333   0.978   6.224  15.674
   86SBC   C06K60334   1.043   6.213  15.439
   86SBC   C05S60335   1.043   6.150  15.313
   86SBC   C05U60336   1.089   6.343  15.450
   86SBC   C05X60337   1.087   6.411  15.570
   86SBC   C05G60338   1.172   6.530  15.571
   86SBC   C05F60339   1.236   6.575  15.457
   86SBC   C05E60340   1.289   6.702  15.465
   86SBC   C04860341   1.339   6.772  15.356
   86SBC   C05660342   1.391   6.895  15.378
   86SBC   C04560343   1.454   6.959  15.274
   86SBC   C04760344   1.332   6.708  15.238
   86SBC   C04960345   1.269   6.588  15.226
   86SBC   C04B60346   1.260   6.524  15.107
   86SBC   C04660347   1.394   6.773  15.134
   86SBC   C04H60348   1.384   6.712  15.012
   86SBC   C05D60349   1.265   6.751  15.590
   86SBC   C04A60350   1.216   6.518  15.335
   86SBC   C05T60351   1.144   6.401  15.330
   86SBC   C05560352   1.148   6.335  15.209
   86SBC   C06D60353   0.918   6.001  15.764
   86SBC   C07W60354   0.853   5.750  15.509
   86SBC   C08560355   0.711   5.341  15.728
   86SBC   H00M60356   0.681   5.238  15.720
   86SBC   C08460357   0.779   5.357  15.234
   86SBC   H00J60358   0.746   5.254  15.229
   86SBC   C07A60359   0.825   5.614  15.499
   86SBC   C08360360   0.828   5.425  15.125
   86SBC   H00K60361   0.846   5.375  15.031
   86SBC   O00K60362   0.888   5.578  14.900
   86SBC   C0GO60363   0.914   5.658  14.785
   86SBC   C0GN60364   0.885   5.608  14.658
   86SBC   H01L60365   0.842   5.510  14.646
   86SBC   C0GM60366   0.905   5.692  14.542
   86SBC   C0GL60367   0.855   5.642  14.425
   86SBC   H01M60368   0.833   5.538  14.408
   86SBC   O00J60369   0.841   5.721  14.312
   86SBC   C0GK60370   0.866   5.857  14.332
   86SBC   H01N60371   0.845   5.924  14.250
   86SBC   C05K60372   0.925   5.908  14.445
   86SBC   C05J60373   0.968   6.045  14.453
   86SBC   C04Y60374   0.973   6.149  14.349
   86SBC   C04X60375   1.058   6.257  14.363
   86SBC   O00660376   0.900   6.139  14.228
   86SBC   C05360377   0.915   6.228  14.126
   86SBC   C04O60378   1.022   6.324  14.128
   86SBC   C03C60379   1.077   6.398  14.020
   86SBC   C03B60380   1.040   6.424  13.878
   86SBC   C05460381   0.915   6.387  13.830
   86SBC   C0GR60382   0.869   6.430  13.704
   86SBC   C03M60383   0.907   6.533  13.599
   86SBC   C03I60384   1.013   6.629  13.610
   86SBC   C03J60385   1.030   6.724  13.503
   86SBC   N00260386   1.128   6.825  13.514
   86SBC   C02U60387   1.141   6.928  13.418
   86SBC   C02T60388   1.238   7.026  13.424
   86SBC   C02Z60389   1.246   7.128  13.327
   86SBC   N00160390   1.334   7.239  13.337
   86SBC   C02R60391   1.342   7.346  13.234
   86SBC   C03260392   1.258   7.331  13.126
   86SBC   C03160393   1.163   7.226  13.116
   86SBC   H00760394   1.087   7.221  13.040
   86SBC   C03360395   1.275   7.439  13.034
   86SBC   H00360396   1.208   7.438  12.949
   86SBC   O00460397   1.375   7.526  13.033
   86SBC   C03460398   1.460   7.531  13.145
   86SBC   C03560399   1.569   7.618  13.142
   86SBC   C03660400   1.664   7.614  13.244
   86SBC   H00560401   1.755   7.671  13.238
   86SBC   C03760402   1.642   7.519  13.352
   86SBC   H00660403   1.718   7.510  13.428
   86SBC   C00D60404   1.522   7.447  13.361
   86SBC   C00C60405   1.497   7.360  13.469
   86SBC   C00B60406   1.571   7.363  13.594
   86SBC   C00A60407   1.655   7.459  13.673
   86SBC   C00960408   1.715   7.375  13.776
   86SBC   C00860409   1.756   7.429  13.902
   86SBC   C00760410   1.763   7.568  13.918
   86SBC   C00660411   1.802   7.622  14.040
   86SBC   C00560412   1.799   7.764  14.053
   86SBC   C00460413   1.759   7.853  13.951
   86SBC   C00360414   1.719   7.792  13.828
   86SBC   C00260415   1.687   7.870  13.714
   86SBC   C01C60416   1.709   8.003  13.722
   86SBC   C01B60417   1.702   8.079  13.603
   86SBC   H00060418   1.702   8.029  13.507
   86SBC   C00160419   1.607   7.814  13.616
   86SBC   C00060420   1.584   7.680  13.622
   86SBC   C01U60421   1.455   7.672  13.567
   86SBC   H00260422   1.389   7.587  13.563
   86SBC   C01T60423   1.417   7.797  13.502
   86SBC   O00260424   1.325   7.829  13.422
   86SBC   O00160425   1.510   7.882  13.540
   86SBC   C01S60426   1.716   7.654  13.816
   86SBC   C00N60427   1.757   7.337  14.003
   86SBC   C00M60428   1.703   7.208  13.994
   86SBC   C00J60429   1.650   7.167  13.876
   86SBC   C00I60430   1.568   7.059  13.865
   86SBC   C00H60431   1.488   7.044  13.749
   86SBC   C00G60432   1.491   7.134  13.648
   86SBC   C00F60433   1.407   7.140  13.545
   86SBC   C01X60434   1.398   6.939  13.739
   86SBC   C01W60435   1.387   6.847  13.839
   86SBC   C01V60436   1.458   6.866  13.960
   86SBC   C02060437   1.433   6.797  14.075
   86SBC   C01Z60438   1.292   6.749  13.835
   86SBC   C02Y60439   1.273   6.676  13.943
   86SBC   C03960440   1.192   6.566  13.931
   86SBC   C02W60441   1.210   6.733  13.723
   86SBC   C01Y60442   1.316   6.931  13.626
   86SBC   C00U60443   1.545   6.979  13.972
   86SBC   C00S60444   1.608   7.011  14.092
   86SBC   C00T60445   1.580   6.937  14.206
   86SBC   C00R60446   1.685   7.129  14.103
   86SBC   C00Q60447   1.730   7.174  14.228
   86SBC   C00V60448   1.696   7.098  14.344
   86SBC   C02460449   1.721   7.149  14.469
   86SBC   C00X60450   1.788   7.266  14.482
   86SBC   C00P60451   1.787   7.297  14.240
   86SBC   C00O60452   1.799   7.381  14.129
   86SBC   C00K60453   1.667   7.246  13.767
   86SBC   N00060454   1.651   7.595  13.706
   86SBC   C00L60455   1.574   7.244  13.669
   86SBC   H00460456   1.590   7.683  13.058
   86SBC   C02Q60457   1.442   7.438  13.246
   86SBC   C00E60458   1.411   7.249  13.456
   86SBC   C03060459   1.158   7.123  13.213
   86SBC   O00360460   1.071   7.014  13.197
   86SBC   C02S60461   1.317   7.035  13.532
   86SBC   C03860462   1.057   6.921  13.301
   86SBC   C03L60463   0.971   6.815  13.284
   86SBC   H00860464   0.907   6.815  13.197
   86SBC   C02V60465   1.223   6.827  13.620
   86SBC   C03K60466   0.949   6.721  13.389
   86SBC   C0BK60467   0.857   6.614  13.378
   86SBC   H00T60468   0.806   6.612  13.283
   86SBC   C03H60469   1.105   6.636  13.718
   86SBC   C0BL60470   0.827   6.529  13.483
   86SBC   C0GU60471   0.714   6.439  13.474
   86SBC   H01O60472   0.649   6.454  13.389
   86SBC   C0GT60473   0.676   6.347  13.567
   86SBC   H01P60474   0.582   6.294  13.562
   86SBC   C0GS60475   0.750   6.349  13.681
   86SBC   C0GV60476   0.726   6.265  13.790
   86SBC   C0GW60477   0.623   6.172  13.822
   86SBC   H01Q60478   0.537   6.158  13.758
   86SBC   C0GX60479   0.639   6.100  13.939
   86SBC   H01R60480   0.570   6.018  13.954
   86SBC   O00L60481   0.732   6.121  14.033
   86SBC   C0GQ60482   0.834   6.278  13.884
   86SBC   C03A60483   1.111   6.542  13.828
   86SBC   C05L60484   0.831   6.211  14.009
   86SBC   C04W60485   1.035   6.084  14.577
   86SBC   C05I60486   1.028   6.001  14.688
   86SBC   C05O60487   0.980   5.873  14.681
   86SBC   C05260488   1.066   6.044  14.814
   86SBC   C04V60489   1.098   6.207  14.596
   86SBC   C04U60490   1.146   6.244  14.719
   86SBC   N00960491   0.949   5.824  14.558
   86SBC   C0GP60492   0.962   5.793  14.793
   86SBC   C05W60493   0.981   5.847  14.916
   86SBC   C07D60494   0.894   5.763  15.277
   86SBC   C06J60495   0.988   6.023  15.296
   86SBC   C05P60496   1.033   5.968  14.929
   86SBC   C05R60497   1.095   6.213  15.196
   86SBC   C04Z60498   1.118   6.169  14.828
   86SBC   C04C60499   1.198   6.404  15.099
   86SBC   C04G60500   1.320   6.589  14.999
   86SBC   C04J60501   1.432   6.713  14.777
   86SBC   C04T60502   1.208   6.364  14.736
   86SBC   N00360503   1.121   6.288  14.483
   86SBC   C04P60504   1.087   6.342  14.254
   86SBC   C03D60505   1.185   6.478  14.039
   86SBC   C02160506   1.342   6.698  14.063
   86SBC   C03F60507   1.334   6.576  14.407
   86SBC   C02260508   1.495   6.828  14.200
   86SBC   C02A60509   1.459   6.728  14.543
   86SBC   C02360510   1.627   6.979  14.334
   86SBC   C02560511   1.671   7.086  14.583
   86SBC   C02D60512   1.684   7.138  14.711
   86SBC   C02E60513   1.742   7.268  14.724
   86SBC   C02N60514   1.738   7.340  14.845
   86SBC   C04N60515   1.490   6.773  14.669
   86SBC   C02P60516   1.635   7.076  14.821
   86SBC   C04I60517   1.446   6.772  14.904
   86SBC   C04460518   1.454   6.897  15.154
   86SBC   C04360519   1.633   7.147  14.943
   86SBC   C05N60520   1.680   7.278  14.955
   86SBC   C09U60521   1.647   7.469  15.328
   86SBC   C09V60522   1.612   7.537  15.448
   86SBC   C09X60523   1.651   7.669  15.471
   86SBC   C09Y60524   1.611   7.750  15.577
   86SBC   C0A160525   1.530   7.697  15.670
   86SBC   C0A260526   1.497   7.559  15.660
   86SBC   C0A460527   1.413   7.502  15.753
   86SBC   C07160528   1.381   7.366  15.741
   86SBC   C0A560529   1.303   7.308  15.844
   86SBC   C0A960530   1.260   7.389  15.951
   86SBC   C0A860531   1.294   7.522  15.958
   86SBC   C0AP60532   1.258   7.596  16.070
   86SBC   C0BY60533   1.279   7.727  16.067
   86SBC   C0BX60534   1.343   7.796  15.968
   86SBC   C0C260535   1.351   7.932  15.967
   86SBC   C0C360536   1.427   7.992  15.868
   86SBC   C0CT60537   1.500   7.916  15.778
   86SBC   C0C160538   1.283   8.011  16.072
   86SBC   C0C060539   1.229   7.939  16.187
   86SBC   C0A760540   1.400   7.717  15.867
   86SBC   C0BZ60541   1.240   7.803  16.186
   86SBC   C0BO60542   1.175   7.741  16.289
   86SBC   C0BN60543   1.138   7.608  16.279
   86SBC   C0BM60544   1.046   7.569  16.371
   86SBC   C0B960545   0.997   7.440  16.355
   86SBC   C0B860546   1.048   7.364  16.257
   86SBC   C0AD60547   1.139   7.410  16.163
   86SBC   C0AF60548   1.005   7.227  16.250
   86SBC   C0AG60549   0.904   7.172  16.333
   86SBC   C0B760550   0.851   7.256  16.428
   86SBC   C0AE60551   1.063   7.155  16.148
   86SBC   C0AB60552   1.144   7.203  16.047
   86SBC   C0AA60553   1.179   7.124  15.939
   86SBC   C0AJ60554   1.005   7.034  16.128
   86SBC   C0AK60555   1.038   6.961  16.016
   86SBC   C06W60556   0.962   6.847  16.021
   86SBC   C0AI60557   0.905   6.973  16.207
   86SBC   C0BP60558   1.130   7.836  16.378
   86SBC   C0BQ60559   1.035   7.786  16.476
   86SBC   C0BW60560   1.187   7.540  16.173
   86SBC   C0AC60561   1.184   7.331  16.053
   86SBC   C0A660562   1.369   7.579  15.857
   86SBC   C0A360563   1.475   7.778  15.768
   86SBC   C09Z60564   1.648   7.882  15.587
   86SBC   C09W60565   1.536   7.479  15.548
   86SBC   C07260566   1.496   7.349  15.537
   86SBC   C09H60567   1.751   7.714  15.390
   86SBC   C09G60568   1.799   7.843  15.408
   86SBC   C09P60569   1.845   7.881  15.285
   86SBC   C02O60570   1.820   7.685  14.964
   86SBC   C02M60571   1.779   7.477  14.854
   86SBC   C02F60572   1.792   7.327  14.605
   86SBC   C00W60573   1.824   7.331  14.363
   86SBC   C01R60574   1.826   7.521  14.141
   86SBC   C01N60575   1.875   7.653  14.478
   86SBC   C01L60576   1.862   7.884  14.531
   86SBC   C01H60577   1.791   8.172  14.340
   86SBC   C01K60578   1.833   7.838  14.174
   86SBC   C01E60579   1.749   7.991  13.961
   86SBC   C01G60580   1.745   8.254  14.227
   86SBC   C01D60581   1.730   8.064  13.844
   86SBC   C01A60582   1.700   8.219  13.616
   86SBC   H00160583   1.682   8.265  13.520
   86SBC   C01F60584   1.675   8.399  13.985
   86SBC   C03P60585   1.603   8.668  13.990
   86SBC   C03T60586   1.652   8.679  14.219
   86SBC   C08I60587   1.684   8.796  14.472
   86SBC   C08J60588   1.692   8.845  14.598
   86SBC   C08L60589   1.703   8.814  14.832
   86SBC   C09360590   1.691   8.763  15.081
   86SBC   C08Z60591   1.792   8.508  15.020
   86SBC   C09T60592   1.698   8.526  15.484
   86SBC   C09S60593   1.864   8.316  15.237
   86SBC   C09Q60594   1.861   8.024  15.266
   86SBC   C09F60595   1.745   7.930  15.507
   86SBC   C09E60596   1.726   8.291  15.555
   86SBC   C0A060597   1.591   7.969  15.684
   86SBC   C0CU60598   1.433   8.132  15.863
   86SBC   C0CR60599   1.354   8.214  15.956
   86SBC   C0CZ60600   1.366   8.352  15.960
   86SBC   C0DA60601   1.661   8.419  15.586
   86SBC   C0D960602   1.684   8.647  15.877
   86SBC   H00V60603   1.791   8.645  15.868
   86SBC   C0CY60604   1.469   8.410  15.880
   86SBC   C0DF60605   1.598   8.706  15.976
   86SBC   C0DE60606   1.598   8.767  16.111
   86SBC   C0GI60607   1.701   8.841  16.176
   86SBC   H01K60608   1.790   8.860  16.118
   86SBC   C0GJ60609   1.671   8.865  16.313
   86SBC   H01J60610   1.743   8.909  16.380
   86SBC   O00I60611   1.547   8.842  16.377
   86SBC   C0GH60612   1.451   8.763  16.312
   86SBC   C0GG60613   1.340   8.721  16.394
   86SBC   O00G60614   1.329   8.785  16.515
   86SBC   C0G860615   1.228   8.754  16.607
   86SBC   C0G960616   1.207   8.840  16.709
   86SBC   H01G60617   1.268   8.930  16.712
   86SBC   C0GA60618   1.111   8.810  16.810
   86SBC   H01H60619   1.087   8.882  16.887
   86SBC   C0GB60620   1.030   8.694  16.806
   86SBC   C0EP60621   1.062   8.603  16.706
   86SBC   C0E860622   1.025   8.462  16.729
   86SBC   C0CK60623   1.052   8.337  16.666
   86SBC   C0CL60624   1.029   8.339  16.524
   86SBC   C0E960625   1.088   8.446  16.446
   86SBC   C0GE60626   1.159   8.571  16.470
   86SBC   C0E760627   0.927   8.435  16.824
   86SBC   C0CJ60628   0.888   8.298  16.829
   86SBC   C0E660629   0.764   8.273  16.896
   86SBC   H00Y60630   0.720   8.175  16.898
   86SBC   C0EO60631   0.711   8.377  16.975
   86SBC   H01160632   0.620   8.357  17.030
   86SBC   C0G660633   0.764   8.510  16.978
   86SBC   C0G560634   0.716   8.624  17.066
   86SBC   H01F60635   0.629   8.604  17.127
   86SBC   C0GD60636   0.768   8.746  17.054
   86SBC   H01I60637   0.723   8.827  17.111
   86SBC   O00H60638   0.878   8.777  16.973
   86SBC   C0EQ60639   0.870   8.542  16.896
   86SBC   C0GC60640   0.919   8.673  16.890
   86SBC   C0G760641   1.147   8.636  16.596
   86SBC   C0DD60642   1.476   8.732  16.174
   86SBC   C0GF60643   1.242   8.617  16.364
   86SBC   C0CO60644   1.062   8.402  16.317
   86SBC   C0D060645   1.287   8.424  16.055
   86SBC   C0C460646   1.273   8.150  16.054
   86SBC   C0CN60647   1.006   8.276  16.308
   86SBC   C0CP60648   1.162   7.957  16.314
   86SBC   C0CM60649   0.982   8.234  16.442
   86SBC   C0CI60650   0.981   8.230  16.737
   86SBC   C0CD60651   0.809   7.816  16.904
   86SBC   C0BR60652   0.986   7.874  16.582
   86SBC   C0CS60653   0.999   7.656  16.470
   86SBC   C0B660654   0.902   7.390  16.443
   86SBC   C0CG60655   0.778   7.629  16.759
   86SBC   C0CF60656   0.742   7.701  16.876
   86SBC   C0E560657   0.689   7.837  17.113
   86SBC   C0DT60658   0.474   7.766  17.268
   86SBC   C0DL60659   0.473   7.497  17.017
   86SBC   C0DM60660   0.408   7.377  16.996
   86SBC   C0DY60661   0.252   7.424  17.174
   86SBC   C0DU60662   0.354   7.740  17.332
   86SBC   C0F060663   0.238   7.745  17.542
   86SBC   C0F460664   0.111   7.609  17.744
   86SBC   C0FG60665  -0.005   7.430  17.440
   86SBC   O00B60666  -0.014   7.404  17.800
   86SBC   C0FN60667  -0.059   7.303  17.451
   86SBC   C0DZ60668   0.148   7.378  17.255
   86SBC   O00C60669   0.116   7.029  17.149
   86SBC   C0FR60670   0.168   6.935  17.067
   86SBC   O00D60671   0.134   6.820  17.087
   86SBC   C0E060672   0.304   7.335  17.081
   86SBC   C0E360673   0.272   6.982  16.972
   86SBC   C0AW60674   0.321   6.902  16.868
   86SBC   C0AV60675   0.285   6.764  16.847
   86SBC   H00Q60676   0.209   6.715  16.905
   86SBC   C0AU60677   0.340   6.685  16.746
   86SBC   H00R60678   0.302   6.583  16.745
   86SBC   C0AT60679   0.435   6.743  16.665
   86SBC   C0AS60680   0.518   6.700  16.547
   86SBC   C0AR60681   0.518   6.562  16.502
   86SBC   C0BE60682   0.465   6.875  16.682
   86SBC   C0DN60683   0.456   7.296  16.892
   86SBC   C0AX60684   0.416   6.959  16.786
   86SBC   C0BB60685   0.604   7.260  16.701
   86SBC   C0BD60686   0.548   6.922  16.581
   86SBC   C0B260687   0.747   7.213  16.514
   86SBC   C0AH60688   0.853   7.038  16.322
   86SBC   C0BF60689   0.589   6.823  16.493
   86SBC   C0AL60690   0.874   6.851  16.134
   86SBC   C07U60691   0.677   6.598  16.304
   86SBC   C0AQ60692   0.595   6.525  16.389
   86SBC   C0BG60693   0.447   6.442  16.553
   86SBC   C0FY60694   0.587   6.121  16.516
   86SBC   C0BJ60695   0.461   6.387  16.687
   86SBC   H00S60696   0.477   6.444  16.777
   86SBC   C0FZ60697   0.617   6.073  16.644
   86SBC   C07S60698   0.680   6.096  16.412
   86SBC   C0G160699   0.896   5.847  16.587
   86SBC   C07K60700   1.054   5.824  16.254
   86SBC   C07H60701   0.866   6.034  16.210
   86SBC   C06B60702   0.889   5.926  15.876
   86SBC   C06N60703   0.941   6.135  15.782
   86SBC   C06660704   0.814   6.274  16.116
   86SBC   C06260705   0.868   6.551  15.979
   86SBC   C05Y60706   1.006   6.362  15.678
   86SBC   C06160707   0.902   6.648  15.883
   86SBC   C05H60708   1.184   6.650  15.652
   86SBC   C06V60709   0.977   6.764  15.912
   86SBC   C06Y60710   1.134   6.998  15.926
   86SBC   C05C60711   1.295   6.893  15.604
   86SBC   C06Z60712   1.255   7.175  15.836
   86SBC   C07060713   1.419   7.290  15.635
   86SBC   C05B60714   1.373   6.953  15.501
   86SBC   C05760715   1.502   7.085  15.284
   86SBC   C05960716   1.529   7.277  15.423
   87SBC   C05860717   5.672   5.652   6.485
   87SBC   C05A60718   5.531   5.650   6.465
   87SBC   C06Q60719   5.453   5.763   6.463
   87SBC   C06R60720   5.315   5.762   6.444
   87SBC   C06S60721   5.251   5.642   6.408
   87SBC   C06T60722   5.108   5.648   6.400
   87SBC   C06U60723   5.013   5.538   6.374
   87SBC   C06X60724   5.027   5.398   6.352
   87SBC   C06060725   4.900   5.340   6.313
   87SBC   C05Z60726   4.836   5.211   6.349
   87SBC   C06860727   4.691   5.249   6.370
   87SBC   C06760728   4.575   5.159   6.385
   87SBC   C06960729   4.592   5.018   6.360
   87SBC   C06A60730   4.491   4.914   6.368
   87SBC   C07360731   4.382   4.895   6.457
   87SBC   C07P60732   4.383   4.778   6.536
   87SBC   C07O60733   4.485   4.685   6.557
   87SBC   H00D60734   4.585   4.708   6.523
   87SBC   C07N60735   4.478   4.573   6.632
   87SBC   H00E60736   4.563   4.514   6.663
   87SBC   C07M60737   4.353   4.542   6.684
   87SBC   H00F60738   4.340   4.450   6.738
   87SBC   C07L60739   4.242   4.627   6.671
   87SBC   C07Q60740   4.107   4.606   6.724
   87SBC   H00G60741   4.077   4.507   6.754
   87SBC   O00F60742   4.004   4.691   6.706
   87SBC   C07J60743   4.028   4.804   6.643
   87SBC   C07I60744   4.153   4.841   6.591
   87SBC   N00460745   4.165   4.962   6.520
   87SBC   C07R60746   4.051   5.045   6.496
   87SBC   C07T60747   3.935   5.012   6.565
   87SBC   C0FX60748   3.830   5.096   6.579
   87SBC   C0FW60749   3.716   5.079   6.656
   87SBC   C0G060750   3.706   4.954   6.720
   87SBC   C0G260751   3.597   4.930   6.804
   87SBC   H01E60752   3.587   4.834   6.853
   87SBC   C0G360753   3.498   5.033   6.827
   87SBC   H01C60754   3.412   5.012   6.888
   87SBC   C0G460755   3.516   5.158   6.773
   87SBC   H01D60756   3.435   5.224   6.800
   87SBC   O00E60757   3.801   4.856   6.695
   87SBC   C0FV60758   3.626   5.187   6.685
   87SBC   C0FU60759   3.668   5.313   6.638
   87SBC   H01B60760   3.611   5.400   6.666
   87SBC   C0FT60761   3.776   5.332   6.545
   87SBC   C0FS60762   3.846   5.438   6.466
   87SBC   C0BI60763   3.930   5.371   6.374
   87SBC   C0BH60764   4.022   5.463   6.322
   87SBC   C07F60765   4.162   5.447   6.353
   87SBC   C07E60766   4.240   5.333   6.369
   87SBC   C07G60767   4.192   5.202   6.393
   87SBC   C07460768   4.308   5.133   6.424
   87SBC   C06560769   4.383   5.339   6.383
   87SBC   C06460770   4.440   5.469   6.396
   87SBC   C06360771   4.573   5.497   6.406
   87SBC   C07560772   4.570   5.645   6.425
   87SBC   C0AM60773   4.437   5.708   6.432
   87SBC   C0AN60774   4.389   5.849   6.449
   87SBC   C0AO60775   4.470   5.966   6.486
   87SBC   C0B160776   4.407   6.085   6.534
   87SBC   C0B060777   4.273   6.099   6.538
   87SBC   C0AZ60778   4.201   6.204   6.592
   87SBC   C0AY60779   4.060   6.200   6.597
   87SBC   N00760780   3.990   6.293   6.678
   87SBC   C0E260781   3.849   6.284   6.690
   87SBC   C0E160782   3.781   6.380   6.751
   87SBC   C0E460783   3.641   6.372   6.766
   87SBC   C0FF60784   3.567   6.467   6.835
   87SBC   C0FJ60785   3.420   6.493   6.839
   87SBC   C0FK60786   3.360   6.516   6.712
   87SBC   H01660787   3.407   6.486   6.619
   87SBC   C0FL60788   3.273   6.627   6.732
   87SBC   H01760789   3.227   6.689   6.656
   87SBC   C0FM60790   3.265   6.657   6.876
   87SBC   C0FH60791   3.257   6.780   6.952
   87SBC   C0FI60792   3.364   6.760   7.044
   87SBC   C0F360793   3.435   6.877   7.087
   87SBC   C0F260794   3.568   6.850   7.115
   87SBC   C0DW60795   3.641   6.749   7.061
   87SBC   C0FE60796   3.577   6.639   7.010
   87SBC   C0DV60797   3.776   6.759   7.035
   87SBC   C0DX60798   3.849   6.667   6.963
   87SBC   C0DK60799   3.988   6.684   6.944
   87SBC   C0DJ60800   4.052   6.790   7.000
   87SBC   C0DI60801   4.188   6.798   6.991
   87SBC   C0DH60802   4.264   6.703   6.912
   87SBC   C0DG60803   4.195   6.601   6.854
   87SBC   C0BV60804   4.269   6.504   6.792
   87SBC   C0BC60805   4.196   6.404   6.724
   87SBC   C0BA60806   4.405   6.509   6.781
   87SBC   C0B460807   4.469   6.405   6.715
   87SBC   C0B360808   4.403   6.303   6.648
   87SBC   C0B560809   4.604   6.417   6.701
   87SBC   C0BU60810   4.676   6.536   6.737
   87SBC   C0BT60811   4.609   6.634   6.801
   87SBC   C0BS60812   4.678   6.745   6.854
   87SBC   C0CC60813   4.604   6.841   6.929
   87SBC   C0CB60814   4.663   6.947   6.991
   87SBC   C0CH60815   4.588   7.014   7.090
   87SBC   C0DO60816   4.454   7.018   7.099
   87SBC   C0DP60817   4.381   7.122   7.164
   87SBC   C0EA60818   4.446   7.241   7.224
   87SBC   H01260819   4.552   7.251   7.242
   87SBC   O00960820   4.380   7.359   7.257
   87SBC   C0EH60821   4.249   7.358   7.234
   87SBC   C0EG60822   4.188   7.487   7.241
   87SBC   C0EJ60823   4.224   7.629   7.253
   87SBC   H01060824   4.317   7.678   7.280
   87SBC   C0EK60825   4.107   7.712   7.224
   87SBC   H00Z60826   4.108   7.819   7.227
   87SBC   C0EL60827   4.004   7.620   7.194
   87SBC   C0EM60828   3.865   7.639   7.163
   87SBC   C0EW60829   3.804   7.763   7.153
   87SBC   H01360830   3.854   7.858   7.162
   87SBC   C0EX60831   3.658   7.769   7.130
   87SBC   H01460832   3.608   7.864   7.135
   87SBC   C0F160833   3.581   7.647   7.127
   87SBC   C0EU60834   3.653   7.527   7.129
   87SBC   C0ET60835   3.595   7.395   7.130
   87SBC   C0ES60836   3.707   7.312   7.136
   87SBC   C0EE60837   3.823   7.390   7.153
   87SBC   C0ED60838   3.966   7.378   7.182
   87SBC   C0EC60839   4.037   7.251   7.181
   87SBC   C0EB60840   3.974   7.122   7.152
   87SBC   C0EN60841   3.829   7.099   7.160
   87SBC   C0ER60842   3.779   6.970   7.141
   87SBC   C0DS60843   4.044   7.009   7.109
   87SBC   C0DR60844   4.179   7.016   7.105
   87SBC   C0EY60845   3.705   7.178   7.168
   87SBC   C0EZ60846   3.589   7.100   7.146
   87SBC   C0F560847   3.448   7.123   7.105
   87SBC   C0F660848   3.391   7.251   7.100
   87SBC   N00860849   3.255   7.253   7.056
   87SBC   C0F760850   3.190   7.132   6.998
   87SBC   C0FQ60851   3.057   7.149   6.948
   87SBC   H01860852   3.011   7.061   6.905
   87SBC   C0FP60853   2.995   7.265   6.937
   87SBC   H01960854   2.895   7.272   6.896
   87SBC   C0FO60855   3.059   7.374   6.999
   87SBC   H01A60856   3.015   7.472   6.989
   87SBC   C0F860857   3.259   7.008   6.999
   87SBC   C0F960858   3.184   7.373   7.058
   87SBC   C0FA60859   3.242   7.497   7.094
   87SBC   H01560860   3.188   7.590   7.081
   87SBC   C0FB60861   3.381   7.501   7.119
   87SBC   C0FD60862   3.451   7.378   7.128
   87SBC   C0FC60863   3.437   7.634   7.127
   87SBC   O00A60864   3.365   7.735   7.129
   87SBC   C0EV60865   3.786   7.526   7.147
   87SBC   C0EF60866   4.049   7.489   7.212
   87SBC   C0EI60867   4.176   7.248   7.190
   87SBC   C0DQ60868   4.243   7.125   7.156
   87SBC   C0CE60869   4.390   6.916   7.031
   87SBC   H00U60870   4.640   7.081   7.157
   87SBC   C0CA60871   4.793   6.974   6.951
   87SBC   C0C960872   4.876   6.890   6.871
   87SBC   C0C860873   5.004   6.941   6.826
   87SBC   C0C760874   5.124   6.871   6.777
   87SBC   C0C660875   5.236   6.954   6.743
   87SBC   C0C560876   5.383   6.944   6.735
   87SBC   C0CQ60877   5.459   7.066   6.753
   87SBC   C0D160878   5.392   7.173   6.820
   87SBC   C0D860879   5.469   7.214   6.922
   87SBC   C0D760880   5.597   7.178   6.884
   87SBC   C0D660881   5.710   7.199   6.966
   87SBC   C0D560882   5.843   7.164   6.929
   87SBC   C0D460883   5.886   7.063   6.835
   87SBC   C0D360884   6.013   7.022   6.878
   87SBC   C0CX60885   6.024   6.881   6.841
   87SBC   C0CW60886   5.894   6.833   6.786
   87SBC   C0CV60887   5.829   6.706   6.737
   87SBC   C0D260888   5.910   6.598   6.704
   87SBC   C09D60889   6.053   6.599   6.679
   87SBC   C09C60890   6.114   6.484   6.630
   87SBC   C09B60891   6.254   6.471   6.616
   87SBC   C09A60892   6.336   6.584   6.652
   87SBC   C09960893   6.282   6.698   6.683
   87SBC   C09860894   6.374   6.771   6.756
   87SBC   C08Y60895   6.484   6.689   6.789
   87SBC   C08X60896   6.601   6.714   6.874
   87SBC   C08W60897   6.617   6.839   6.954
   87SBC   C08U60898   6.513   6.944   6.964
   87SBC   C08V60899   6.375   6.954   6.914
   87SBC   C0DC60900   6.342   7.094   6.923
   87SBC   H00W60901   6.254   7.132   6.872
   87SBC   C0DB60902   6.446   7.157   6.994
   87SBC   H00X60903   6.437   7.263   7.012
   87SBC   C08T60904   6.551   7.068   7.020
   87SBC   C08S60905   6.670   7.091   7.089
   87SBC   H00N60906   6.693   7.184   7.138
   87SBC   C08R60907   6.760   6.985   7.103
   87SBC   C08Q60908   6.883   6.996   7.171
   87SBC   H00O60909   6.894   7.094   7.217
   87SBC   C08P60910   6.980   6.893   7.189
   87SBC   C08O60911   7.101   6.898   7.276
   87SBC   H00P60912   7.117   6.990   7.329
   87SBC   C08N60913   7.192   6.792   7.279
   87SBC   C08M60914   7.315   6.803   7.353
   87SBC   O00860915   7.352   6.906   7.410
   87SBC   O00760916   7.401   6.701   7.351
   87SBC   C08H60917   7.368   6.580   7.306
   87SBC   C08G60918   7.451   6.460   7.322
   87SBC   C03V60919   7.581   6.442   7.378
   87SBC   H00960920   7.627   6.533   7.414
   87SBC   C03U60921   7.654   6.321   7.388
   87SBC   C03W60922   7.788   6.304   7.436
   87SBC   H00A60923   7.836   6.396   7.465
   87SBC   C03X60924   7.842   6.183   7.433
   87SBC   H00B60925   7.944   6.161   7.463
   87SBC   O00560926   7.788   6.067   7.382
   87SBC   C03O60927   7.658   6.083   7.338
   87SBC   C03N60928   7.587   5.969   7.299
   87SBC   O00060929   7.642   5.842   7.329
   87SBC   C01960930   7.559   5.734   7.324
   87SBC   C01860931   7.438   5.729   7.265
   87SBC   C01760932   7.383   5.854   7.222
   87SBC   C01660933   7.265   5.858   7.146
   87SBC   C01560934   7.199   5.733   7.131
   87SBC   C01460935   7.088   5.731   7.047
   87SBC   C01360936   7.035   5.845   6.981
   87SBC   C01260937   6.927   5.794   6.899
   87SBC   C01160938   6.939   5.657   6.919
   87SBC   C01060939   6.850   5.572   6.866
   87SBC   C00Z60940   6.834   5.438   6.889
   87SBC   C00Y60941   6.726   5.410   6.804
   87SBC   C01O60942   6.679   5.518   6.735
   87SBC   C01P60943   6.549   5.538   6.694
   87SBC   C02L60944   6.503   5.663   6.671
   87SBC   C02K60945   6.588   5.766   6.698
   87SBC   C01M60946   6.720   5.756   6.754
   87SBC   C02J60947   6.537   5.888   6.645
   87SBC   C02I60948   6.602   6.008   6.654
   87SBC   C02H60949   6.722   6.047   6.721
   87SBC   C01Q60950   6.817   5.980   6.793
   87SBC   C02G60951   6.909   6.077   6.855
   87SBC   C08960952   6.871   6.203   6.806
   87SBC   C08860953   6.905   6.297   6.906
   87SBC   C08760954   7.013   6.230   6.977
   87SBC   C08660955   7.095   6.287   7.083
   87SBC   C03S60956   7.216   6.230   7.146
   87SBC   N00660957   7.283   6.334   7.207
   87SBC   C08F60958   7.211   6.449   7.195
   87SBC   C01J60959   7.271   6.100   7.160
   87SBC   C03R60960   7.398   6.095   7.225
   87SBC   C03Q60961   7.462   6.211   7.278
   87SBC   C08E60962   7.101   6.426   7.115
   87SBC   C08D60963   7.017   6.540   7.074
   87SBC   C08K60964   7.044   6.664   7.135
   87SBC   C08C60965   6.904   6.541   6.989
   87SBC   C09160966   6.818   6.647   6.972
   87SBC   C09260967   6.838   6.769   7.041
   87SBC   C08B60968   6.856   6.438   6.902
   87SBC   C09060969   6.734   6.491   6.830
   87SBC   C09460970   6.651   6.420   6.734
   87SBC   C09560971   6.525   6.463   6.687
   87SBC   C09R60972   6.459   6.355   6.628
   87SBC   C09760973   6.538   6.244   6.640
   87SBC   C09660974   6.656   6.280   6.703
   87SBC   C01I60975   7.014   6.088   6.951
   87SBC   C08A60976   6.754   6.185   6.734
   87SBC   C09L60977   6.515   6.102   6.606
   87SBC   C09K60978   6.391   6.041   6.565
   87SBC   C09J60979   6.265   6.100   6.543
   87SBC   C09I60980   6.141   6.037   6.528
   87SBC   C09O60981   6.083   5.906   6.525
   87SBC   C09N60982   6.168   5.792   6.549
   87SBC   C09M60983   6.307   5.787   6.583
   87SBC   C06O60984   6.093   5.668   6.541
   87SBC   C05M60985   5.954   5.666   6.513
   87SBC   C06P60986   5.877   5.781   6.510
   87SBC   C04260987   5.888   5.544   6.502
   87SBC   C04160988   5.954   5.425   6.522
   87SBC   C04060989   5.886   5.299   6.523
   87SBC   C03Z60990   5.951   5.175   6.547
   87SBC   C03Y60991   6.081   5.180   6.595
   87SBC   C02760992   6.138   5.063   6.642
   87SBC   C02660993   6.262   5.063   6.695
   87SBC   C02860994   6.323   4.949   6.749
   87SBC   C02960995   6.248   4.831   6.750
   87SBC   C02B60996   6.298   4.724   6.814
   87SBC   C02C60997   6.229   4.607   6.817
   87SBC   C02X60998   6.281   4.496   6.890
   87SBC   C03E60999   6.201   4.386   6.902
   87SBC   C03G61000   6.077   4.370   6.846
   87SBC   C04Q61001   6.036   4.478   6.768
   87SBC   C04R61002   5.903   4.480   6.713
   87SBC   C04S61003   5.846   4.590   6.658
   87SBC   C04L61004   5.924   4.706   6.636
   87SBC   C04M61005   6.054   4.707   6.690
   87SBC   C04K61006   5.870   4.818   6.585
   87SBC   C04F61007   5.736   4.817   6.551
   87SBC   C04E61008   5.660   4.703   6.567
   87SBC   C04D61009   5.527   4.704   6.533
   87SBC   C05061010   5.448   4.592   6.541
   87SBC   C05161011   5.323   4.592   6.489
   87SBC   C05Q61012   5.262   4.469   6.476
   87SBC   C05V61013   5.131   4.472   6.424
   87SBC   N00561014   5.065   4.350   6.400
   87SBC   C07V61015   5.123   4.234   6.451
   87SBC   C08261016   5.057   4.110   6.429
   87SBC   C08161017   4.945   4.105   6.350
   87SBC   C07C61018   4.887   4.224   6.301
   87SBC   C07B61019   4.765   4.218   6.233
   87SBC   C08061020   4.714   4.097   6.184
   87SBC   C07Z61021   4.598   4.103   6.107
   87SBC   H00L61022   4.564   4.014   6.056
   87SBC   C07961023   4.517   4.220   6.098
   87SBC   C07861024   4.567   4.338   6.152
   87SBC   C07761025   4.489   4.455   6.153
   87SBC   C07X61026   4.356   4.450   6.107
   87SBC   H00I61027   4.291   4.535   6.120
   87SBC   C07Y61028   4.306   4.333   6.043
   87SBC   H00H61029   4.209   4.342   5.997
   87SBC   C07661030   4.544   4.571   6.208
   87SBC   C06C61031   4.464   4.682   6.246
   87SBC   H00C61032   4.356   4.686   6.243
   87SBC   C06F61033   4.682   4.574   6.238
   87SBC   C06E61034   4.745   4.698   6.271
   87SBC   C06G61035   4.872   4.715   6.312
   87SBC   C06H61036   4.939   4.592   6.335
   87SBC   C06I61037   4.879   4.465   6.306
   87SBC   C06L61038   4.924   4.838   6.349
   87SBC   C06M61039   4.853   4.961   6.347
   87SBC   C06K61040   5.056   4.839   6.390
   87SBC   C05S61041   5.120   4.715   6.416
   87SBC   C05U61042   5.126   4.959   6.400
   87SBC   C05X61043   5.061   5.087   6.377
   87SBC   C05G61044   5.155   5.195   6.383
   87SBC   C05F61045   5.286   5.169   6.393
   87SBC   C05E61046   5.353   5.286   6.397
   87SBC   C04861047   5.492   5.292   6.424
   87SBC   C05661048   5.552   5.415   6.442
   87SBC   C04561049   5.686   5.417   6.470
   87SBC   C04761050   5.553   5.173   6.449
   87SBC   C04961051   5.477   5.055   6.457
   87SBC   C04B61052   5.540   4.937   6.496
   87SBC   C04661053   5.687   5.172   6.480
   87SBC   C04H61054   5.750   5.055   6.512
   87SBC   C05D61055   5.275   5.397   6.389
   87SBC   C04A61056   5.344   5.053   6.429
   87SBC   C05T61057   5.263   4.945   6.431
   87SBC   C05561058   5.328   4.824   6.469
   87SBC   C06D61059   4.665   4.813   6.280
   87SBC   C07W61060   4.751   4.455   6.255
   87SBC   C08561061   4.383   4.220   6.051
   87SBC   H00M61062   4.327   4.131   6.025
   87SBC   C08461063   4.775   3.975   6.229
   87SBC   H00J61064   4.746   3.874   6.206
   87SBC   C07A61065   4.694   4.336   6.209
   87SBC   C08361066   4.885   3.981   6.314
   87SBC   H00K61067   4.936   3.894   6.353
   87SBC   O00K61068   5.110   3.991   6.472
   87SBC   C0GO61069   5.221   4.001   6.545
   87SBC   C0GN61070   5.278   3.885   6.600
   87SBC   H01L61071   5.234   3.788   6.582
   87SBC   C0GM61072   5.411   3.883   6.657
   87SBC   C0GL61073   5.467   3.765   6.695
   87SBC   H01M61074   5.409   3.676   6.679
   87SBC   O00J61075   5.592   3.755   6.757
   87SBC   C0GK61076   5.653   3.876   6.776
   87SBC   H01N61077   5.756   3.874   6.807
   87SBC   C05K61078   5.597   4.003   6.742
   87SBC   C05J61079   5.674   4.124   6.763
   87SBC   C04Y61080   5.793   4.145   6.841
   87SBC   C04X61081   5.871   4.255   6.822
   87SBC   O00661082   5.831   4.046   6.926
   87SBC   C05361083   5.943   4.069   7.009
   87SBC   C04O61084   6.036   4.168   6.979
   87SBC   C03C61085   6.164   4.194   7.048
   87SBC   C03B61086   6.233   4.144   7.165
   87SBC   C05461087   6.173   4.057   7.259
   87SBC   C0GR61088   6.238   4.021   7.379
   87SBC   C03M61089   6.357   4.061   7.457
   87SBC   C03I61090   6.448   4.170   7.413
   87SBC   C03J61091   6.555   4.194   7.507
   87SBC   N00261092   6.650   4.302   7.478
   87SBC   C02U61093   6.750   4.343   7.571
   87SBC   C02T61094   6.843   4.444   7.541
   87SBC   C02Z61095   6.925   4.494   7.644
   87SBC   N00161096   6.999   4.618   7.637
   87SBC   C02R61097   7.075   4.666   7.746
   87SBC   C03261098   7.098   4.583   7.856
   87SBC   C03161099   7.024   4.461   7.861
   87SBC   H00761100   7.024   4.407   7.954
   87SBC   C03361101   7.189   4.631   7.956
   87SBC   H00361102   7.224   4.563   8.033
   87SBC   O00461103   7.234   4.762   7.955
   87SBC   C03461104   7.206   4.838   7.840
   87SBC   C03561105   7.243   4.972   7.849
   87SBC   C03661106   7.220   5.058   7.746
   87SBC   H00561107   7.251   5.161   7.750
   87SBC   C03761108   7.153   5.003   7.628
   87SBC   H00661109   7.131   5.068   7.545
   87SBC   C00D61110   7.117   4.871   7.619
   87SBC   C00C61111   7.063   4.812   7.506
   87SBC   C00B61112   7.060   4.888   7.376
   87SBC   C00A61113   7.082   5.029   7.319
   87SBC   C00961114   7.004   5.028   7.203
   87SBC   C00861115   6.972   5.136   7.121
   87SBC   C00761116   7.042   5.254   7.135
   87SBC   C00661117   7.002   5.361   7.057
   87SBC   C00561118   7.070   5.486   7.079
   87SBC   C00461119   7.181   5.491   7.169
   87SBC   C00361120   7.223   5.375   7.241
   87SBC   C00261121   7.345   5.372   7.307
   87SBC   C01C61122   7.414   5.498   7.314
   87SBC   C01B61123   7.548   5.498   7.366
   87SBC   H00061124   7.603   5.411   7.397
   87SBC   C00161125   7.388   5.253   7.367
   87SBC   C00061126   7.301   5.142   7.367
   87SBC   C01U61127   7.374   5.033   7.417
   87SBC   H00261128   7.338   4.932   7.434
   87SBC   C01T61129   7.508   5.082   7.464
   87SBC   O00261130   7.602   5.021   7.505
   87SBC   O00161131   7.510   5.216   7.425
   87SBC   C01S61132   7.148   5.258   7.226
   87SBC   C00N61133   6.863   5.117   7.037
   87SBC   C00M61134   6.800   4.988   7.023
   87SBC   C00J61135   6.839   4.881   7.095
   87SBC   C00I61136   6.767   4.763   7.105
   87SBC   C00H61137   6.797   4.676   7.204
   87SBC   C00G61138   6.888   4.707   7.303
   87SBC   C00F61139   6.914   4.632   7.415
   87SBC   C01X61140   6.717   4.564   7.222
   87SBC   C01W61141   6.608   4.543   7.137
   87SBC   C01V61142   6.576   4.640   7.041
   87SBC   C02061143   6.469   4.627   6.957
   87SBC   C01Z61144   6.524   4.437   7.161
   87SBC   C02Y61145   6.425   4.425   7.071
   87SBC   C03961146   6.346   4.313   7.080
   87SBC   C02W61147   6.540   4.353   7.268
   87SBC   C01Y61148   6.730   4.483   7.334
   87SBC   C00U61149   6.657   4.746   7.027
   87SBC   C00S61150   6.615   4.854   6.950
   87SBC   C00T61151   6.497   4.847   6.876
   87SBC   C00R61152   6.683   4.973   6.949
   87SBC   C00Q61153   6.631   5.081   6.882
   87SBC   C00V61154   6.504   5.080   6.819
   87SBC   C02461155   6.454   5.191   6.757
   87SBC   C00X61156   6.529   5.303   6.752
   87SBC   C00P61157   6.703   5.198   6.884
   87SBC   C00O61158   6.816   5.218   6.962
   87SBC   C00K61159   6.940   4.905   7.184
   87SBC   N00061160   7.171   5.145   7.311
   87SBC   C00L61161   6.967   4.824   7.290
   87SBC   H00461162   7.297   5.000   7.939
   87SBC   C02Q61163   7.129   4.790   7.734
   87SBC   C00E61164   6.993   4.689   7.514
   87SBC   C03061165   6.937   4.424   7.759
   87SBC   O00361166   6.857   4.311   7.779
   87SBC   C02S61167   6.834   4.513   7.422
   87SBC   C03861168   6.763   4.274   7.689
   87SBC   C03L61169   6.675   4.170   7.714
   87SBC   H00861170   6.702   4.118   7.805
   87SBC   C02V61171   6.644   4.376   7.357
   87SBC   C03K61172   6.568   4.129   7.634
   87SBC   C0BK61173   6.483   4.023   7.657
   87SBC   H00T61174   6.509   3.973   7.749
   87SBC   C03H61175   6.445   4.245   7.295
   87SBC   C0BL61176   6.379   3.983   7.572
   87SBC   C0GU61177   6.302   3.870   7.599
   87SBC   H01O61178   6.336   3.812   7.683
   87SBC   C0GT61179   6.190   3.833   7.529
   87SBC   H01P61180   6.122   3.755   7.563
   87SBC   C0GS61181   6.157   3.914   7.422
   87SBC   C0GV61182   6.048   3.892   7.335
   87SBC   C0GW61183   5.944   3.791   7.337
   87SBC   H01Q61184   5.944   3.716   7.415
   87SBC   C0GX61185   5.859   3.790   7.231
   87SBC   H01R61186   5.781   3.717   7.245
   87SBC   O00L61187   5.856   3.883   7.127
   87SBC   C0GQ61188   6.056   3.981   7.226
   87SBC   C03A61189   6.349   4.219   7.191
   87SBC   C05L61190   5.956   3.979   7.119
   87SBC   C04W61191   5.618   4.238   6.703
   87SBC   C05I61192   5.492   4.237   6.643
   87SBC   C05O61193   5.416   4.122   6.627
   87SBC   C05261194   5.437   4.354   6.586
   87SBC   C04V61195   5.694   4.359   6.688
   87SBC   C04U61196   5.637   4.474   6.629
   87SBC   N00961197   5.475   4.002   6.673
   87SBC   C0GP61198   5.294   4.120   6.566
   87SBC   C05W61199   5.242   4.236   6.517
   87SBC   C07D61200   4.941   4.348   6.337
   87SBC   C06J61201   5.063   4.592   6.388
   87SBC   C05P61202   5.315   4.353   6.525
   87SBC   C05R61203   5.254   4.710   6.459
   87SBC   C04Z61204   5.505   4.472   6.583
   87SBC   C04C61205   5.463   4.820   6.505
   87SBC   C04G61206   5.677   4.938   6.517
   87SBC   C04J61207   5.944   4.935   6.585
   87SBC   C04T61208   5.718   4.583   6.613
   87SBC   N00361209   5.827   4.364   6.737
   87SBC   C04P61210   5.996   4.264   6.874
   87SBC   C03D61211   6.240   4.291   6.994
   87SBC   C02161212   6.390   4.514   6.969
   87SBC   C03F61213   6.104   4.595   6.758
   87SBC   C02261214   6.418   4.731   6.879
   87SBC   C02A61215   6.126   4.822   6.684
   87SBC   C02361216   6.442   4.959   6.812
   87SBC   C02561217   6.329   5.184   6.699
   87SBC   C02D61218   6.272   5.305   6.651
   87SBC   C02E61219   6.344   5.426   6.657
   87SBC   C02N61220   6.293   5.546   6.608
   87SBC   C04N61221   6.072   4.936   6.631
   87SBC   C02P61222   6.144   5.304   6.608
   87SBC   C04I61223   5.885   5.053   6.546
   87SBC   C04461224   5.752   5.296   6.491
   87SBC   C04361225   6.087   5.424   6.562
   87SBC   C05N61226   6.159   5.543   6.568
   87SBC   C09U61227   5.943   5.899   6.515
   87SBC   C09V61228   5.855   6.010   6.532
   87SBC   C09X61229   5.909   6.133   6.546
   87SBC   C09Y61230   5.846   6.244   6.586
   87SBC   C0A161231   5.710   6.241   6.600
   87SBC   C0A261232   5.648   6.119   6.565
   87SBC   C0A461233   5.510   6.114   6.553
   87SBC   C07161234   5.445   5.994   6.508
   87SBC   C0A561235   5.312   5.999   6.502
   87SBC   C0A961236   5.237   6.109   6.533
   87SBC   C0A861237   5.302   6.224   6.574
   87SBC   C0AP61238   5.231   6.332   6.611
   87SBC   C0BY61239   5.300   6.443   6.652
   87SBC   C0BX61240   5.432   6.459   6.657
   87SBC   C0C261241   5.484   6.584   6.690
   87SBC   C0C361242   5.626   6.588   6.690
   87SBC   C0CT61243   5.700   6.473   6.672
   87SBC   C0C161244   5.405   6.694   6.724
   87SBC   C0C061245   5.263   6.668   6.749
   87SBC   C0A761246   5.503   6.348   6.620
   87SBC   C0BZ61247   5.219   6.543   6.707
   87SBC   C0BO61248   5.081   6.532   6.716
   87SBC   C0BN61249   5.014   6.428   6.660
   87SBC   C0BM61250   4.880   6.428   6.674
   87SBC   C0B961251   4.812   6.318   6.625
   87SBC   C0B861252   4.884   6.217   6.565
   87SBC   C0AD61253   5.030   6.217   6.571
   87SBC   C0AF61254   4.818   6.109   6.514
   87SBC   C0AG61255   4.678   6.097   6.519
   87SBC   C0B761256   4.608   6.200   6.585
   87SBC   C0AE61257   4.898   6.005   6.473
   87SBC   C0AB61258   5.037   6.000   6.477
   87SBC   C0AA61259   5.110   5.887   6.450
   87SBC   C0AJ61260   4.833   5.889   6.436
   87SBC   C0AK61261   4.902   5.771   6.414
   87SBC   C06W61262   4.817   5.669   6.406
   87SBC   C0AI61263   4.695   5.867   6.450
   87SBC   C0BP61264   5.027   6.649   6.764
   87SBC   C0BQ61265   4.882   6.656   6.770
   87SBC   C0BW61266   5.091   6.329   6.615
   87SBC   C0AC61267   5.102   6.111   6.527
   87SBC   C0A661268   5.437   6.231   6.576
   87SBC   C0A361269   5.638   6.356   6.632
   87SBC   C09Z61270   5.908   6.363   6.623
   87SBC   C09W61271   5.717   6.003   6.535
   87SBC   C07261272   5.656   5.889   6.503
   87SBC   C09H61273   6.051   6.141   6.535
   87SBC   C09G61274   6.112   6.262   6.556
   87SBC   C09P61275   6.247   6.238   6.555
   87SBC   C02O61276   6.405   5.897   6.591
   87SBC   C02M61277   6.371   5.666   6.616
   87SBC   C02F61278   6.473   5.423   6.702
   87SBC   C00W61279   6.651   5.296   6.812
   87SBC   C01R61280   6.890   5.338   6.971
   87SBC   C01N61281   6.752   5.622   6.779
   87SBC   C01L61282   6.820   5.846   6.810
   87SBC   C01H61283   7.088   5.976   7.014
   87SBC   C01K61284   7.028   5.611   7.014
   87SBC   C01E61285   7.252   5.608   7.181
   87SBC   C01G61286   7.208   5.983   7.104
   87SBC   C01D61287   7.369   5.613   7.252
   87SBC   C01A61288   7.618   5.616   7.375
   87SBC   H00161289   7.717   5.627   7.417
   87SBC   C01F61290   7.457   5.973   7.246
   87SBC   C03P61291   7.589   6.207   7.333
   87SBC   C03T61292   7.403   6.332   7.270
   87SBC   C08I61293   7.244   6.570   7.235
   87SBC   C08J61294   7.159   6.677   7.220
   87SBC   C08L61295   6.957   6.774   7.117
   87SBC   C09361296   6.737   6.867   7.032
   87SBC   C08Z61297   6.707   6.622   6.886
   87SBC   C09T61298   6.294   6.852   6.844
   87SBC   C09S61299   6.466   6.581   6.700
   87SBC   C09Q61300   6.322   6.350   6.594
   87SBC   C09F61301   6.039   6.371   6.601
   87SBC   C09E61302   6.146   6.707   6.719
   87SBC   C0A061303   5.843   6.480   6.664
   87SBC   C0CU61304   5.686   6.709   6.725
   87SBC   C0CR61305   5.608   6.827   6.737
   87SBC   C0CZ61306   5.674   6.951   6.773
   87SBC   C0DA61307   6.147   6.818   6.810
   87SBC   C0D961308   6.036   7.084   7.011
   87SBC   H00V61309   6.077   7.022   7.090
   87SBC   C0CY61310   5.810   6.947   6.799
   87SBC   C0DF61311   5.935   7.192   7.029
   87SBC   C0DE61312   5.863   7.270   7.122
   87SBC   C0GI61313   5.908   7.372   7.217
   87SBC   H01K61314   6.011   7.404   7.227
   87SBC   C0GJ61315   5.807   7.424   7.287
   87SBC   H01J61316   5.841   7.488   7.368
   87SBC   O00I61317   5.676   7.399   7.278
   87SBC   C0GH61318   5.629   7.328   7.170
   87SBC   C0GG61319   5.485   7.322   7.151
   87SBC   O00G61320   5.416   7.380   7.260
   87SBC   C0G861321   5.281   7.403   7.253
   87SBC   C0G961322   5.227   7.494   7.343
   87SBC   H01G61323   5.297   7.543   7.410
   87SBC   C0GA61324   5.093   7.534   7.334
   87SBC   H01H61325   5.066   7.620   7.395
   87SBC   C0GB61326   4.999   7.474   7.242
   87SBC   C0EP61327   5.057   7.368   7.171
   87SBC   C0E861328   4.961   7.273   7.108
   87SBC   C0CK61329   4.969   7.143   7.047
   87SBC   C0CL61330   5.066   7.145   6.944
   87SBC   C0E961331   5.192   7.208   6.945
   87SBC   C0GE61332   5.267   7.278   7.054
   87SBC   C0E761333   4.840   7.321   7.074
   87SBC   C0CJ61334   4.754   7.230   7.005
   87SBC   C0E661335   4.628   7.275   6.956
   87SBC   H00Y61336   4.567   7.217   6.888
   87SBC   C0EO61337   4.581   7.393   7.010
   87SBC   H01161338   4.477   7.414   6.991
   87SBC   C0G661339   4.660   7.476   7.097
   87SBC   C0G561340   4.605   7.589   7.169
   87SBC   H01F61341   4.506   7.623   7.143
   87SBC   C0GD61342   4.683   7.660   7.256
   87SBC   H01I61343   4.640   7.748   7.302
   87SBC   O00H61344   4.813   7.622   7.289
   87SBC   C0EQ61345   4.791   7.441   7.127
   87SBC   C0GC61346   4.867   7.515   7.218
   87SBC   C0G761347   5.197   7.339   7.160
   87SBC   C0DD61348   5.725   7.263   7.089
   87SBC   C0GF61349   5.412   7.278   7.039
   87SBC   C0CO61350   5.259   7.170   6.828
   87SBC   C0D061351   5.585   7.060   6.801
   87SBC   C0C461352   5.463   6.822   6.736
   87SBC   C0CN61353   5.175   7.083   6.748
   87SBC   C0CP61354   5.144   6.733   6.783
   87SBC   C0CM61355   5.052   7.080   6.817
   87SBC   C0CI61356   4.830   7.107   7.000
   87SBC   C0CD61357   4.466   6.822   6.955
   87SBC   C0BR61358   4.816   6.765   6.833
   87SBC   C0CS61359   4.814   6.543   6.728
   87SBC   C0B661360   4.674   6.312   6.638
   87SBC   C0CG61361   4.475   6.618   6.822
   87SBC   C0CF61362   4.401   6.712   6.896
   87SBC   C0E561363   4.249   6.910   7.047
   87SBC   C0DT61364   3.981   6.893   7.057
   87SBC   C0DL61365   4.058   6.591   6.869
   87SBC   C0DM61366   3.986   6.488   6.812
   87SBC   C0DY61367   3.780   6.566   6.899
   87SBC   C0DU61368   3.849   6.870   7.077
   87SBC   C0F061369   3.640   6.972   7.138
   87SBC   C0F461370   3.381   7.006   7.067
   87SBC   C0FG61371   3.433   6.639   7.017
   87SBC   O00B61372   3.195   6.901   6.934
   87SBC   C0FN61373   3.352   6.562   6.938
   87SBC   C0DZ61374   3.640   6.554   6.920
   87SBC   O00C61375   3.579   6.260   6.715
   87SBC   C0FR61376   3.638   6.158   6.657
   87SBC   O00D61377   3.559   6.066   6.632
   87SBC   C0E061378   3.845   6.480   6.815
   87SBC   C0E361379   3.782   6.170   6.632
   87SBC   C0AW61380   3.850   6.085   6.552
   87SBC   C0AV61381   3.794   5.968   6.492
   87SBC   H00Q61382   3.703   5.918   6.521
   87SBC   C0AU61383   3.869   5.875   6.420
   87SBC   H00R61384   3.820   5.793   6.370
   87SBC   C0AT61385   4.009   5.889   6.420
   87SBC   C0AS61386   4.126   5.802   6.400
   87SBC   C0AR61387   4.108   5.663   6.395
   87SBC   C0BE61388   4.058   6.012   6.467
   87SBC   C0DN61389   4.057   6.399   6.734
   87SBC   C0AX61390   3.983   6.104   6.539
   87SBC   C0BB61391   4.264   6.305   6.649
   87SBC   C0BD61392   4.199   6.001   6.475
   87SBC   C0B261393   4.471   6.194   6.589
   87SBC   C0AH61394   4.612   5.978   6.489
   87SBC   C0BF61395   4.250   5.875   6.434
   87SBC   C0AL61396   4.689   5.728   6.424
   87SBC   C07U61397   4.359   5.588   6.401
   87SBC   C0AQ61398   4.219   5.573   6.384
   87SBC   C0BG61399   3.988   5.592   6.371
   87SBC   C0FY61400   3.946   5.238   6.414
   87SBC   C0BJ61401   3.890   5.574   6.476
   87SBC   H00S61402   3.869   5.643   6.556
   87SBC   C0FZ61403   3.850   5.213   6.512
   87SBC   C07S61404   4.063   5.162   6.430
   87SBC   C0G161405   3.919   4.892   6.636
   87SBC   C07K61406   4.260   4.747   6.600
   87SBC   C07H61407   4.294   4.997   6.469
   87SBC   C06B61408   4.527   4.799   6.291
   87SBC   C06N61409   4.712   4.934   6.327
   87SBC   C06661410   4.432   5.206   6.392
   87SBC   C06261411   4.677   5.395   6.365
   87SBC   C05Y61412   4.916   5.090   6.364
   87SBC   C06161413   4.806   5.440   6.321
   87SBC   C05H61414   5.150   5.334   6.364
   87SBC   C06V61415   4.873   5.551   6.367
   87SBC   C06Y61416   5.044   5.767   6.425
   87SBC   C05C61417   5.332   5.528   6.409
   87SBC   C06Z61418   5.248   5.882   6.465
   87SBC   C07061419   5.518   5.881   6.487
   87SBC   C05B61420   5.471   5.531   6.440
   87SBC   C05761421   5.750   5.536   6.485
   87SBC   C05961422   5.735   5.776   6.495
   88SBC   C05861423   1.305   4.585  12.326
   88SBC   C05A61424   1.331   4.712  12.265
   88SBC   C06Q61425   1.380   4.722  12.133
   88SBC   C06R61426   1.409   4.848  12.071
   88SBC   C06S61427   1.374   4.969  12.139
   88SBC   C06T61428   1.408   5.089  12.068
   88SBC   C06U61429   1.386   5.230  12.102
   88SBC   C06X61430   1.327   5.291  12.217
   88SBC   C06061431   1.318   5.435  12.201
   88SBC   C05Z61432   1.314   5.550  12.290
   88SBC   C06861433   1.365   5.660  12.199
   88SBC   C06761434   1.352   5.807  12.214
   88SBC   C06961435   1.273   5.863  12.322
   88SBC   C06A61436   1.218   5.999  12.351
   88SBC   C07361437   1.266   6.126  12.315
   88SBC   C07P61438   1.263   6.234  12.405
   88SBC   C07O61439   1.283   6.227  12.549
   88SBC   H00D61440   1.300   6.132  12.596
   88SBC   C07N61441   1.258   6.337  12.629
   88SBC   H00E61442   1.278   6.338  12.735
   88SBC   C07M61443   1.201   6.451  12.573
   88SBC   H00F61444   1.184   6.539  12.633
   88SBC   C07L61445   1.180   6.464  12.434
   88SBC   C07Q61446   1.126   6.580  12.366
   88SBC   H00G61447   1.111   6.668  12.428
   88SBC   O00F61448   1.117   6.584  12.229
   88SBC   C07J61449   1.186   6.488  12.155
   88SBC   C07I61450   1.234   6.370  12.217
   88SBC   N00461451   1.298   6.271  12.138
   88SBC   C07R61452   1.346   6.315  12.016
   88SBC   C07T61453   1.291   6.429  11.957
   88SBC   C0FX61454   1.316   6.460  11.826
   88SBC   C0FW61455   1.260   6.556  11.744
   88SBC   C0G061456   1.162   6.632  11.814
   88SBC   C0G261457   1.088   6.727  11.749
   88SBC   H01E61458   1.014   6.785  11.803
   88SBC   C0G361459   1.110   6.742  11.613
   88SBC   H01C61460   1.053   6.821  11.565
   88SBC   C0G461461   1.201   6.663  11.544
   88SBC   H01D61462   1.216   6.686  11.440
   88SBC   O00E61463   1.149   6.615  11.950
   88SBC   C0FV61464   1.281   6.565  11.607
   88SBC   C0FU61465   1.382   6.479  11.545
   88SBC   H01B61466   1.412   6.492  11.442
   88SBC   C0FT61467   1.462   6.398  11.629
   88SBC   C0FS61468   1.557   6.287  11.619
   88SBC   C0BI61469   1.594   6.248  11.749
   88SBC   C0BH61470   1.665   6.125  11.761
   88SBC   C07F61471   1.612   6.010  11.826
   88SBC   C07E61472   1.530   6.003  11.939
   88SBC   C07G61473   1.457   6.106  11.997
   88SBC   C07461474   1.385   6.050  12.099
   88SBC   C06561475   1.485   5.884  11.994
   88SBC   C06461476   1.535   5.767  11.927
   88SBC   C06361477   1.505   5.636  11.959
   88SBC   C07561478   1.573   5.557  11.850
   88SBC   C0AM61479   1.643   5.640  11.753
   88SBC   C0AN61480   1.726   5.601  11.633
   88SBC   C0AO61481   1.771   5.468  11.577
   88SBC   C0B161482   1.858   5.459  11.462
   88SBC   C0B061483   1.912   5.572  11.402
   88SBC   C0AZ61484   1.999   5.575  11.296
   88SBC   C0AY61485   2.051   5.695  11.246
   88SBC   N00761486   2.149   5.702  11.147
   88SBC   C0E261487   2.207   5.823  11.107
   88SBC   C0E161488   2.306   5.817  11.011
   88SBC   C0E461489   2.371   5.941  10.982
   88SBC   C0FF61490   2.475   5.946  10.880
   88SBC   C0FJ61491   2.570   6.048  10.850
   88SBC   C0FK61492   2.644   6.124  10.948
   88SBC   H01661493   2.617   6.145  11.050
   88SBC   C0FL61494   2.771   6.161  10.890
   88SBC   H01761495   2.851   6.219  10.933
   88SBC   C0FM61496   2.785   6.098  10.764
   88SBC   C0FH61497   2.890   6.020  10.692
   88SBC   C0FI61498   2.806   5.919  10.636
   88SBC   C0F361499   2.866   5.792  10.616
   88SBC   C0F261500   2.777   5.687  10.618
   88SBC   C0DW61501   2.650   5.686  10.677
   88SBC   C0FE61502   2.593   5.808  10.718
   88SBC   C0DV61503   2.591   5.572  10.717
   88SBC   C0DX61504   2.486   5.578  10.804
   88SBC   C0DK61505   2.429   5.457  10.845
   88SBC   C0DJ61506   2.491   5.330  10.817
   88SBC   C0DI61507   2.435   5.215  10.856
   88SBC   C0DH61508   2.331   5.216  10.946
   88SBC   C0DG61509   2.289   5.336  10.998
   88SBC   C0BV61510   2.187   5.340  11.098
   88SBC   C0BC61511   2.139   5.462  11.145
   88SBC   C0BA61512   2.123   5.222  11.135
   88SBC   C0B461513   2.028   5.221  11.232
   88SBC   C0B361514   1.985   5.340  11.289
   88SBC   C0B561515   1.967   5.102  11.277
   88SBC   C0BU61516   2.008   4.979  11.216
   88SBC   C0BT61517   2.110   4.973  11.121
   88SBC   C0BS61518   2.148   4.852  11.061
   88SBC   C0CC61519   2.256   4.853  10.969
   88SBC   C0CB61520   2.294   4.736  10.905
   88SBC   C0CH61521   2.420   4.736  10.849
   88SBC   C0DO61522   2.494   4.855  10.834
   88SBC   C0DP61523   2.621   4.856  10.769
   88SBC   C0EA61524   2.694   4.731  10.749
   88SBC   H01261525   2.656   4.635  10.779
   88SBC   O00961526   2.815   4.728  10.680
   88SBC   C0EH61527   2.877   4.849  10.660
   88SBC   C0EG61528   3.009   4.841  10.631
   88SBC   C0EJ61529   3.102   4.728  10.632
   88SBC   H01061530   3.076   4.625  10.650
   88SBC   C0EK61531   3.239   4.781  10.616
   88SBC   H00Z61532   3.336   4.735  10.620
   88SBC   C0EL61533   3.216   4.920  10.596
   88SBC   C0EM61534   3.302   5.034  10.584
   88SBC   C0EW61535   3.447   5.030  10.585
   88SBC   H01361536   3.506   4.940  10.584
   88SBC   C0EX61537   3.525   5.150  10.558
   88SBC   H01461538   3.633   5.148  10.556
   88SBC   C0F161539   3.457   5.277  10.544
   88SBC   C0EU61540   3.318   5.276  10.553
   88SBC   C0ET61541   3.233   5.392  10.551
   88SBC   C0ES61542   3.105   5.337  10.563
   88SBC   C0EE61543   3.107   5.194  10.580
   88SBC   C0ED61544   3.023   5.083  10.603
   88SBC   C0EC61545   2.881   5.090  10.637
   88SBC   C0EB61546   2.811   5.209  10.663
   88SBC   C0EN61547   2.866   5.341  10.615
   88SBC   C0ER61548   2.770   5.446  10.612
   88SBC   C0DS61549   2.683   5.214  10.724
   88SBC   C0DR61550   2.623   5.094  10.756
   88SBC   C0EY61551   2.985   5.405  10.562
   88SBC   C0EZ61552   2.979   5.546  10.564
   88SBC   C0F561553   3.067   5.662  10.571
   88SBC   C0F661554   3.210   5.644  10.563
   88SBC   N00861555   3.286   5.769  10.565
   88SBC   C0F761556   3.217   5.893  10.606
   88SBC   C0FQ61557   3.300   6.009  10.627
   88SBC   H01861558   3.264   6.105  10.660
   88SBC   C0FP61559   3.437   5.998  10.605
   88SBC   H01961560   3.500   6.085  10.617
   88SBC   C0FO61561   3.497   5.881  10.569
   88SBC   H01A61562   3.605   5.883  10.560
   88SBC   C0F861563   3.078   5.895  10.624
   88SBC   C0F961564   3.430   5.762  10.550
   88SBC   C0FA61565   3.506   5.647  10.540
   88SBC   H01561566   3.613   5.649  10.530
   88SBC   C0FB61567   3.428   5.522  10.551
   88SBC   C0FD61568   3.288   5.524  10.550
   88SBC   C0FC61569   3.513   5.402  10.540
   88SBC   O00A61570   3.641   5.408  10.542
   88SBC   C0EV61571   3.245   5.159  10.569
   88SBC   C0EF61572   3.081   4.949  10.604
   88SBC   C0EI61573   2.812   4.974  10.675
   88SBC   C0DQ61574   2.686   4.970  10.735
   88SBC   C0CE61575   2.436   4.976  10.864
   88SBC   H00U61576   2.456   4.645  10.804
   88SBC   C0CA61577   2.210   4.619  10.908
   88SBC   C0C961578   2.109   4.611  11.010
   88SBC   C0C861579   2.033   4.483  11.015
   88SBC   C0C761580   1.951   4.426  11.123
   88SBC   C0C661581   1.911   4.288  11.094
   88SBC   C0C561582   1.885   4.165  11.173
   88SBC   C0CQ61583   1.910   4.035  11.116
   88SBC   C0D161584   1.986   4.031  10.997
   88SBC   C0D861585   2.084   3.938  11.022
   88SBC   C0D761586   2.038   3.844  11.120
   88SBC   C0D661587   2.129   3.761  11.193
   88SBC   C0D561588   2.101   3.694  11.315
   88SBC   C0D461589   1.980   3.692  11.387
   88SBC   C0D361590   2.010   3.626  11.510
   88SBC   C0CX61591   1.923   3.684  11.618
   88SBC   C0CW61592   1.861   3.807  11.557
   88SBC   C0CV61593   1.770   3.912  11.593
   88SBC   C0D261594   1.677   3.896  11.696
   88SBC   C09D61595   1.651   3.776  11.772
   88SBC   C09C61596   1.555   3.777  11.878
   88SBC   C09B61597   1.525   3.666  11.960
   88SBC   C09A61598   1.593   3.544  11.928
   88SBC   C09961599   1.674   3.538  11.822
   88SBC   C09861600   1.759   3.425  11.840
   88SBC   C08Y61601   1.727   3.359  11.963
   88SBC   C08X61602   1.793   3.249  12.028
   88SBC   C08W61603   1.913   3.198  11.973
   88SBC   C08U61604   1.993   3.244  11.856
   88SBC   C08V61605   1.992   3.361  11.770
   88SBC   C0DC61606   2.078   3.327  11.658
   88SBC   H00W61607   2.077   3.388  11.569
   88SBC   C0DB61608   2.153   3.211  11.696
   88SBC   H00X61609   2.222   3.158  11.632
   88SBC   C08T61610   2.103   3.160  11.818
   88SBC   C08S61611   2.140   3.049  11.884
   88SBC   H00N61612   2.231   2.996  11.862
   88SBC   C08R61613   2.082   3.009  11.999
   88SBC   C08Q61614   2.124   2.894  12.072
   88SBC   H00O61615   2.201   2.835  12.025
   88SBC   C08P61616   2.069   2.852  12.192
   88SBC   C08O61617   2.107   2.736  12.256
   88SBC   H00P61618   2.179   2.668  12.213
   88SBC   C08N61619   2.055   2.710  12.388
   88SBC   C08M61620   2.102   2.592  12.459
   88SBC   O00861621   2.178   2.507  12.411
   88SBC   O00761622   2.058   2.572  12.586
   88SBC   C08H61623   1.974   2.659  12.646
   88SBC   C08G61624   1.933   2.650  12.788
   88SBC   C03V61625   1.977   2.556  12.882
   88SBC   H00961626   2.042   2.478  12.846
   88SBC   C03U61627   1.931   2.552  13.013
   88SBC   C03W61628   1.955   2.444  13.109
   88SBC   H00A61629   2.005   2.356  13.072
   88SBC   C03X61630   1.901   2.444  13.229
   88SBC   H00B61631   1.908   2.361  13.298
   88SBC   O00561632   1.835   2.553  13.278
   88SBC   C03O61633   1.808   2.658  13.188
   88SBC   C03N61634   1.736   2.770  13.233
   88SBC   O00061635   1.716   2.776  13.367
   88SBC   C01961636   1.662   2.887  13.417
   88SBC   C01861637   1.608   2.992  13.339
   88SBC   C01761638   1.614   2.980  13.203
   88SBC   C01661639   1.573   3.086  13.120
   88SBC   C01561640   1.508   3.188  13.183
   88SBC   C01461641   1.456   3.289  13.102
   88SBC   C01361642   1.463   3.287  12.961
   88SBC   C01261643   1.388   3.407  12.927
   88SBC   C01161644   1.333   3.454  13.049
   88SBC   C01061645   1.245   3.562  13.048
   88SBC   C00Z61646   1.200   3.635  13.155
   88SBC   C00Y61647   1.148   3.754  13.095
   88SBC   C01O61648   1.164   3.750  12.957
   88SBC   C01P61649   1.178   3.867  12.876
   88SBC   C02L61650   1.228   3.849  12.750
   88SBC   C02K61651   1.275   3.720  12.720
   88SBC   C01M61652   1.292   3.601  12.812
   88SBC   C02J61653   1.316   3.713  12.579
   88SBC   C02I61654   1.351   3.599  12.511
   88SBC   C02H61655   1.392   3.475  12.556
   88SBC   C01Q61656   1.410   3.418  12.682
   88SBC   C02G61657   1.483   3.296  12.675
   88SBC   C08961658   1.489   3.263  12.534
   88SBC   C08861659   1.604   3.187  12.514
   88SBC   C08761660   1.624   3.138  12.648
   88SBC   C08661661   1.721   3.039  12.674
   88SBC   C03S61662   1.735   2.964  12.797
   88SBC   N00661663   1.803   2.848  12.763
   88SBC   C08F61664   1.846   2.859  12.638
   88SBC   C01J61665   1.686   2.974  12.929
   88SBC   C03R61666   1.724   2.868  13.016
   88SBC   C03Q61667   1.803   2.759  12.972
   88SBC   C08E61668   1.802   2.973  12.581
   88SBC   C08D61669   1.835   3.003  12.445
   88SBC   C08K61670   1.927   2.915  12.383
   88SBC   C08C61671   1.788   3.105  12.365
   88SBC   C09161672   1.821   3.117  12.231
   88SBC   C09261673   1.925   3.047  12.171
   88SBC   C08B61674   1.675   3.187  12.388
   88SBC   C09061675   1.655   3.258  12.262
   88SBC   C09461676   1.542   3.347  12.232
   88SBC   C09561677   1.534   3.435  12.125
   88SBC   C09R61678   1.460   3.553  12.157
   88SBC   C09761679   1.420   3.539  12.286
   88SBC   C09661680   1.464   3.414  12.334
   88SBC   C01I61681   1.549   3.201  12.750
   88SBC   C08A61682   1.448   3.381  12.468
   88SBC   C09L61683   1.374   3.638  12.377
   88SBC   C09K61684   1.338   3.776  12.362
   88SBC   C09J61685   1.354   3.847  12.243
   88SBC   C09I61686   1.356   3.987  12.236
   88SBC   C09O61687   1.325   4.100  12.322
   88SBC   C09N61688   1.280   4.088  12.456
   88SBC   C09M61689   1.271   3.966  12.537
   88SBC   C06O61690   1.249   4.213  12.520
   88SBC   C05M61691   1.264   4.334  12.452
   88SBC   C06P61692   1.310   4.341  12.321
   88SBC   C04261693   1.247   4.455  12.521
   88SBC   C04161694   1.202   4.456  12.654
   88SBC   C04061695   1.183   4.582  12.725
   88SBC   C03Z61696   1.154   4.581  12.858
   88SBC   C03Y61697   1.147   4.464  12.930
   88SBC   C02761698   1.129   4.469  13.070
   88SBC   C02661699   1.134   4.349  13.141
   88SBC   C02861700   1.138   4.354  13.279
   88SBC   C02961701   1.136   4.477  13.348
   88SBC   C02B61702   1.153   4.477  13.488
   88SBC   C02C61703   1.152   4.600  13.551
   88SBC   C02X61704   1.176   4.601  13.685
   88SBC   C03E61705   1.184   4.724  13.746
   88SBC   C03G61706   1.184   4.841  13.687
   88SBC   C04Q61707   1.162   4.840  13.552
   88SBC   C04R61708   1.155   4.958  13.482
   88SBC   C04S61709   1.155   4.953  13.342
   88SBC   C04L61710   1.140   4.836  13.272
   88SBC   C04M61711   1.137   4.718  13.344
   88SBC   C04K61712   1.142   4.830  13.135
   88SBC   C04F61713   1.163   4.946  13.067
   88SBC   C04E61714   1.170   5.065  13.130
   88SBC   C04D61715   1.179   5.186  13.062
   88SBC   C05061716   1.187   5.307  13.129
   88SBC   C05161717   1.179   5.426  13.062
   88SBC   C05Q61718   1.179   5.546  13.127
   88SBC   C05V61719   1.158   5.657  13.050
   88SBC   N00561720   1.133   5.776  13.124
   88SBC   C07V61721   1.150   5.786  13.260
   88SBC   C08261722   1.132   5.912  13.321
   88SBC   C08161723   1.094   6.031  13.249
   88SBC   C07C61724   1.075   6.018  13.110
   88SBC   C07B61725   1.025   6.132  13.038
   88SBC   C08061726   0.987   6.246  13.100
   88SBC   C07Z61727   0.935   6.343  13.018
   88SBC   H00L61728   0.915   6.436  13.070
   88SBC   C07961729   0.895   6.328  12.884
   88SBC   C07861730   0.937   6.209  12.824
   88SBC   C07761731   0.925   6.192  12.688
   88SBC   C07X61732   0.848   6.288  12.614
   88SBC   H00I61733   0.819   6.281  12.510
   88SBC   C07Y61734   0.791   6.405  12.679
   88SBC   H00H61735   0.727   6.473  12.624
   88SBC   C07661736   0.989   6.092  12.623
   88SBC   C06C61737   1.021   6.102  12.479
   88SBC   H00C61738   1.004   6.196  12.430
   88SBC   C06F61739   1.034   5.985  12.700
   88SBC   C06E61740   1.088   5.871  12.634
   88SBC   C06G61741   1.130   5.762  12.702
   88SBC   C06H61742   1.118   5.765  12.841
   88SBC   C06I61743   1.083   5.879  12.914
   88SBC   C06L61744   1.184   5.656  12.630
   88SBC   C06M61745   1.232   5.663  12.495
   88SBC   C06K61746   1.196   5.542  12.705
   88SBC   C05S61747   1.185   5.543  12.848
   88SBC   C05U61748   1.216   5.425  12.636
   88SBC   C05X61749   1.246   5.421  12.496
   88SBC   C05G61750   1.244   5.285  12.450
   88SBC   C05F61751   1.215   5.177  12.532
   88SBC   C05E61752   1.224   5.062  12.459
   88SBC   C04861753   1.211   4.939  12.525
   88SBC   C05661754   1.260   4.824  12.463
   88SBC   C04561755   1.240   4.704  12.526
   88SBC   C04761756   1.193   4.943  12.657
   88SBC   C04961757   1.187   5.061  12.728
   88SBC   C04B61758   1.177   5.062  12.862
   88SBC   C04661759   1.185   4.823  12.725
   88SBC   C04H61760   1.164   4.826  12.859
   88SBC   C05D61761   1.283   5.082  12.337
   88SBC   C04A61762   1.193   5.184  12.661
   88SBC   C05T61763   1.192   5.310  12.717
   88SBC   C05561764   1.179   5.304  12.856
   88SBC   C06D61765   1.133   5.883  12.505
   88SBC   C07W61766   1.045   5.992  12.843
   88SBC   C08561767   0.817   6.421  12.812
   88SBC   H00M61768   0.782   6.513  12.855
   88SBC   C08461769   1.015   6.259  13.236
   88SBC   H00J61770   1.007   6.352  13.291
   88SBC   C07A61771   1.004   6.114  12.902
   88SBC   C08361772   1.076   6.158  13.308
   88SBC   H00K61773   1.094   6.177  13.413
   88SBC   O00K61774   1.161   5.917  13.460
   88SBC   C0GO61775   1.204   5.800  13.521
   88SBC   C0GN61776   1.249   5.806  13.650
   88SBC   H01L61777   1.265   5.899  13.702
   88SBC   C0GM61778   1.269   5.688  13.731
   88SBC   C0GL61779   1.320   5.698  13.859
   88SBC   H01M61780   1.334   5.799  13.895
   88SBC   O00J61781   1.325   5.582  13.938
   88SBC   C0GK61782   1.301   5.463  13.872
   88SBC   H01N61783   1.332   5.378  13.931
   88SBC   C05K61784   1.262   5.452  13.741
   88SBC   C05J61785   1.230   5.322  13.685
   88SBC   C04Y61786   1.223   5.197  13.754
   88SBC   C04X61787   1.201   5.078  13.694
   88SBC   O00661788   1.238   5.194  13.895
   88SBC   C05361789   1.267   5.078  13.966
   88SBC   C04O61790   1.246   4.954  13.898
   88SBC   C03C61791   1.275   4.823  13.949
   88SBC   C03B61792   1.339   4.762  14.064
   88SBC   C05461793   1.349   4.834  14.185
   88SBC   C0GR61794   1.391   4.774  14.303
   88SBC   C03M61795   1.436   4.640  14.344
   88SBC   C03I61796   1.440   4.519  14.263
   88SBC   C03J61797   1.493   4.400  14.317
   88SBC   N00261798   1.478   4.273  14.248
   88SBC   C02U61799   1.527   4.150  14.305
   88SBC   C02T61800   1.514   4.028  14.239
   88SBC   C02Z61801   1.557   3.908  14.300
   88SBC   N00161802   1.550   3.783  14.230
   88SBC   C02R61803   1.590   3.661  14.294
   88SBC   C03261804   1.641   3.665  14.423
   88SBC   C03161805   1.646   3.788  14.487
   88SBC   H00761806   1.677   3.787  14.591
   88SBC   C03361807   1.687   3.539  14.475
   88SBC   H00361808   1.725   3.523  14.575
   88SBC   O00461809   1.670   3.418  14.411
   88SBC   C03461810   1.609   3.421  14.290
   88SBC   C03561811   1.592   3.301  14.228
   88SBC   C03661812   1.519   3.295  14.112
   88SBC   H00561813   1.490   3.205  14.061
   88SBC   C03761814   1.470   3.410  14.045
   88SBC   H00661815   1.410   3.395  13.956
   88SBC   C00D61816   1.509   3.537  14.096
   88SBC   C00C61817   1.478   3.655  14.029
   88SBC   C00B61818   1.408   3.659  13.899
   88SBC   C00A61819   1.371   3.579  13.783
   88SBC   C00961820   1.281   3.655  13.702
   88SBC   C00861821   1.258   3.643  13.562
   88SBC   C00761822   1.306   3.524  13.504
   88SBC   C00661823   1.285   3.512  13.364
   88SBC   C00561824   1.349   3.399  13.305
   88SBC   C00461825   1.422   3.306  13.383
   88SBC   C00361826   1.438   3.321  13.521
   88SBC   C00261827   1.518   3.234  13.597
   88SBC   C01C61828   1.564   3.120  13.535
   88SBC   C01B61829   1.614   3.010  13.615
   88SBC   H00061830   1.631   3.024  13.721
   88SBC   C00161831   1.574   3.267  13.719
   88SBC   C00061832   1.540   3.398  13.760
   88SBC   C01U61833   1.658   3.453  13.814
   88SBC   H00261834   1.676   3.553  13.850
   88SBC   C01T61835   1.755   3.337  13.820
   88SBC   O00261836   1.862   3.327  13.883
   88SBC   O00161837   1.697   3.236  13.752
   88SBC   C01S61838   1.381   3.429  13.578
   88SBC   C00N61839   1.220   3.758  13.494
   88SBC   C00M61840   1.209   3.879  13.561
   88SBC   C00J61841   1.236   3.894  13.695
   88SBC   C00I61842   1.254   4.011  13.762
   88SBC   C00H61843   1.309   4.013  13.886
   88SBC   C00G61844   1.356   3.900  13.949
   88SBC   C00F61845   1.421   3.897  14.065
   88SBC   C01X61846   1.329   4.130  13.943
   88SBC   C01W61847   1.284   4.246  13.882
   88SBC   C01V61848   1.234   4.244  13.753
   88SBC   C02061849   1.198   4.360  13.687
   88SBC   C01Z61850   1.300   4.369  13.951
   88SBC   C02Y61851   1.250   4.477  13.884
   88SBC   C03961852   1.274   4.600  13.939
   88SBC   C02W61853   1.369   4.379  14.069
   88SBC   C01Y61854   1.393   4.135  14.068
   88SBC   C00U61855   1.221   4.125  13.689
   88SBC   C00S61856   1.186   4.119  13.556
   88SBC   C00T61857   1.168   4.236  13.488
   88SBC   C00R61858   1.185   3.995  13.491
   88SBC   C00Q61859   1.163   3.989  13.356
   88SBC   C00V61860   1.144   4.109  13.282
   88SBC   C02461861   1.144   4.111  13.143
   88SBC   C00X61862   1.148   3.990  13.078
   88SBC   C00P61863   1.165   3.867  13.292
   88SBC   C00O61864   1.203   3.750  13.362
   88SBC   C00K61865   1.263   3.777  13.766
   88SBC   N00061866   1.423   3.467  13.713
   88SBC   C00L61867   1.344   3.780  13.877
   88SBC   H00461868   1.625   3.208  14.270
   88SBC   C02Q61869   1.568   3.540  14.223
   88SBC   C00E61870   1.483   3.776  14.106
   88SBC   C03061871   1.614   3.912  14.426
   88SBC   O00361872   1.624   4.030  14.495
   88SBC   C02S61873   1.441   4.020  14.124
   88SBC   C03861874   1.590   4.143  14.429
   88SBC   C03L61875   1.604   4.263  14.494
   88SBC   H00861876   1.642   4.254  14.595
   88SBC   C02V61877   1.409   4.261  14.127
   88SBC   C03K61878   1.550   4.391  14.443
   88SBC   C0BK61879   1.548   4.516  14.514
   88SBC   H00T61880   1.587   4.512  14.614
   88SBC   C03H61881   1.384   4.501  14.134
   88SBC   C0BL61882   1.487   4.637  14.475
   88SBC   C0GU61883   1.474   4.743  14.564
   88SBC   H01O61884   1.499   4.735  14.669
   88SBC   C0GT61885   1.418   4.865  14.528
   88SBC   H01P61886   1.404   4.939  14.606
   88SBC   C0GS61887   1.386   4.880  14.398
   88SBC   C0GV61888   1.366   5.005  14.329
   88SBC   C0GW61889   1.382   5.140  14.375
   88SBC   H01Q61890   1.403   5.172  14.476
   88SBC   C0GX61891   1.367   5.234  14.283
   88SBC   H01R61892   1.379   5.338  14.311
   88SBC   O00L61893   1.336   5.212  14.147
   88SBC   C0GQ61894   1.337   4.976  14.199
   88SBC   C03A61895   1.338   4.620  14.059
   88SBC   C05L61896   1.308   5.085  14.106
   88SBC   C04W61897   1.202   5.316  13.548
   88SBC   C05I61898   1.201   5.432  13.475
   88SBC   C05O61899   1.211   5.560  13.529
   88SBC   C05261900   1.189   5.428  13.336
   88SBC   C04V61901   1.180   5.198  13.479
   88SBC   C04U61902   1.168   5.192  13.338
   88SBC   N00961903   1.242   5.568  13.667
   88SBC   C0GP61904   1.197   5.676  13.458
   88SBC   C05W61905   1.169   5.669  13.325
   88SBC   C07D61906   1.099   5.894  13.048
   88SBC   C06J61907   1.152   5.656  12.916
   88SBC   C05P61908   1.182   5.547  13.260
   88SBC   C05R61909   1.189   5.423  12.921
   88SBC   C04Z61910   1.186   5.308  13.268
   88SBC   C04C61911   1.181   5.183  12.928
   88SBC   C04G61912   1.170   4.944  12.934
   88SBC   C04J61913   1.134   4.710  13.064
   88SBC   C04T61914   1.163   5.070  13.270
   88SBC   N00361915   1.178   5.079  13.552
   88SBC   C04P61916   1.207   4.956  13.762
   88SBC   C03D61917   1.232   4.717  13.875
   88SBC   C02161918   1.198   4.479  13.757
   88SBC   C03F61919   1.150   4.719  13.483
   88SBC   C02261920   1.170   4.360  13.552
   88SBC   C02A61921   1.135   4.596  13.275
   88SBC   C02361922   1.146   4.233  13.353
   88SBC   C02561923   1.137   4.229  13.070
   88SBC   C02D61924   1.157   4.224  12.930
   88SBC   C02E61925   1.166   4.100  12.862
   88SBC   C02N61926   1.198   4.096  12.727
   88SBC   C04N61927   1.127   4.591  13.135
   88SBC   C02P61928   1.164   4.342  12.860
   88SBC   C04I61929   1.148   4.707  12.923
   88SBC   C04461930   1.202   4.706  12.659
   88SBC   C04361931   1.194   4.334  12.722
   88SBC   C05N61932   1.215   4.214  12.654
   88SBC   C09U61933   1.337   4.225  12.251
   88SBC   C09V61934   1.385   4.240  12.114
   88SBC   C09X61935   1.422   4.129  12.040
   88SBC   C09Y61936   1.478   4.133  11.911
   88SBC   C0A161937   1.513   4.253  11.857
   88SBC   C0A261938   1.470   4.368  11.927
   88SBC   C0A461939   1.488   4.490  11.865
   88SBC   C07161940   1.459   4.606  11.934
   88SBC   C0A561941   1.499   4.729  11.878
   88SBC   C0A961942   1.567   4.734  11.758
   88SBC   C0A861943   1.590   4.616  11.690
   88SBC   C0AP61944   1.670   4.624  11.579
   88SBC   C0BY61945   1.697   4.508  11.513
   88SBC   C0BX61946   1.676   4.384  11.561
   88SBC   C0C261947   1.730   4.269  11.499
   88SBC   C0C361948   1.709   4.147  11.563
   88SBC   C0CT61949   1.636   4.140  11.678
   88SBC   C0C161950   1.804   4.276  11.382
   88SBC   C0C061951   1.856   4.409  11.351
   88SBC   C0A761952   1.601   4.379  11.676
   88SBC   C0BZ61953   1.792   4.516  11.413
   88SBC   C0BO61954   1.840   4.634  11.366
   88SBC   C0BN61955   1.803   4.753  11.421
   88SBC   C0BM61956   1.866   4.864  11.372
   88SBC   C0B961957   1.831   4.983  11.430
   88SBC   C0B861958   1.738   4.984  11.537
   88SBC   C0AD61959   1.690   4.863  11.589
   88SBC   C0AF61960   1.704   5.104  11.596
   88SBC   C0AG61961   1.764   5.227  11.560
   88SBC   C0B761962   1.840   5.224  11.441
   88SBC   C0AE61963   1.634   5.093  11.713
   88SBC   C0AB61964   1.587   4.973  11.766
   88SBC   C0AA61965   1.514   4.969  11.889
   88SBC   C0AJ61966   1.612   5.208  11.784
   88SBC   C0AK61967   1.535   5.203  11.896
   88SBC   C06W61968   1.520   5.333  11.932
   88SBC   C0AI61969   1.657   5.336  11.748
   88SBC   C0BP61970   1.931   4.621  11.263
   88SBC   C0BQ61971   1.984   4.740  11.201
   88SBC   C0BW61972   1.717   4.747  11.526
   88SBC   C0AC61973   1.616   4.857  11.709
   88SBC   C0A661974   1.552   4.494  11.742
   88SBC   C0A361975   1.581   4.258  11.735
   88SBC   C09Z61976   1.529   4.014  11.850
   88SBC   C09W61977   1.408   4.364  12.053
   88SBC   C07261978   1.374   4.481  12.126
   88SBC   C09H61979   1.401   4.010  12.101
   88SBC   C09G61980   1.428   3.897  12.035
   88SBC   C09P61981   1.399   3.794  12.119
   88SBC   C02O61982   1.311   3.833  12.493
   88SBC   C02M61983   1.231   3.968  12.668
   88SBC   C02F61984   1.158   3.985  12.937
   88SBC   C00W61985   1.137   3.877  13.160
   88SBC   C01R61986   1.228   3.627  13.299
   88SBC   C01N61987   1.229   3.632  12.931
   88SBC   C01L61988   1.366   3.476  12.801
   88SBC   C01H61989   1.541   3.190  12.895
   88SBC   C01K61990   1.376   3.385  13.159
   88SBC   C01E61991   1.498   3.201  13.322
   88SBC   C01G61992   1.599   3.082  12.980
   88SBC   C01D61993   1.563   3.108  13.399
   88SBC   C01A61994   1.664   2.891  13.558
   88SBC   H00161995   1.710   2.813  13.617
   88SBC   C01F61996   1.690   2.873  13.147
   88SBC   C03P61997   1.849   2.656  13.057
   88SBC   C03T61998   1.844   2.743  12.841
   88SBC   C08I61999   1.931   2.773  12.579
   88SBC   C08J62000   1.973   2.797  12.449
   88SBC   C08L62001   1.976   2.939  12.250
   88SBC   C09362002   1.968   3.083  12.041
   88SBC   C08Z62003   1.752   3.212  12.159
   88SBC   C09T62004   1.880   3.455  11.764
   88SBC   C09S62005   1.610   3.433  12.009
   88SBC   C09Q62006   1.453   3.672  12.082
   88SBC   C09F62007   1.500   3.894  11.912
   88SBC   C09E62008   1.725   3.646  11.761
   88SBC   C0A062009   1.609   4.016  11.739
   88SBC   C0CU62010   1.767   4.029  11.511
   88SBC   C0CR62011   1.834   4.036  11.386
   88SBC   C0CZ62012   1.897   3.919  11.333
   88SBC   C0DA62013   1.856   3.596  11.710
   88SBC   C0D962014   2.155   3.604  11.513
   88SBC   H00V62015   2.216   3.567  11.594
   88SBC   C0CY62016   1.909   3.808  11.418
   88SBC   C0DF62017   2.204   3.631  11.379
   88SBC   C0DE62018   2.305   3.642  11.279
   88SBC   C0GI62019   2.439   3.588  11.274
   88SBC   H01K62020   2.467   3.525  11.357
   88SBC   C0GJ62021   2.506   3.612  11.162
   88SBC   H01J62022   2.607   3.574  11.156
   88SBC   O00I62023   2.469   3.693  11.054
   88SBC   C0GH62024   2.348   3.765  11.065
   88SBC   C0GG62025   2.336   3.868  10.971
   88SBC   O00G62026   2.432   3.872  10.871
   88SBC   C0G862027   2.429   3.967  10.783
   88SBC   C0G962028   2.514   3.947  10.671
   88SBC   H01G62029   2.562   3.851  10.673
   88SBC   C0GA62030   2.503   4.035  10.561
   88SBC   H01H62031   2.558   4.011  10.471
   88SBC   C0GB62032   2.428   4.156  10.570
   88SBC   C0EP62033   2.362   4.177  10.687
   88SBC   C0E862034   2.332   4.314  10.727
   88SBC   C0CK62035   2.276   4.375  10.844
   88SBC   C0CL62036   2.154   4.313  10.882
   88SBC   C0E962037   2.141   4.174  10.888
   88SBC   C0GE62038   2.235   4.065  10.877
   88SBC   C0E762039   2.335   4.410  10.632
   88SBC   C0CJ62040   2.292   4.534  10.675
   88SBC   C0E662041   2.271   4.640  10.588
   88SBC   H00Y62042   2.227   4.732  10.623
   88SBC   C0EO62043   2.305   4.614  10.456
   88SBC   H01162044   2.292   4.685  10.376
   88SBC   C0G662045   2.355   4.487  10.409
   88SBC   C0G562046   2.403   4.450  10.276
   88SBC   H01F62047   2.395   4.524  10.198
   88SBC   C0GD62048   2.468   4.330  10.253
   88SBC   H01I62049   2.503   4.314  10.152
   88SBC   O00H62050   2.488   4.235  10.349
   88SBC   C0EQ62051   2.369   4.383  10.500
   88SBC   C0GC62052   2.428   4.258  10.467
   88SBC   C0G762053   2.345   4.079  10.791
   88SBC   C0DD62054   2.264   3.726  11.168
   88SBC   C0GF62055   2.214   3.945  10.956
   88SBC   C0CO62056   2.015   4.151  10.935
   88SBC   C0D062057   1.943   3.924  11.196
   88SBC   C0C462058   1.842   4.159  11.311
   88SBC   C0CN62059   1.942   4.273  10.956
   88SBC   C0CP62060   1.935   4.478  11.248
   88SBC   C0CM62061   2.030   4.380  10.919
   88SBC   C0CI62062   2.267   4.520  10.822
   88SBC   C0CD62063   2.323   4.979  10.944
   88SBC   C0BR62064   2.075   4.732  11.090
   88SBC   C0CS62065   1.954   4.859  11.262
   88SBC   C0B662066   1.875   5.104  11.379
   88SBC   C0CG62067   2.167   5.100  11.084
   88SBC   C0CF62068   2.275   5.098  10.991
   88SBC   C0E562069   2.491   5.095  10.820
   88SBC   C0DT62070   2.610   5.328  10.742
   88SBC   C0DL62071   2.334   5.456  10.946
   88SBC   C0DM62072   2.289   5.580  10.997
   88SBC   C0DY62073   2.446   5.702  10.862
   88SBC   C0DU62074   2.651   5.449  10.689
   88SBC   C0F062075   2.843   5.565  10.586
   88SBC   C0F462076   3.006   5.778  10.601
   88SBC   C0FG62077   2.669   5.922  10.685
   88SBC   O00B62078   3.025   6.015  10.676
   88SBC   C0FN62079   2.653   6.048  10.738
   88SBC   C0DZ62080   2.497   5.824  10.814
   88SBC   O00C62081   2.318   6.058  11.025
   88SBC   C0FR62082   2.224   6.065  11.115
   88SBC   O00D62083   2.190   6.183  11.133
   88SBC   C0E062084   2.345   5.698  10.956
   88SBC   C0E362085   2.168   5.946  11.163
   88SBC   C0AW62086   2.066   5.942  11.265
   88SBC   C0AV62087   2.010   6.058  11.335
   88SBC   H00Q62088   2.037   6.159  11.311
   88SBC   C0AU62089   1.917   6.042  11.440
   88SBC   H00R62090   1.893   6.136  11.487
   88SBC   C0AT62091   1.863   5.917  11.460
   88SBC   C0AS62092   1.763   5.859  11.548
   88SBC   C0AR62093   1.673   5.941  11.618
   88SBC   C0BE62094   1.921   5.806  11.399
   88SBC   C0DN62095   2.188   5.578  11.093
   88SBC   C0AX62096   2.021   5.817  11.302
   88SBC   C0BB62097   2.040   5.461  11.243
   88SBC   C0BD62098   1.868   5.693  11.449
   88SBC   C0B262099   1.892   5.340  11.394
   88SBC   C0AH62100   1.735   5.343  11.628
   88SBC   C0BF62101   1.780   5.712  11.557
   88SBC   C0AL62102   1.590   5.415  11.843
   88SBC   C07U62103   1.609   5.774  11.803
   88SBC   C0AQ62104   1.637   5.898  11.746
   88SBC   C0BG62105   1.672   6.086  11.621
   88SBC   C0FY62106   1.502   6.298  11.840
   88SBC   C0BJ62107   1.605   6.181  11.535
   88SBC   H00S62108   1.580   6.161  11.431
   88SBC   C0FZ62109   1.425   6.392  11.770
   88SBC   C07S62110   1.443   6.238  11.954
   88SBC   C0G162111   1.196   6.504  12.019
   88SBC   C07K62112   1.225   6.358  12.350
   88SBC   C07H62113   1.320   6.142  12.186
   88SBC   C06B62114   1.107   5.999  12.436
   88SBC   C06N62115   1.222   5.796  12.440
   88SBC   C06662116   1.406   5.904  12.112
   88SBC   C06262117   1.425   5.595  12.081
   88SBC   C05Y62118   1.268   5.542  12.426
   88SBC   C06162119   1.371   5.467  12.077
   88SBC   C05H62120   1.282   5.221  12.329
   88SBC   C06V62121   1.426   5.347  12.029
   88SBC   C06Y62122   1.482   5.086  11.953
   88SBC   C05C62123   1.320   4.959  12.267
   88SBC   C06Z62124   1.472   4.846  11.945
   88SBC   C07062125   1.405   4.601  12.065
   88SBC   C05B62126   1.305   4.832  12.335
   88SBC   C05762127   1.269   4.583  12.460
   88SBC   C05962128   1.324   4.468  12.258
   89SBC   C05862129   9.207   6.646  15.468
   89SBC   C05A62130   9.159   6.714  15.354
   89SBC   C06Q62131   9.237   6.803  15.285
   89SBC   C06R62132   9.195   6.857  15.162
   89SBC   C06S62133   9.070   6.829  15.108
   89SBC   C06T62134   9.043   6.882  14.978
   89SBC   C06U62135   8.933   6.849  14.887
   89SBC   C06X62136   8.816   6.773  14.899
   89SBC   C06062137   8.747   6.758  14.772
   89SBC   C05Z62138   8.605   6.769  14.751
   89SBC   C06862139   8.591   6.871  14.646
   89SBC   C06762140   8.465   6.925  14.588
   89SBC   C06962141   8.335   6.870  14.615
   89SBC   C06A62142   8.198   6.915  14.593
   89SBC   C07362143   8.147   7.044  14.569
   89SBC   C07P62144   8.043   7.092  14.646
   89SBC   C07O62145   7.981   7.031  14.757
   89SBC   H00D62146   8.006   6.931  14.787
   89SBC   C07N62147   7.878   7.085  14.826
   89SBC   H00E62148   7.838   7.030  14.910
   89SBC   C07M62149   7.842   7.212  14.788
   89SBC   H00F62150   7.773   7.262  14.854
   89SBC   C07L62151   7.893   7.282  14.679
   89SBC   C07Q62152   7.848   7.412  14.639
   89SBC   H00G62153   7.773   7.466  14.695
   89SBC   O00F62154   7.896   7.477  14.530
   89SBC   C07J62155   7.989   7.415  14.456
   89SBC   C07I62156   8.041   7.288  14.493
   89SBC   N00462157   8.149   7.235  14.422
   89SBC   C07R62158   8.191   7.296  14.297
   89SBC   C07T62159   8.132   7.423  14.268
   89SBC   C0FX62160   8.178   7.506  14.168
   89SBC   C0FW62161   8.141   7.641  14.144
   89SBC   C0G062162   8.036   7.689  14.227
   89SBC   C0G262163   8.000   7.825  14.210
   89SBC   H01E62164   7.923   7.865  14.275
   89SBC   C0G362165   8.073   7.912  14.130
   89SBC   H01C62166   8.051   8.017  14.125
   89SBC   C0G462167   8.185   7.864  14.061
   89SBC   H01D62168   8.244   7.929  13.999
   89SBC   O00E62169   7.980   7.609  14.322
   89SBC   C0FV62170   8.216   7.727  14.056
   89SBC   C0FU62171   8.334   7.674  13.992
   89SBC   H01B62172   8.405   7.737  13.940
   89SBC   C0FT62173   8.369   7.534  14.013
   89SBC   C0FS62174   8.482   7.445  13.992
   89SBC   C0BI62175   8.444   7.306  14.025
   89SBC   C0BH62176   8.564   7.237  14.056
   89SBC   C07F62177   8.596   7.174  14.177
   89SBC   C07E62178   8.516   7.124  14.279
   89SBC   C07G62179   8.380   7.149  14.292
   89SBC   C07462180   8.345   7.098  14.421
   89SBC   C06562181   8.564   7.067  14.395
   89SBC   C06462182   8.705   7.077  14.415
   89SBC   C06362183   8.777   7.028  14.524
   89SBC   C07562184   8.915   7.083  14.500
   89SBC   C0AM62185   8.927   7.167  14.384
   89SBC   C0AN62186   9.042   7.240  14.336
   89SBC   C0AO62187   9.180   7.268  14.396
   89SBC   C0B162188   9.282   7.364  14.340
   89SBC   C0B062189   9.256   7.426  14.217
   89SBC   C0AZ62190   9.343   7.507  14.149
   89SBC   C0AY62191   9.309   7.555  14.022
   89SBC   N00762192   9.399   7.630  13.945
   89SBC   C0E262193   9.371   7.665  13.814
   89SBC   C0E162194   9.467   7.728  13.740
   89SBC   C0E462195   9.436   7.771  13.613
   89SBC   C0FF62196   9.523   7.851  13.539
   89SBC   C0FJ62197   9.502   7.924  13.416
   89SBC   C0FK62198   9.373   7.987  13.395
   89SBC   H01662199   9.281   7.955  13.441
   89SBC   C0FL62200   9.406   8.116  13.326
   89SBC   H01762201   9.348   8.202  13.295
   89SBC   C0FM62202   9.546   8.125  13.317
   89SBC   C0FH62203   9.654   8.214  13.313
   89SBC   C0FI62204   9.753   8.141  13.373
   89SBC   C0F362205   9.849   8.209  13.456
   89SBC   C0F262206   9.912   8.134  13.551
   89SBC   C0DW62207   9.857   8.017  13.601
   89SBC   C0FE62208   9.751   7.958  13.534
   89SBC   C0DV62209   9.872   7.980  13.738
   89SBC   C0DX62210   9.793   7.891  13.798
   89SBC   C0DK62211   9.819   7.858  13.934
   89SBC   C0DJ62212   9.923   7.914  14.004
   89SBC   C0DI62213   9.943   7.885  14.138
   89SBC   C0DH62214   9.866   7.786  14.195
   89SBC   C0DG62215   9.750   7.741  14.128
   89SBC   C0BV62216   9.664   7.657  14.198
   89SBC   C0BC62217   9.549   7.617  14.132
   89SBC   C0BA62218   9.698   7.612  14.323
   89SBC   C0B462219   9.616   7.517  14.385
   89SBC   C0B362220   9.497   7.485  14.329
   89SBC   C0B562221   9.654   7.462  14.507
   89SBC   C0BU62222   9.775   7.497  14.562
   89SBC   C0BT62223   9.861   7.591  14.507
   89SBC   C0BS62224   9.983   7.623  14.564
   89SBC   C0CC62225  10.061   7.732  14.507
   89SBC   C0CB62226  10.171   7.790  14.574
   89SBC   C0CH62227  10.210   7.920  14.529
   89SBC   C0DO62228  10.168   7.976  14.408
   89SBC   C0DP62229  10.230   8.089  14.360
   89SBC   C0EA62230  10.333   8.162  14.431
   89SBC   H01262231  10.344   8.136  14.535
   89SBC   O00962232  10.381   8.281  14.390
   89SBC   C0EH62233  10.335   8.331  14.276
   89SBC   C0EG62234  10.364   8.464  14.248
   89SBC   C0EJ62235  10.435   8.574  14.316
   89SBC   H01062236  10.494   8.553  14.404
   89SBC   C0EK62237  10.415   8.698  14.240
   89SBC   H00Z62238  10.474   8.787  14.257
   89SBC   C0EL62239  10.336   8.658  14.125
   89SBC   C0EM62240  10.300   8.730  14.009
   89SBC   C0EW62241  10.325   8.866  13.982
   89SBC   H01362242  10.384   8.926  14.050
   89SBC   C0EX62243  10.270   8.927  13.856
   89SBC   H01462244  10.282   9.031  13.830
   89SBC   C0F162245  10.184   8.850  13.770
   89SBC   C0EU62246  10.170   8.715  13.799
   89SBC   C0ET62247  10.095   8.617  13.719
   89SBC   C0ES62248  10.110   8.499  13.797
   89SBC   C0EE62249  10.179   8.525  13.920
   89SBC   C0ED62250  10.223   8.457  14.041
   89SBC   C0EC62251  10.199   8.321  14.066
   89SBC   C0EB62252  10.118   8.230  13.982
   89SBC   C0EN62253  10.077   8.265  13.848
   89SBC   C0ER62254  10.021   8.161  13.764
   89SBC   C0DS62255  10.074   8.106  14.029
   89SBC   C0DR62256  10.096   8.071  14.161
   89SBC   C0EY62257  10.070   8.378  13.760
   89SBC   C0EZ62258  10.011   8.351  13.634
   89SBC   C0F562259   9.949   8.426  13.529
   89SBC   C0F662260   9.958   8.569  13.521
   89SBC   N00862261   9.878   8.628  13.413
   89SBC   C0F762262   9.792   8.546  13.336
   89SBC   C0FQ62263   9.707   8.618  13.245
   89SBC   H01862264   9.635   8.554  13.195
   89SBC   C0FP62265   9.705   8.755  13.227
   89SBC   H01962266   9.627   8.799  13.167
   89SBC   C0FO62267   9.792   8.829  13.303
   89SBC   H01A62268   9.782   8.937  13.295
   89SBC   C0F862269   9.778   8.411  13.362
   89SBC   C0F962270   9.884   8.772  13.394
   89SBC   C0FA62271   9.969   8.857  13.467
   89SBC   H01562272   9.966   8.962  13.443
   89SBC   C0FB62273  10.047   8.800  13.572
   89SBC   C0FD62274  10.033   8.662  13.600
   89SBC   C0FC62275  10.120   8.897  13.647
   89SBC   O00A62276  10.130   9.017  13.614
   89SBC   C0EV62277  10.219   8.660  13.918
   89SBC   C0EF62278  10.301   8.520  14.142
   89SBC   C0EI62279  10.244   8.261  14.188
   89SBC   C0DQ62280  10.189   8.141  14.235
   89SBC   C0CE62281  10.070   7.908  14.341
   89SBC   H00U62282  10.269   7.965  14.608
   89SBC   C0CA62283  10.241   7.707  14.672
   89SBC   C0C962284  10.167   7.591  14.728
   89SBC   C0C862285  10.242   7.507  14.818
   89SBC   C0C762286  10.203   7.414  14.921
   89SBC   C0C662287  10.304   7.355  14.995
   89SBC   C0C562288  10.328   7.295  15.129
   89SBC   C0CQ62289  10.460   7.307  15.180
   89SBC   C0D162290  10.549   7.390  15.118
   89SBC   C0D862291  10.621   7.454  15.216
   89SBC   C0D762292  10.623   7.363  15.323
   89SBC   C0D662293  10.691   7.372  15.443
   89SBC   C0D562294  10.662   7.284  15.554
   89SBC   C0D462295  10.588   7.161  15.564
   89SBC   C0D362296  10.580   7.138  15.704
   89SBC   C0CX62297  10.451   7.073  15.723
   89SBC   C0CW62298  10.364   7.104  15.606
   89SBC   C0CV62299  10.226   7.075  15.563
   89SBC   C0D262300  10.139   6.999  15.647
   89SBC   C09D62301  10.162   6.951  15.779
   89SBC   C09C62302  10.058   6.886  15.850
   89SBC   C09B62303  10.071   6.826  15.978
   89SBC   C09A62304  10.201   6.829  16.030
   89SBC   C09962305  10.298   6.906  15.975
   89SBC   C09862306  10.423   6.859  16.019
   89SBC   C08Y62307  10.399   6.739  16.100
   89SBC   C08X62308  10.491   6.629  16.137
   89SBC   C08W62309  10.633   6.644  16.111
   89SBC   C08U62310  10.701   6.755  16.039
   89SBC   C08V62311  10.655   6.854  15.946
   89SBC   C0DC62312  10.771   6.945  15.933
   89SBC   H00W62313  10.763   7.036  15.877
   89SBC   C0DB62314  10.881   6.895  16.009
   89SBC   H00X62315  10.978   6.940  16.024
   89SBC   C08T62316  10.837   6.773  16.056
   89SBC   C08S62317  10.913   6.674  16.114
   89SBC   H00N62318  11.019   6.691  16.120
   89SBC   C08R62319  10.859   6.554  16.162
   89SBC   C08Q62320  10.934   6.448  16.210
   89SBC   H00O62321  11.042   6.452  16.215
   89SBC   C08P62322  10.888   6.332  16.268
   89SBC   C08O62323  10.968   6.228  16.326
   89SBC   H00P62324  11.075   6.239  16.316
   89SBC   C08N62325  10.908   6.111  16.390
   89SBC   C08M62326  10.989   6.002  16.433
   89SBC   O00862327  11.117   6.009  16.433
   89SBC   O00762328  10.934   5.889  16.475
   89SBC   C08H62329  10.792   5.871  16.466
   89SBC   C08G62330  10.725   5.746  16.504
   89SBC   C03V62331  10.782   5.634  16.562
   89SBC   H00962332  10.887   5.649  16.580
   89SBC   C03U62333  10.706   5.524  16.602
   89SBC   C03W62334  10.763   5.402  16.641
   89SBC   H00A62335  10.870   5.392  16.640
   89SBC   C03X62336  10.682   5.305  16.685
   89SBC   H00B62337  10.727   5.212  16.719
   89SBC   O00562338  10.543   5.316  16.695
   89SBC   C03O62339  10.489   5.429  16.645
   89SBC   C03N62340  10.351   5.435  16.652
   89SBC   O00062341  10.287   5.334  16.720
   89SBC   C01962342  10.148   5.330  16.699
   89SBC   C01862343  10.079   5.435  16.631
   89SBC   C01762344  10.149   5.547  16.579
   89SBC   C01662345  10.080   5.653  16.525
   89SBC   C01562346   9.943   5.643  16.529
   89SBC   C01462347   9.868   5.749  16.482
   89SBC   C01362348   9.925   5.871  16.432
   89SBC   C01262349   9.813   5.946  16.393
   89SBC   C01162350   9.699   5.865  16.427
   89SBC   C01062351   9.574   5.912  16.415
   89SBC   C00Z62352   9.456   5.843  16.410
   89SBC   C00Y62353   9.363   5.936  16.351
   89SBC   C01O62354   9.427   6.056  16.317
   89SBC   C01P62355   9.391   6.124  16.196
   89SBC   C02L62356   9.480   6.220  16.154
   89SBC   C02K62357   9.611   6.218  16.212
   89SBC   C01M62358   9.662   6.117  16.303
   89SBC   C02J62359   9.691   6.321  16.158
   89SBC   C02I62360   9.818   6.356  16.200
   89SBC   C02H62361   9.905   6.290  16.286
   89SBC   C01Q62362   9.905   6.157  16.327
   89SBC   C02G62363  10.040   6.126  16.375
   89SBC   C08962364  10.113   6.249  16.373
   89SBC   C08862365  10.244   6.220  16.347
   89SBC   C08762366  10.253   6.076  16.376
   89SBC   C08662367  10.370   6.001  16.388
   89SBC   C03S62368  10.379   5.867  16.435
   89SBC   N00662369  10.520   5.849  16.448
   89SBC   C08F62370  10.584   5.967  16.423
   89SBC   C01J62371  10.292   5.763  16.478
   89SBC   C03R62372  10.362   5.649  16.536
   89SBC   C03Q62373  10.505   5.635  16.539
   89SBC   C08E62374  10.501   6.062  16.381
   89SBC   C08D62375  10.551   6.185  16.330
   89SBC   C08K62376  10.690   6.201  16.331
   89SBC   C08C62377  10.475   6.295  16.288
   89SBC   C09162378  10.536   6.409  16.231
   89SBC   C09262379  10.676   6.423  16.216
   89SBC   C08B62380  10.339   6.321  16.292
   89SBC   C09062381  10.321   6.454  16.241
   89SBC   C09462382  10.196   6.530  16.252
   89SBC   C09562383  10.171   6.640  16.167
   89SBC   C09R62384  10.034   6.652  16.136
   89SBC   C09762385   9.974   6.537  16.182
   89SBC   C09662386  10.070   6.465  16.256
   89SBC   C01I62387  10.122   6.017  16.398
   89SBC   C08A62388  10.033   6.339  16.300
   89SBC   C09L62389   9.850   6.479  16.147
   89SBC   C09K62390   9.739   6.515  16.063
   89SBC   C09J62391   9.740   6.633  15.985
   89SBC   C09I62392   9.654   6.649  15.874
   89SBC   C09O62393   9.534   6.591  15.815
   89SBC   C09N62394   9.466   6.485  15.882
   89SBC   C09M62395   9.512   6.405  15.995
   89SBC   C06O62396   9.345   6.448  15.817
   89SBC   C05M62397   9.296   6.517  15.703
   89SBC   C06P62398   9.374   6.611  15.636
   89SBC   C04262399   9.171   6.484  15.643
   89SBC   C04162400   9.094   6.381  15.700
   89SBC   C04062401   8.971   6.348  15.644
   89SBC   C03Z62402   8.901   6.234  15.689
   89SBC   C03Y62403   8.949   6.158  15.795
   89SBC   C02762404   8.882   6.045  15.835
   89SBC   C02662405   8.921   5.979  15.948
   89SBC   C02862406   8.861   5.859  15.986
   89SBC   C02962407   8.754   5.816  15.911
   89SBC   C02B62408   8.706   5.688  15.935
   89SBC   C02C62409   8.609   5.636  15.851
   89SBC   C02X62410   8.563   5.510  15.868
   89SBC   C03E62411   8.466   5.457  15.780
   89SBC   C03G62412   8.420   5.517  15.673
   89SBC   C04Q62413   8.461   5.646  15.655
   89SBC   C04R62414   8.416   5.722  15.551
   89SBC   C04S62415   8.460   5.850  15.526
   89SBC   C04L62416   8.559   5.904  15.607
   89SBC   C04M62417   8.604   5.829  15.716
   89SBC   C04K62418   8.619   6.024  15.576
   89SBC   C04F62419   8.570   6.095  15.471
   89SBC   C04E62420   8.470   6.046  15.389
   89SBC   C04D62421   8.429   6.117  15.280
   89SBC   C05062422   8.332   6.064  15.201
   89SBC   C05162423   8.289   6.139  15.085
   89SBC   C05Q62424   8.183   6.087  15.015
   89SBC   C05V62425   8.131   6.172  14.915
   89SBC   N00562426   8.023   6.125  14.838
   89SBC   C07V62427   7.972   5.999  14.863
   89SBC   C08262428   7.863   5.956  14.783
   89SBC   C08162429   7.803   6.034  14.687
   89SBC   C07C62430   7.846   6.171  14.678
   89SBC   C07B62431   7.773   6.263  14.595
   89SBC   C08062432   7.653   6.221  14.529
   89SBC   C07Z62433   7.585   6.317  14.451
   89SBC   H00L62434   7.493   6.292  14.399
   89SBC   C07962435   7.628   6.451  14.445
   89SBC   C07862436   7.746   6.491  14.508
   89SBC   C07762437   7.794   6.621  14.497
   89SBC   C07X62438   7.726   6.721  14.421
   89SBC   H00I62439   7.761   6.822  14.405
   89SBC   C07Y62440   7.608   6.686  14.361
   89SBC   H00H62441   7.551   6.756  14.301
   89SBC   C07662442   7.918   6.653  14.548
   89SBC   C06C62443   7.974   6.790  14.546
   89SBC   H00C62444   7.915   6.875  14.517
   89SBC   C06F62445   7.984   6.560  14.628
   89SBC   C06E62446   8.115   6.583  14.678
   89SBC   C06G62447   8.187   6.502  14.761
   89SBC   C06H62448   8.126   6.381  14.793
   89SBC   C06I62449   8.008   6.342  14.732
   89SBC   C06L62450   8.306   6.543  14.816
   89SBC   C06M62451   8.380   6.661  14.769
   89SBC   C06K62452   8.354   6.467  14.921
   89SBC   C05S62453   8.294   6.341  14.955
   89SBC   C05U62454   8.467   6.512  14.993
   89SBC   C05X62455   8.551   6.618  14.944
   89SBC   C05G62456   8.657   6.655  15.036
   89SBC   C05F62457   8.667   6.587  15.157
   89SBC   C05E62458   8.779   6.629  15.220
   89SBC   C04862459   8.823   6.561  15.334
   89SBC   C05662460   8.953   6.597  15.374
   89SBC   C04562461   8.995   6.530  15.486
   89SBC   C04762462   8.748   6.459  15.378
   89SBC   C04962463   8.633   6.416  15.310
   89SBC   C04B62464   8.578   6.294  15.342
   89SBC   C04662465   8.801   6.387  15.485
   89SBC   C04H62466   8.733   6.274  15.524
   89SBC   C05D62467   8.860   6.711  15.141
   89SBC   C04A62468   8.598   6.475  15.192
   89SBC   C05T62469   8.499   6.437  15.107
   89SBC   C05562470   8.439   6.316  15.139
   89SBC   C06D62471   8.180   6.702  14.639
   89SBC   C07W62472   7.938   6.433  14.649
   89SBC   C08562473   7.563   6.549  14.371
   89SBC   H00M62474   7.470   6.529  14.320
   89SBC   C08462475   7.615   6.090  14.541
   89SBC   H00J62476   7.527   6.049  14.495
   89SBC   C07A62477   7.817   6.397  14.585
   89SBC   C08362478   7.689   6.001  14.611
   89SBC   H00K62479   7.643   5.904  14.626
   89SBC   O00K62480   7.809   5.829  14.808
   89SBC   C0GO62481   7.862   5.751  14.907
   89SBC   C0GN62482   7.801   5.629  14.940
   89SBC   H01L62483   7.712   5.598  14.887
   89SBC   C0GM62484   7.852   5.544  15.043
   89SBC   C0GL62485   7.803   5.422  15.058
   89SBC   H01M62486   7.722   5.395  14.992
   89SBC   O00J62487   7.864   5.323  15.134
   89SBC   C0GK62488   7.976   5.376  15.210
   89SBC   H01N62489   8.013   5.307  15.284
   89SBC   C05K62490   8.029   5.500  15.202
   89SBC   C05J62491   8.139   5.540  15.281
   89SBC   C04Y62492   8.206   5.467  15.382
   89SBC   C04X62493   8.291   5.524  15.477
   89SBC   O00662494   8.179   5.333  15.394
   89SBC   C05362495   8.229   5.253  15.491
   89SBC   C04O62496   8.309   5.315  15.592
   89SBC   C03C62497   8.371   5.244  15.704
   89SBC   C03B62498   8.392   5.110  15.744
   89SBC   C05462499   8.325   5.000  15.688
   89SBC   C0GR62500   8.341   4.867  15.743
   89SBC   C03M62501   8.435   4.798  15.841
   89SBC   C03I62502   8.529   4.865  15.929
   89SBC   C03J62503   8.610   4.780  16.012
   89SBC   N00262504   8.704   4.843  16.103
   89SBC   C02U62505   8.798   4.760  16.176
   89SBC   C02T62506   8.890   4.815  16.263
   89SBC   C02Z62507   8.962   4.732  16.344
   89SBC   N00162508   9.053   4.786  16.441
   89SBC   C02R62509   9.117   4.702  16.532
   89SBC   C03262510   9.107   4.566  16.523
   89SBC   C03162511   9.038   4.514  16.408
   89SBC   H00762512   9.038   4.407  16.399
   89SBC   C03362513   9.157   4.489  16.639
   89SBC   H00362514   9.171   4.382  16.636
   89SBC   O00462515   9.217   4.547  16.747
   89SBC   C03462516   9.233   4.681  16.749
   89SBC   C03562517   9.310   4.743  16.856
   89SBC   C03662518   9.332   4.885  16.857
   89SBC   H00562519   9.374   4.939  16.940
   89SBC   C03762520   9.280   4.960  16.751
   89SBC   H00662521   9.295   5.066  16.762
   89SBC   C00D62522   9.222   4.898  16.637
   89SBC   C00C62523   9.182   4.971  16.527
   89SBC   C00B62524   9.218   5.114  16.511
   89SBC   C00A62525   9.314   5.220  16.561
   89SBC   C00962526   9.251   5.339  16.515
   89SBC   C00862527   9.313   5.468  16.478
   89SBC   C00762528   9.448   5.483  16.510
   89SBC   C00662529   9.508   5.608  16.478
   89SBC   C00562530   9.646   5.619  16.492
   89SBC   C00462531   9.728   5.514  16.543
   89SBC   C00362532   9.664   5.392  16.569
   89SBC   C00262533   9.738   5.292  16.625
   89SBC   C01C62534   9.872   5.314  16.663
   89SBC   C01B62535   9.939   5.225  16.750
   89SBC   H00062536   9.892   5.154  16.815
   89SBC   C00162537   9.679   5.166  16.650
   89SBC   C00062538   9.548   5.146  16.610
   89SBC   C01U62539   9.541   5.005  16.612
   89SBC   H00262540   9.468   4.942  16.564
   89SBC   C01T62541   9.664   4.952  16.669
   89SBC   O00262542   9.688   4.833  16.695
   89SBC   O00162543   9.746   5.052  16.689
   89SBC   C01S62544   9.525   5.375  16.543
   89SBC   C00N62545   9.232   5.566  16.416
   89SBC   C00M62546   9.104   5.533  16.366
   89SBC   C00J62547   9.059   5.404  16.367
   89SBC   C00I62548   8.958   5.355  16.288
   89SBC   C00H62549   8.933   5.219  16.282
   89SBC   C00G62550   9.013   5.136  16.355
   89SBC   C00F62551   9.006   4.999  16.348
   89SBC   C01X62552   8.842   5.168  16.194
   89SBC   C01W62553   8.763   5.255  16.124
   89SBC   C01V62554   8.781   5.390  16.132
   89SBC   C02062555   8.723   5.477  16.042
   89SBC   C01Z62556   8.664   5.200  16.043
   89SBC   C02Y62557   8.590   5.290  15.970
   89SBC   C03962558   8.490   5.242  15.895
   89SBC   C02W62559   8.632   5.062  16.043
   89SBC   C01Y62560   8.819   5.032  16.199
   89SBC   C00U62561   8.884   5.440  16.209
   89SBC   C00S62562   8.923   5.573  16.206
   89SBC   C00T62563   8.862   5.656  16.110
   89SBC   C00R62564   9.031   5.619  16.280
   89SBC   C00Q62565   9.078   5.744  16.258
   89SBC   C00V62566   9.029   5.821  16.155
   89SBC   C02462567   9.093   5.939  16.116
   89SBC   C00X62568   9.204   5.979  16.175
   89SBC   C00P62569   9.201   5.774  16.318
   89SBC   C00O62570   9.282   5.686  16.391
   89SBC   C00K62571   9.130   5.321  16.457
   89SBC   N00062572   9.458   5.242  16.566
   89SBC   C00L62573   9.117   5.185  16.437
   89SBC   H00462574   9.341   4.692  16.946
   89SBC   C02Q62575   9.186   4.763  16.638
   89SBC   C00E62576   9.080   4.924  16.438
   89SBC   C03062577   8.961   4.595  16.323
   89SBC   O00362578   8.873   4.539  16.229
   89SBC   C02S62579   8.902   4.949  16.271
   89SBC   C03862580   8.786   4.621  16.167
   89SBC   C03L62581   8.690   4.566  16.085
   89SBC   H00862582   8.682   4.459  16.091
   89SBC   C02V62583   8.714   4.982  16.122
   89SBC   C03K62584   8.602   4.643  16.008
   89SBC   C0BK62585   8.501   4.589  15.928
   89SBC   H00T62586   8.491   4.481  15.925
   89SBC   C03H62587   8.549   5.006  15.943
   89SBC   C0BL62588   8.419   4.659  15.837
   89SBC   C0GU62589   8.320   4.596  15.758
   89SBC   H01O62590   8.309   4.489  15.754
   89SBC   C0GT62591   8.235   4.661  15.673
   89SBC   H01P62592   8.163   4.608  15.612
   89SBC   C0GS62593   8.245   4.795  15.667
   89SBC   C0GV62594   8.175   4.877  15.571
   89SBC   C0GW62595   8.071   4.851  15.474
   89SBC   H01Q62596   8.030   4.751  15.471
   89SBC   C0GX62597   8.035   4.955  15.393
   89SBC   H01R62598   7.959   4.951  15.316
   89SBC   O00L62599   8.086   5.084  15.401
   89SBC   C0GQ62600   8.220   5.013  15.586
   89SBC   C03A62601   8.470   5.107  15.862
   89SBC   C05L62602   8.181   5.112  15.494
   89SBC   C04W62603   8.184   5.672  15.263
   89SBC   C05I62604   8.132   5.756  15.163
   89SBC   C05O62605   8.024   5.719  15.085
   89SBC   C05262606   8.177   5.885  15.143
   89SBC   C04V62607   8.275   5.733  15.349
   89SBC   C04U62608   8.321   5.866  15.332
   89SBC   N00962609   7.966   5.593  15.114
   89SBC   C0GP62610   7.976   5.791  14.977
   89SBC   C05W62611   8.030   5.921  14.961
   89SBC   C07D62612   7.960   6.216  14.747
   89SBC   C06J62613   8.184   6.296  14.887
   89SBC   C05P62614   8.127   5.966  15.044
   89SBC   C05R62615   8.338   6.263  15.059
   89SBC   C04Z62616   8.275   5.943  15.232
   89SBC   C04C62617   8.478   6.243  15.257
   89SBC   C04G62618   8.628   6.220  15.449
   89SBC   C04J62619   8.720   6.074  15.655
   89SBC   C04T62620   8.415   5.919  15.418
   89SBC   N00362621   8.336   5.660  15.459
   89SBC   C04P62622   8.337   5.451  15.582
   89SBC   C03D62623   8.439   5.321  15.796
   89SBC   C02162624   8.624   5.426  15.960
   89SBC   C03F62625   8.551   5.705  15.750
   89SBC   C02262626   8.764   5.608  16.030
   89SBC   C02A62627   8.709   5.883  15.797
   89SBC   C02362628   8.915   5.782  16.090
   89SBC   C02562629   9.039   6.017  16.011
   89SBC   C02D62630   9.115   6.126  15.966
   89SBC   C02E62631   9.236   6.157  16.022
   89SBC   C02N62632   9.317   6.262  15.976
   89SBC   C04N62633   8.768   6.000  15.760
   89SBC   C02P62634   9.072   6.198  15.857
   89SBC   C04I62635   8.778   6.195  15.626
   89SBC   C04462636   8.921   6.428  15.540
   89SBC   C04362637   9.142   6.307  15.808
   89SBC   C05N62638   9.268   6.338  15.866
   89SBC   C09U62639   9.496   6.646  15.689
   89SBC   C09V62640   9.576   6.738  15.614
   89SBC   C09X62641   9.698   6.779  15.663
   89SBC   C09Y62642   9.789   6.861  15.599
   89SBC   C0A162643   9.753   6.913  15.479
   89SBC   C0A262644   9.626   6.883  15.429
   89SBC   C0A462645   9.580   6.939  15.313
   89SBC   C07162646   9.453   6.909  15.267
   89SBC   C0A562647   9.405   6.975  15.147
   89SBC   C0A962648   9.492   7.056  15.079
   89SBC   C0A862649   9.621   7.081  15.129
   89SBC   C0AP62650   9.707   7.156  15.053
   89SBC   C0BY62651   9.834   7.166  15.098
   89SBC   C0BX62652   9.891   7.116  15.213
   89SBC   C0C262653  10.022   7.145  15.261
   89SBC   C0C362654  10.062   7.096  15.387
   89SBC   C0CT62655   9.969   7.023  15.465
   89SBC   C0C162656  10.105   7.223  15.183
   89SBC   C0C062657  10.046   7.289  15.067
   89SBC   C0A762658   9.801   7.047  15.295
   89SBC   C0BZ62659   9.918   7.251  15.029
   89SBC   C0BO62660   9.876   7.318  14.915
   89SBC   C0BN62661   9.759   7.282  14.857
   89SBC   C0BM62662   9.728   7.350  14.740
   89SBC   C0B962663   9.602   7.323  14.692
   89SBC   C0B862664   9.514   7.246  14.760
   89SBC   C0AD62665   9.545   7.191  14.885
   89SBC   C0AF62666   9.388   7.222  14.710
   89SBC   C0AG62667   9.349   7.267  14.585
   89SBC   C0B762668   9.437   7.350  14.517
   89SBC   C0AE62669   9.310   7.139  14.784
   89SBC   C0AB62670   9.338   7.088  14.910
   89SBC   C0AA62671   9.252   7.003  14.975
   89SBC   C0AJ62672   9.189   7.112  14.728
   89SBC   C0AK62673   9.108   7.018  14.793
   89SBC   C06W62674   9.011   6.985  14.705
   89SBC   C0AI62675   9.140   7.148  14.604
   89SBC   C0BP62676   9.970   7.401  14.860
   89SBC   C0BQ62677   9.938   7.461  14.733
   89SBC   C0BW62678   9.672   7.205  14.929
   89SBC   C0AC62679   9.459   7.113  14.958
   89SBC   C0A662680   9.668   7.025  15.250
   89SBC   C0A362681   9.840   6.997  15.418
   89SBC   C09Z62682   9.916   6.898  15.653
   89SBC   C09W62683   9.544   6.792  15.496
   89SBC   C07262684   9.413   6.764  15.453
   89SBC   C09H62685   9.731   6.735  15.790
   89SBC   C09G62686   9.846   6.778  15.852
   89SBC   C09P62687   9.856   6.721  15.972
   89SBC   C02O62688   9.638   6.419  16.066
   89SBC   C02M62689   9.437   6.302  16.046
   89SBC   C02F62690   9.275   6.085  16.133
   89SBC   C00W62691   9.250   5.894  16.279
   89SBC   C01R62692   9.417   5.710  16.428
   89SBC   C01N62693   9.554   6.038  16.353
   89SBC   C01L62694   9.796   6.073  16.332
   89SBC   C01H62695  10.070   5.890  16.431
   89SBC   C01K62696   9.727   5.737  16.462
   89SBC   C01E62697   9.869   5.528  16.557
   89SBC   C01G62698  10.149   5.772  16.479
   89SBC   C01D62699   9.941   5.425  16.616
   89SBC   C01A62700  10.076   5.228  16.762
   89SBC   H00162701  10.121   5.151  16.822
   89SBC   C01F62702  10.284   5.546  16.587
   89SBC   C03P62703  10.569   5.531  16.597
   89SBC   C03T62704  10.585   5.740  16.499
   89SBC   C08I62705  10.719   5.980  16.425
   89SBC   C08J62706  10.775   6.101  16.381
   89SBC   C08L62707  10.751   6.320  16.273
   89SBC   C09362708  10.716   6.543  16.161
   89SBC   C08Z62709  10.446   6.511  16.197
   89SBC   C09T62710  10.515   6.886  15.919
   89SBC   C09S62711  10.258   6.735  16.112
   89SBC   C09Q62712   9.978   6.738  16.038
   89SBC   C09F62713   9.941   6.861  15.786
   89SBC   C09E62714  10.291   6.945  15.843
   89SBC   C0A062715  10.008   6.978  15.589
   89SBC   C0CU62716  10.189   7.124  15.435
   89SBC   C0CR62717  10.280   7.196  15.351
   89SBC   C0CZ62718  10.410   7.218  15.392
   89SBC   C0DA62719  10.427   6.965  15.811
   89SBC   C0D962720  10.612   7.266  15.775
   89SBC   H00V62721  10.570   7.295  15.870
   89SBC   C0CY62722  10.454   7.160  15.514
   89SBC   C0DF62723  10.677   7.346  15.679
   89SBC   C0DE62724  10.721   7.484  15.648
   89SBC   C0GI62725  10.757   7.587  15.739
   89SBC   H01K62726  10.763   7.587  15.847
   89SBC   C0GJ62727  10.787   7.700  15.667
   89SBC   H01J62728  10.809   7.792  15.720
   89SBC   O00I62729  10.782   7.723  15.532
   89SBC   C0GH62730  10.749   7.628  15.446
   89SBC   C0GG62731  10.733   7.670  15.304
   89SBC   O00G62732  10.781   7.786  15.267
   89SBC   C0G862733  10.785   7.824  15.131
   89SBC   C0G962734  10.875   7.922  15.096
   89SBC   H01G62735  10.945   7.963  15.167
   89SBC   C0GA62736  10.886   7.952  14.962
   89SBC   H01H62737  10.963   8.022  14.934
   89SBC   C0GB62738  10.792   7.912  14.862
   89SBC   C0EP62739  10.687   7.828  14.909
   89SBC   C0E862740  10.578   7.808  14.818
   89SBC   C0CK62741  10.451   7.746  14.828
   89SBC   C0CL62742  10.459   7.614  14.880
   89SBC   C0E962743  10.545   7.582  14.992
   89SBC   C0GE62744  10.638   7.651  15.080
   89SBC   C0E762745  10.589   7.836  14.681
   89SBC   C0CJ62746  10.471   7.809  14.608
   89SBC   C0E662747  10.477   7.824  14.470
   89SBC   H00Y62748  10.395   7.793  14.407
   89SBC   C0EO62749  10.589   7.897  14.419
   89SBC   H01162750  10.594   7.908  14.312
   89SBC   C0G662751  10.696   7.944  14.503
   89SBC   C0G562752  10.805   8.034  14.464
   89SBC   H01F62753  10.805   8.091  14.373
   89SBC   C0GD62754  10.897   8.071  14.555
   89SBC   H01I62755  10.977   8.138  14.527
   89SBC   O00H62756  10.893   8.036  14.685
   89SBC   C0EQ62757  10.702   7.905  14.636
   89SBC   C0GC62758  10.801   7.945  14.726
   89SBC   C0G762759  10.696   7.769  15.037
   89SBC   C0DD62760  10.724   7.499  15.503
   89SBC   C0GF62761  10.665   7.590  15.207
   89SBC   C0CO62762  10.517   7.449  15.001
   89SBC   C0D062763  10.497   7.296  15.309
   89SBC   C0C462764  10.237   7.241  15.222
   89SBC   C0CN62765  10.417   7.403  14.924
   89SBC   C0CP62766  10.076   7.382  14.959
   89SBC   C0CM62767  10.386   7.502  14.832
   89SBC   C0CI62768  10.377   7.754  14.703
   89SBC   C0CD62769  10.012   7.794  14.391
   89SBC   C0BR62770  10.029   7.558  14.678
   89SBC   C0CS62771   9.815   7.439  14.680
   89SBC   C0B662772   9.566   7.378  14.570
   89SBC   C0CG62773   9.817   7.649  14.385
   89SBC   C0CF62774   9.900   7.741  14.323
   89SBC   C0E562775  10.038   7.955  14.214
   89SBC   C0DT62776   9.990   8.025  13.947
   89SBC   C0DL62777   9.728   7.776  13.997
   89SBC   C0DM62778   9.608   7.742  13.936
   89SBC   C0DY62779   9.681   7.843  13.729
   89SBC   C0DU62780   9.968   8.045  13.820
   89SBC   C0F062781   9.991   8.210  13.638
   89SBC   C0F462782   9.860   8.347  13.451
   89SBC   C0FG62783   9.716   8.014  13.408
   89SBC   O00B62784   9.670   8.347  13.296
   89SBC   C0FN62785   9.598   7.993  13.343
   89SBC   C0DZ62786   9.652   7.877  13.593
   89SBC   O00C62787   9.309   7.747  13.560
   89SBC   C0FR62788   9.211   7.692  13.628
   89SBC   O00D62789   9.100   7.699  13.577
   89SBC   C0E062790   9.587   7.768  13.801
   89SBC   C0E362791   9.245   7.637  13.757
   89SBC   C0AW62792   9.156   7.564  13.834
   89SBC   C0AV62793   9.027   7.524  13.783
   89SBC   H00Q62794   9.003   7.528  13.678
   89SBC   C0AU62795   8.937   7.450  13.862
   89SBC   H00R62796   8.840   7.428  13.819
   89SBC   C0AT62797   8.981   7.404  13.988
   89SBC   C0AS62798   8.925   7.330  14.104
   89SBC   C0AR62799   8.787   7.280  14.105
   89SBC   C0BE62800   9.102   7.444  14.035
   89SBC   C0DN62801   9.519   7.670  14.010
   89SBC   C0AX62802   9.190   7.530  13.965
   89SBC   C0BB62803   9.465   7.537  14.202
   89SBC   C0BD62804   9.132   7.392  14.156
   89SBC   C0B262805   9.407   7.393  14.391
   89SBC   C0AH62806   9.224   7.229  14.526
   89SBC   C0BF62807   9.032   7.312  14.209
   89SBC   C0AL62808   9.023   7.066  14.584
   89SBC   C07U62809   8.790   7.153  14.331
   89SBC   C0AQ62810   8.734   7.199  14.210
   89SBC   C0BG62811   8.674   7.313  14.016
   89SBC   C0FY62812   8.331   7.317  14.104
   89SBC   C0BJ62813   8.627   7.452  13.997
   89SBC   H00S62814   8.692   7.538  13.987
   89SBC   C0FZ62815   8.277   7.448  14.083
   89SBC   C07S62816   8.300   7.245  14.230
   89SBC   C0G162817   8.033   7.484  14.349
   89SBC   C07K62818   7.995   7.217  14.606
   89SBC   C07H62819   8.216   7.122  14.470
   89SBC   C06B62820   8.110   6.806  14.584
   89SBC   C06N62821   8.306   6.737  14.669
   89SBC   C06662822   8.457   7.023  14.478
   89SBC   C06262823   8.731   6.921  14.608
   89SBC   C05Y62824   8.513   6.681  14.823
   89SBC   C06162825   8.819   6.843  14.679
   89SBC   C05H62826   8.778   6.732  15.021
   89SBC   C06V62827   8.923   6.892  14.752
   89SBC   C06Y62828   9.135   6.967  14.923
   89SBC   C05C62829   8.994   6.744  15.181
   89SBC   C06Z62830   9.280   6.945  15.096
   89SBC   C07062831   9.367   6.827  15.338
   89SBC   C05B62832   9.031   6.692  15.306
   89SBC   C05762833   9.127   6.549  15.528
   89SBC   C05962834   9.333   6.671  15.516
   90SBC   C05862835   4.409   5.166   7.456
   90SBC   C05A62836   4.278   5.126   7.471
   90SBC   C06Q62837   4.251   4.990   7.477
   90SBC   C06R62838   4.113   4.951   7.490
   90SBC   C06S62839   4.011   5.044   7.482
   90SBC   C06T62840   3.884   4.988   7.494
   90SBC   C06U62841   3.751   5.054   7.491
   90SBC   C06X62842   3.710   5.191   7.507
   90SBC   C06062843   3.565   5.206   7.497
   90SBC   C05Z62844   3.475   5.285   7.580
   90SBC   C06862845   3.350   5.198   7.583
   90SBC   C06762846   3.214   5.240   7.596
   90SBC   C06962847   3.179   5.366   7.659
   90SBC   C06A62848   3.046   5.430   7.679
   90SBC   C07362849   2.941   5.442   7.589
   90SBC   C07P62850   2.891   5.568   7.541
   90SBC   C07O62851   2.931   5.704   7.579
   90SBC   H00D62852   3.007   5.711   7.655
   90SBC   C07N62853   2.873   5.819   7.540
   90SBC   H00E62854   2.903   5.916   7.577
   90SBC   C07M62855   2.780   5.809   7.427
   90SBC   H00F62856   2.739   5.901   7.387
   90SBC   C07L62857   2.753   5.691   7.363
   90SBC   C07Q62858   2.673   5.679   7.244
   90SBC   H00G62859   2.621   5.763   7.200
   90SBC   O00F62860   2.667   5.566   7.175
   90SBC   C07J62861   2.703   5.447   7.241
   90SBC   C07I62862   2.775   5.452   7.364
   90SBC   N00462863   2.809   5.328   7.423
   90SBC   C07R62864   2.754   5.208   7.367
   90SBC   C07T62865   2.684   5.209   7.240
   90SBC   C0FX62866   2.639   5.092   7.178
   90SBC   C0FW62867   2.608   5.085   7.045
   90SBC   C0G062868   2.610   5.207   6.969
   90SBC   C0G262869   2.608   5.200   6.828
   90SBC   H01E62870   2.624   5.289   6.768
   90SBC   C0G362871   2.600   5.077   6.763
   90SBC   H01C62872   2.600   5.068   6.655
   90SBC   C0G462873   2.584   4.959   6.841
   90SBC   H01D62874   2.586   4.872   6.777
   90SBC   O00E62875   2.620   5.325   7.042
   90SBC   C0FV62876   2.588   4.958   6.982
   90SBC   C0FU62877   2.597   4.845   7.073
   90SBC   H01B62878   2.589   4.745   7.033
   90SBC   C0FT62879   2.625   4.862   7.208
   90SBC   C0FS62880   2.654   4.770   7.315
   90SBC   C0BI62881   2.683   4.853   7.433
   90SBC   C0BH62882   2.781   4.782   7.505
   90SBC   C07F62883   2.913   4.838   7.528
   90SBC   C07E62884   2.950   4.970   7.555
   90SBC   C07G62885   2.877   5.082   7.531
   90SBC   C07462886   2.958   5.191   7.547
   90SBC   C06562887   3.083   5.009   7.567
   90SBC   C06462888   3.182   4.909   7.549
   90SBC   C06362889   3.318   4.928   7.529
   90SBC   C07562890   3.369   4.790   7.505
   90SBC   C0AM62891   3.267   4.691   7.497
   90SBC   C0AN62892   3.276   4.544   7.469
   90SBC   C0AO62893   3.400   4.457   7.460
   90SBC   C0B162894   3.395   4.317   7.426
   90SBC   C0B062895   3.279   4.259   7.390
   90SBC   C0AZ62896   3.254   4.132   7.337
   90SBC   C0AY62897   3.132   4.084   7.299
   90SBC   N00762898   3.112   3.957   7.239
   90SBC   C0E262899   2.985   3.914   7.200
   90SBC   C0E162900   2.980   3.794   7.133
   90SBC   C0E462901   2.852   3.749   7.094
   90SBC   C0FF62902   2.831   3.622   7.030
   90SBC   C0FJ62903   2.722   3.559   6.955
   90SBC   C0FK62904   2.624   3.639   6.892
   90SBC   H01662905   2.605   3.742   6.920
   90SBC   C0FL62906   2.578   3.567   6.774
   90SBC   H01762907   2.512   3.602   6.696
   90SBC   C0FM62908   2.643   3.443   6.777
   90SBC   C0FH62909   2.690   3.342   6.690
   90SBC   C0FI62910   2.807   3.303   6.756
   90SBC   C0F362911   2.927   3.276   6.682
   90SBC   C0F262912   3.047   3.299   6.753
   90SBC   C0DW62913   3.066   3.384   6.863
   90SBC   C0FE62914   2.952   3.429   6.929
   90SBC   C0DV62915   3.188   3.439   6.891
   90SBC   C0DX62916   3.194   3.545   6.974
   90SBC   C0DK62917   3.315   3.605   7.006
   90SBC   C0DJ62918   3.426   3.559   6.940
   90SBC   C0DI62919   3.552   3.616   6.965
   90SBC   C0DH62920   3.561   3.710   7.063
   90SBC   C0DG62921   3.449   3.759   7.129
   90SBC   C0BV62922   3.461   3.864   7.216
   90SBC   C0BC62923   3.348   3.933   7.254
   90SBC   C0BA62924   3.588   3.909   7.253
   90SBC   C0B462925   3.598   4.026   7.327
   90SBC   C0B362926   3.491   4.109   7.353
   90SBC   C0B562927   3.722   4.063   7.367
   90SBC   C0BU62928   3.837   3.985   7.335
   90SBC   C0BT62929   3.826   3.880   7.247
   90SBC   C0BS62930   3.940   3.804   7.205
   90SBC   C0CC62931   3.924   3.725   7.094
   90SBC   C0CB62932   4.038   3.670   7.031
   90SBC   C0CH62933   4.015   3.653   6.890
   90SBC   C0DO62934   3.887   3.628   6.838
   90SBC   C0DP62935   3.867   3.571   6.711
   90SBC   C0EA62936   3.979   3.551   6.620
   90SBC   H01262937   4.071   3.603   6.643
   90SBC   O00962938   3.964   3.502   6.494
   90SBC   C0EH62939   3.846   3.434   6.471
   90SBC   C0EG62940   3.839   3.361   6.354
   90SBC   C0EJ62941   3.918   3.358   6.235
   90SBC   H01062942   4.016   3.400   6.219
   90SBC   C0EK62943   3.852   3.284   6.136
   90SBC   H00Z62944   3.877   3.257   6.034
   90SBC   C0EL62945   3.726   3.244   6.195
   90SBC   C0EM62946   3.609   3.191   6.132
   90SBC   C0EW62947   3.596   3.140   6.000
   90SBC   H01362948   3.684   3.144   5.938
   90SBC   C0EX62949   3.464   3.105   5.950
   90SBC   H01462950   3.446   3.082   5.846
   90SBC   C0F162951   3.348   3.110   6.043
   90SBC   C0EU62952   3.365   3.154   6.173
   90SBC   C0ET62953   3.267   3.177   6.273
   90SBC   C0ES62954   3.345   3.230   6.385
   90SBC   C0EE62955   3.480   3.253   6.347
   90SBC   C0ED62956   3.604   3.299   6.404
   90SBC   C0EC62957   3.612   3.364   6.532
   90SBC   C0EB62958   3.509   3.368   6.630
   90SBC   C0EN62959   3.372   3.313   6.608
   90SBC   C0ER62960   3.288   3.319   6.711
   90SBC   C0DS62961   3.526   3.445   6.747
   90SBC   C0DR62962   3.646   3.508   6.771
   90SBC   C0EY62963   3.294   3.238   6.511
   90SBC   C0EZ62964   3.157   3.227   6.539
   90SBC   C0F562965   3.027   3.206   6.466
   90SBC   C0F662966   3.024   3.159   6.330
   90SBC   N00862967   2.889   3.140   6.283
   90SBC   C0F762968   2.775   3.187   6.359
   90SBC   C0FQ62969   2.654   3.198   6.288
   90SBC   H01862970   2.572   3.232   6.351
   90SBC   C0FP62971   2.631   3.150   6.163
   90SBC   H01962972   2.532   3.152   6.119
   90SBC   C0FO62973   2.737   3.095   6.098
   90SBC   H01A62974   2.726   3.058   5.997
   90SBC   C0F862975   2.790   3.236   6.490
   90SBC   C0F962976   2.867   3.096   6.148
   90SBC   C0FA62977   2.978   3.056   6.063
   90SBC   H01562978   2.956   3.016   5.966
   90SBC   C0FB62979   3.109   3.092   6.101
   90SBC   C0FD62980   3.132   3.140   6.236
   90SBC   C0FC62981   3.218   3.079   6.004
   90SBC   O00A62982   3.192   3.039   5.891
   90SBC   C0EV62983   3.492   3.196   6.213
   90SBC   C0EF62984   3.721   3.295   6.326
   90SBC   C0EI62985   3.735   3.436   6.562
   90SBC   C0DQ62986   3.749   3.502   6.684
   90SBC   C0CE62987   3.784   3.634   6.923
   90SBC   H00U62988   4.109   3.640   6.838
   90SBC   C0CA62989   4.154   3.639   7.109
   90SBC   C0C962990   4.171   3.729   7.220
   90SBC   C0C862991   4.291   3.719   7.295
   90SBC   C0C762992   4.364   3.815   7.373
   90SBC   C0C662993   4.483   3.772   7.437
   90SBC   C0C562994   4.612   3.834   7.474
   90SBC   C0CQ62995   4.721   3.741   7.486
   90SBC   C0D162996   4.709   3.615   7.430
   90SBC   C0D862997   4.827   3.578   7.367
   90SBC   C0D762998   4.926   3.664   7.423
   90SBC   C0D662999   5.055   3.670   7.381
   90SBC   C0D563000   5.153   3.758   7.427
   90SBC   C0D463001   5.139   3.885   7.488
   90SBC   C0D363002   5.254   3.958   7.448
   90SBC   C0CX63003   5.211   4.099   7.435
   90SBC   C0CW63004   5.061   4.103   7.442
   90SBC   C0CV63005   4.952   4.201   7.436
   90SBC   C0D263006   4.981   4.334   7.391
   90SBC   C09D63007   5.111   4.389   7.349
   90SBC   C09C63008   5.126   4.527   7.316
   90SBC   C09B63009   5.242   4.602   7.286
   90SBC   C09A63010   5.357   4.524   7.300
   90SBC   C09963011   5.356   4.387   7.313
   90SBC   C09863012   5.481   4.347   7.346
   90SBC   C08Y63013   5.565   4.461   7.367
   90SBC   C08X63014   5.688   4.469   7.442
   90SBC   C08W63015   5.757   4.347   7.488
   90SBC   C08U63016   5.702   4.207   7.492
   90SBC   C08V63017   5.571   4.157   7.478
   90SBC   C0DC63018   5.577   4.025   7.522
   90SBC   H00W63019   5.486   3.967   7.521
   90SBC   C0DB63020   5.708   3.991   7.558
   90SBC   H00X63021   5.749   3.896   7.590
   90SBC   C08T63022   5.786   4.108   7.545
   90SBC   C08S63023   5.922   4.120   7.570
   90SBC   H00N63024   5.987   4.036   7.588
   90SBC   C08R63025   5.968   4.249   7.584
   90SBC   C08Q63026   6.098   4.278   7.637
   90SBC   H00O63027   6.162   4.197   7.666
   90SBC   C08P63028   6.152   4.401   7.670
   90SBC   C08O63029   6.278   4.427   7.726
   90SBC   H00P63030   6.345   4.349   7.760
   90SBC   C08N63031   6.321   4.562   7.755
   90SBC   C08M63032   6.453   4.585   7.817
   90SBC   O00863033   6.530   4.495   7.849
   90SBC   O00763034   6.489   4.715   7.836
   90SBC   C08H63035   6.405   4.819   7.819
   90SBC   C08G63036   6.438   4.954   7.860
   90SBC   C03V63037   6.550   5.005   7.925
   90SBC   H00963038   6.624   4.934   7.960
   90SBC   C03U63039   6.571   5.139   7.967
   90SBC   C03W63040   6.689   5.191   8.037
   90SBC   H00A63041   6.769   5.123   8.062
   90SBC   C03X63042   6.705   5.323   8.059
   90SBC   H00B63043   6.792   5.350   8.117
   90SBC   O00563044   6.614   5.415   8.012
   90SBC   C03O63045   6.498   5.369   7.953
   90SBC   C03N63046   6.399   5.461   7.908
   90SBC   O00063047   6.423   5.593   7.942
   90SBC   C01963048   6.321   5.681   7.921
   90SBC   C01863049   6.199   5.648   7.873
   90SBC   C01763050   6.179   5.516   7.838
   90SBC   C01663051   6.059   5.482   7.775
   90SBC   C01563052   5.970   5.585   7.753
   90SBC   C01463053   5.848   5.552   7.697
   90SBC   C01363054   5.813   5.421   7.658
   90SBC   C01263055   5.677   5.442   7.603
   90SBC   C01163056   5.651   5.577   7.621
   90SBC   C01063057   5.543   5.635   7.560
   90SBC   C00Z63058   5.501   5.764   7.564
   90SBC   C00Y63059   5.371   5.759   7.513
   90SBC   C01O63060   5.342   5.638   7.461
   90SBC   C01P63061   5.212   5.587   7.460
   90SBC   C02L63062   5.198   5.452   7.447
   90SBC   C02K63063   5.318   5.376   7.463
   90SBC   C01M63064   5.450   5.422   7.499
   90SBC   C02J63065   5.299   5.237   7.430
   90SBC   C02I63066   5.397   5.134   7.422
   90SBC   C02H63067   5.530   5.140   7.449
   90SBC   C01Q63068   5.612   5.235   7.509
   90SBC   C02G63069   5.737   5.172   7.544
   90SBC   C08963070   5.734   5.048   7.483
   90SBC   C08863071   5.837   4.965   7.519
   90SBC   C08763072   5.919   5.053   7.601
   90SBC   C08663073   6.046   5.024   7.661
   90SBC   C03S63074   6.130   5.110   7.732
   90SBC   N00663075   6.236   5.024   7.770
   90SBC   C08F63076   6.210   4.896   7.729
   90SBC   C01J63077   6.135   5.249   7.761
   90SBC   C03R63078   6.256   5.290   7.826
   90SBC   C03Q63079   6.357   5.192   7.860
   90SBC   C08E63080   6.094   4.888   7.659
   90SBC   C08D63081   6.038   4.759   7.620
   90SBC   C08K63082   6.119   4.643   7.651
   90SBC   C08C63083   5.924   4.729   7.556
   90SBC   C09163084   5.884   4.598   7.525
   90SBC   C09263085   5.951   4.485   7.568
   90SBC   C08B63086   5.832   4.820   7.499
   90SBC   C09063087   5.732   4.737   7.429
   90SBC   C09463088   5.611   4.787   7.357
   90SBC   C09563089   5.503   4.704   7.320
   90SBC   C09R63090   5.389   4.781   7.304
   90SBC   C09763091   5.415   4.912   7.345
   90SBC   C09663092   5.556   4.917   7.370
   90SBC   C01I63093   5.869   5.192   7.609
   90SBC   C08A63094   5.609   5.032   7.426
   90SBC   C09L63095   5.337   5.026   7.365
   90SBC   C09K63096   5.196   5.051   7.352
   90SBC   C09J63097   5.101   4.950   7.316
   90SBC   C09I63098   4.966   4.965   7.335
   90SBC   C09O63099   4.878   5.071   7.383
   90SBC   C09N63100   4.916   5.207   7.405
   90SBC   C09M63101   5.048   5.261   7.406
   90SBC   C06O63102   4.808   5.301   7.434
   90SBC   C05M63103   4.672   5.255   7.439
   90SBC   C06P63104   4.645   5.121   7.426
   90SBC   C04263105   4.568   5.348   7.464
   90SBC   C04163106   4.599   5.481   7.483
   90SBC   C04063107   4.497   5.569   7.521
   90SBC   C03Z63108   4.524   5.702   7.554
   90SBC   C03Y63109   4.650   5.748   7.550
   90SBC   C02763110   4.679   5.877   7.595
   90SBC   C02663111   4.804   5.930   7.592
   90SBC   C02863112   4.834   6.059   7.644
   90SBC   C02963113   4.733   6.132   7.699
   90SBC   C02B63114   4.766   6.247   7.769
   90SBC   C02C63115   4.666   6.325   7.823
   90SBC   C02X63116   4.696   6.433   7.894
   90SBC   C03E63117   4.598   6.499   7.958
   90SBC   C03G63118   4.467   6.465   7.957
   90SBC   C04Q63119   4.437   6.351   7.889
   90SBC   C04R63120   4.308   6.307   7.887
   90SBC   C04S63121   4.276   6.190   7.823
   90SBC   C04L63122   4.376   6.115   7.760
   90SBC   C04M63123   4.503   6.162   7.756
   90SBC   C04K63124   4.344   5.991   7.702
   90SBC   C04F63125   4.213   5.948   7.713
   90SBC   C04E63126   4.113   6.021   7.775
   90SBC   C04D63127   3.981   5.975   7.782
   90SBC   C05063128   3.884   6.048   7.845
   90SBC   C05163129   3.757   5.992   7.859
   90SBC   C05Q63130   3.657   6.060   7.934
   90SBC   C05V63131   3.539   5.992   7.961
   90SBC   N00563132   3.443   6.059   8.041
   90SBC   C07V63133   3.478   6.184   8.097
   90SBC   C08263134   3.376   6.258   8.147
   90SBC   C08163135   3.247   6.205   8.170
   90SBC   C07C63136   3.222   6.076   8.128
   90SBC   C07B63137   3.100   6.015   8.157
   90SBC   C08063138   2.993   6.092   8.215
   90SBC   C07Z63139   2.876   6.026   8.239
   90SBC   H00L63140   2.805   6.082   8.299
   90SBC   C07963141   2.842   5.900   8.199
   90SBC   C07863142   2.943   5.833   8.136
   90SBC   C07763143   2.914   5.705   8.079
   90SBC   C07X63144   2.801   5.631   8.113
   90SBC   H00I63145   2.785   5.527   8.086
   90SBC   C07Y63146   2.704   5.692   8.193
   90SBC   H00H63147   2.608   5.645   8.203
   90SBC   C07663148   3.004   5.652   7.985
   90SBC   C06C63149   2.959   5.552   7.894
   90SBC   H00C63150   2.854   5.527   7.887
   90SBC   C06F63151   3.129   5.707   7.971
   90SBC   C06E63152   3.226   5.646   7.886
   90SBC   C06G63153   3.356   5.695   7.863
   90SBC   C06H63154   3.386   5.815   7.931
   90SBC   C06I63155   3.288   5.879   8.008
   90SBC   C06L63156   3.442   5.620   7.777
   90SBC   C06M63157   3.407   5.496   7.702
   90SBC   C06K63158   3.568   5.678   7.759
   90SBC   C05S63159   3.602   5.805   7.827
   90SBC   C05U63160   3.668   5.608   7.692
   90SBC   C05X63161   3.639   5.476   7.636
   90SBC   C05G63162   3.760   5.415   7.588
   90SBC   C05F63163   3.879   5.484   7.575
   90SBC   C05E63164   3.980   5.413   7.514
   90SBC   C04863165   4.108   5.446   7.526
   90SBC   C05663166   4.204   5.355   7.490
   90SBC   C04563167   4.337   5.399   7.492
   90SBC   C04763168   4.137   5.574   7.568
   90SBC   C04963169   4.032   5.656   7.617
   90SBC   C04B63170   4.057   5.779   7.660
   90SBC   C04663171   4.266   5.611   7.567
   90SBC   C04H63172   4.291   5.739   7.610
   90SBC   C05D63173   3.939   5.282   7.504
   90SBC   C04A63174   3.905   5.610   7.621
   90SBC   C05T63175   3.798   5.670   7.689
   90SBC   C05563176   3.823   5.802   7.735
   90SBC   C06D63177   3.187   5.540   7.807
   90SBC   C07W63178   3.162   5.823   8.032
   90SBC   C08563179   2.723   5.825   8.231
   90SBC   H00M63180   2.638   5.874   8.276
   90SBC   C08463181   3.028   6.215   8.268
   90SBC   H00J63182   2.962   6.277   8.326
   90SBC   C07A63183   3.070   5.888   8.110
   90SBC   C08363184   3.150   6.274   8.244
   90SBC   H00K63185   3.170   6.374   8.279
   90SBC   O00K63186   3.402   6.383   8.200
   90SBC   C0GO63187   3.521   6.445   8.173
   90SBC   C0GN63188   3.545   6.571   8.217
   90SBC   H01L63189   3.470   6.618   8.278
   90SBC   C0GM63190   3.668   6.640   8.193
   90SBC   C0GL63191   3.685   6.764   8.228
   90SBC   H01M63192   3.604   6.824   8.268
   90SBC   O00J63193   3.810   6.824   8.216
   90SBC   C0GK63194   3.911   6.743   8.185
   90SBC   H01N63195   4.006   6.793   8.177
   90SBC   C05K63196   3.895   6.619   8.132
   90SBC   C05J63197   4.005   6.542   8.079
   90SBC   C04Y63198   4.141   6.572   8.086
   90SBC   C04X63199   4.243   6.507   8.016
   90SBC   O00663200   4.180   6.678   8.164
   90SBC   C05363201   4.309   6.731   8.171
   90SBC   C04O63202   4.416   6.656   8.110
   90SBC   C03C63203   4.555   6.674   8.122
   90SBC   C03B63204   4.645   6.759   8.191
   90SBC   C05463205   4.600   6.868   8.261
   90SBC   C0GR63206   4.689   6.959   8.329
   90SBC   C03M63207   4.836   6.964   8.344
   90SBC   C03I63208   4.935   6.878   8.283
   90SBC   C03J63209   5.072   6.887   8.324
   90SBC   N00263210   5.177   6.815   8.259
   90SBC   C02U63211   5.313   6.815   8.300
   90SBC   C02T63212   5.415   6.741   8.245
   90SBC   C02Z63213   5.545   6.746   8.293
   90SBC   N00163214   5.650   6.674   8.227
   90SBC   C02R63215   5.787   6.695   8.265
   90SBC   C03263216   5.816   6.784   8.373
   90SBC   C03163217   5.712   6.854   8.436
   90SBC   H00763218   5.724   6.928   8.513
   90SBC   C03363219   5.953   6.790   8.414
   90SBC   H00363220   5.991   6.845   8.500
   90SBC   O00463221   6.051   6.712   8.359
   90SBC   C03463222   6.020   6.628   8.255
   90SBC   C03563223   6.127   6.566   8.190
   90SBC   C03663224   6.100   6.491   8.074
   90SBC   H00563225   6.178   6.432   8.028
   90SBC   C03763226   5.970   6.469   8.033
   90SBC   H00663227   5.953   6.406   7.946
   90SBC   C00D63228   5.860   6.530   8.099
   90SBC   C00C63229   5.726   6.506   8.065
   90SBC   C00B63230   5.682   6.403   7.966
   90SBC   C00A63231   5.726   6.272   7.901
   90SBC   C00963232   5.618   6.242   7.811
   90SBC   C00863233   5.586   6.112   7.763
   90SBC   C00763234   5.678   6.011   7.775
   90SBC   C00663235   5.658   5.891   7.704
   90SBC   C00563236   5.760   5.792   7.714
   90SBC   C00463237   5.879   5.814   7.791
   90SBC   C00363238   5.894   5.936   7.855
   90SBC   C00263239   6.004   5.956   7.934
   90SBC   C01C63240   6.117   5.867   7.926
   90SBC   C01B63241   6.244   5.900   7.986
   90SBC   H00063242   6.271   5.992   8.034
   90SBC   C00163243   6.009   6.058   8.022
   90SBC   C00063244   5.912   6.164   8.013
   90SBC   C01U63245   5.908   6.211   8.148
   90SBC   H00263246   5.834   6.278   8.189
   90SBC   C01T63247   6.019   6.144   8.222
   90SBC   O00263248   6.062   6.159   8.331
   90SBC   O00163249   6.068   6.050   8.145
   90SBC   C01S63250   5.794   6.032   7.846
   90SBC   C00N63251   5.462   6.102   7.702
   90SBC   C00M63252   5.364   6.199   7.711
   90SBC   C00J63253   5.388   6.315   7.783
   90SBC   C00I63254   5.295   6.402   7.835
   90SBC   C00H63255   5.323   6.500   7.929
   90SBC   C00G63256   5.452   6.512   7.973
   90SBC   C00F63257   5.487   6.579   8.084
   90SBC   C01X63258   5.223   6.566   7.993
   90SBC   C01W63259   5.096   6.544   7.954
   90SBC   C01V63260   5.063   6.440   7.865
   90SBC   C02063261   4.929   6.398   7.849
   90SBC   C01Z63262   4.993   6.614   8.017
   90SBC   C02Y63263   4.867   6.580   7.983
   90SBC   C03963264   4.769   6.645   8.052
   90SBC   C02W63265   5.020   6.707   8.119
   90SBC   C01Y63266   5.257   6.649   8.100
   90SBC   C00U63267   5.165   6.367   7.806
   90SBC   C00S63268   5.133   6.255   7.733
   90SBC   C00T63269   4.998   6.213   7.719
   90SBC   C00R63270   5.232   6.170   7.683
   90SBC   C00Q63271   5.196   6.049   7.627
   90SBC   C00V63272   5.067   6.008   7.609
   90SBC   C02463273   5.035   5.891   7.550
   90SBC   C00X63274   5.136   5.809   7.508
   90SBC   C00P63275   5.303   5.963   7.598
   90SBC   C00O63276   5.434   5.983   7.640
   90SBC   C00K63277   5.520   6.337   7.816
   90SBC   N00063278   5.805   6.159   7.921
   90SBC   C00L63279   5.553   6.429   7.914
   90SBC   H00463280   6.229   6.570   8.223
   90SBC   C02Q63281   5.886   6.618   8.208
   90SBC   C00E63282   5.620   6.580   8.123
   90SBC   C03063283   5.578   6.837   8.399
   90SBC   O00363284   5.478   6.906   8.465
   90SBC   C02S63285   5.390   6.661   8.142
   90SBC   C03863286   5.347   6.895   8.412
   90SBC   C03L63287   5.251   6.979   8.469
   90SBC   H00863288   5.282   7.055   8.540
   90SBC   C02V63289   5.151   6.725   8.155
   90SBC   C03K63290   5.112   6.973   8.431
   90SBC   C0BK63291   5.011   7.056   8.477
   90SBC   H00T63292   5.042   7.131   8.548
   90SBC   C03H63293   4.918   6.783   8.181
   90SBC   C0BL63294   4.875   7.062   8.442
   90SBC   C0GU63295   4.793   7.159   8.494
   90SBC   H01O63296   4.836   7.236   8.557
   90SBC   C0GT63297   4.653   7.148   8.477
   90SBC   H01P63298   4.579   7.212   8.522
   90SBC   C0GS63299   4.604   7.050   8.397
   90SBC   C0GV63300   4.471   7.020   8.371
   90SBC   C0GW63301   4.346   7.090   8.414
   90SBC   H01Q63302   4.344   7.185   8.465
   90SBC   C0GX63303   4.233   7.034   8.378
   90SBC   H01R63304   4.143   7.092   8.389
   90SBC   O00L63305   4.223   6.909   8.313
   90SBC   C0GQ63306   4.461   6.901   8.290
   90SBC   C03A63307   4.782   6.745   8.152
   90SBC   C05L63308   4.333   6.848   8.257
   90SBC   C04W63309   3.977   6.419   8.015
   90SBC   C05I63310   3.849   6.366   8.026
   90SBC   C05O63311   3.741   6.432   8.080
   90SBC   C05263312   3.818   6.241   7.974
   90SBC   C04V63313   4.078   6.343   7.949
   90SBC   C04U63314   4.049   6.223   7.884
   90SBC   N00963315   3.768   6.560   8.129
   90SBC   C0GP63316   3.617   6.376   8.099
   90SBC   C05W63317   3.599   6.245   8.066
   90SBC   C07D63318   3.319   6.003   8.065
   90SBC   C06J63319   3.510   5.869   7.911
   90SBC   C05P63320   3.695   6.181   7.989
   90SBC   C05R63321   3.728   5.863   7.812
   90SBC   C04Z63322   3.915   6.172   7.898
   90SBC   C04C63323   3.953   5.855   7.717
   90SBC   C04G63324   4.186   5.823   7.656
   90SBC   C04J63325   4.444   5.913   7.645
   90SBC   C04T63326   4.147   6.148   7.821
   90SBC   N00363327   4.211   6.383   7.951
   90SBC   C04P63328   4.377   6.545   8.024
   90SBC   C03D63329   4.637   6.602   8.041
   90SBC   C02163330   4.827   6.475   7.902
   90SBC   C03F63331   4.535   6.277   7.822
   90SBC   C02263332   4.897   6.290   7.774
   90SBC   C02A63333   4.607   6.083   7.699
   90SBC   C02363334   4.966   6.094   7.658
   90SBC   C02563335   4.904   5.846   7.546
   90SBC   C02D63336   4.879   5.717   7.502
   90SBC   C02E63337   4.981   5.628   7.471
   90SBC   C02N63338   4.961   5.489   7.449
   90SBC   C04N63339   4.578   5.956   7.645
   90SBC   C02P63340   4.751   5.663   7.508
   90SBC   C04I63341   4.418   5.786   7.600
   90SBC   C04463342   4.367   5.528   7.528
   90SBC   C04363343   4.728   5.527   7.479
   90SBC   C05N63344   4.835   5.436   7.454
   90SBC   C09U63345   4.747   5.024   7.408
   90SBC   C09V63346   4.714   4.888   7.407
   90SBC   C09X63347   4.800   4.792   7.364
   90SBC   C09Y63348   4.785   4.650   7.372
   90SBC   C0A163349   4.663   4.611   7.421
   90SBC   C0A263350   4.561   4.710   7.439
   90SBC   C0A463351   4.435   4.667   7.473
   90SBC   C07163352   4.331   4.761   7.481
   90SBC   C0A563353   4.200   4.720   7.509
   90SBC   C0A963354   4.175   4.584   7.521
   90SBC   C0A863355   4.277   4.496   7.520
   90SBC   C0AP63356   4.252   4.358   7.527
   90SBC   C0BY63357   4.358   4.270   7.527
   90SBC   C0BX63358   4.488   4.306   7.509
   90SBC   C0C263359   4.587   4.209   7.486
   90SBC   C0C363360   4.718   4.246   7.459
   90SBC   C0CT63361   4.744   4.385   7.437
   90SBC   C0C163362   4.555   4.074   7.474
   90SBC   C0C063363   4.414   4.043   7.461
   90SBC   C0A763364   4.513   4.440   7.486
   90SBC   C0BZ63365   4.324   4.134   7.504
   90SBC   C0BO63366   4.196   4.101   7.473
   90SBC   C0BN63367   4.090   4.184   7.496
   90SBC   C0BM63368   3.971   4.140   7.450
   90SBC   C0B963369   3.861   4.227   7.469
   90SBC   C0B863370   3.886   4.357   7.507
   90SBC   C0AD63371   4.018   4.403   7.518
   90SBC   C0AF63372   3.780   4.442   7.509
   90SBC   C0AG63373   3.649   4.407   7.483
   90SBC   C0B763374   3.627   4.277   7.450
   90SBC   C0AE63375   3.810   4.574   7.530
   90SBC   C0AB63376   3.939   4.626   7.525
   90SBC   C0AA63377   3.962   4.762   7.516
   90SBC   C0AJ63378   3.705   4.663   7.510
   90SBC   C0AK63379   3.728   4.794   7.510
   90SBC   C06W63380   3.615   4.856   7.496
   90SBC   C0AI63381   3.571   4.633   7.503
   90SBC   C0BP63382   4.191   3.979   7.405
   90SBC   C0BQ63383   4.069   3.936   7.348
   90SBC   C0BW63384   4.123   4.313   7.527
   90SBC   C0AC63385   4.047   4.539   7.523
   90SBC   C0A663386   4.408   4.534   7.495
   90SBC   C0A363387   4.638   4.475   7.448
   90SBC   C09Z63388   4.886   4.557   7.352
   90SBC   C09W63389   4.584   4.845   7.436
   90SBC   C07263390   4.485   4.941   7.456
   90SBC   C09H63391   4.918   4.835   7.312
   90SBC   C09G63392   5.016   4.737   7.281
   90SBC   C09P63393   5.133   4.813   7.288
   90SBC   C02O63394   5.171   5.182   7.392
   90SBC   C02M63395   5.067   5.401   7.432
   90SBC   C02F63396   5.111   5.678   7.471
   90SBC   C00W63397   5.267   5.848   7.541
   90SBC   C01R63398   5.535   5.881   7.638
   90SBC   C01N63399   5.441   5.558   7.507
   90SBC   C01L63400   5.576   5.358   7.542
   90SBC   C01H63401   5.908   5.315   7.663
   90SBC   C01K63402   5.748   5.652   7.678
   90SBC   C01E63403   5.983   5.714   7.801
   90SBC   C01G63404   6.037   5.344   7.734
   90SBC   C01D63405   6.099   5.746   7.867
   90SBC   C01A63406   6.350   5.806   7.976
   90SBC   H00163407   6.446   5.829   8.020
   90SBC   C01F63408   6.273   5.421   7.858
   90SBC   C03P63409   6.474   5.232   7.927
   90SBC   C03T63410   6.345   5.060   7.832
   90SBC   C08I63411   6.283   4.795   7.751
   90SBC   C08J63412   6.241   4.666   7.716
   90SBC   C08L63413   6.073   4.511   7.632
   90SBC   C09363414   5.884   4.359   7.546
   90SBC   C08Z63415   5.756   4.598   7.462
   90SBC   C09T63416   5.454   4.219   7.410
   90SBC   C09S63417   5.488   4.568   7.314
   90SBC   C09Q63418   5.255   4.742   7.287
   90SBC   C09F63419   5.013   4.599   7.309
   90SBC   C09E63420   5.244   4.325   7.356
   90SBC   C0A063421   4.869   4.423   7.390
   90SBC   C0CU63422   4.822   4.154   7.454
   90SBC   C0CR63423   4.790   4.016   7.457
   90SBC   C0CZ63424   4.893   3.918   7.470
   90SBC   C0DA63425   5.303   4.207   7.405
   90SBC   C0D963426   5.329   3.881   7.354
   90SBC   H00V63427   5.410   3.926   7.299
   90SBC   C0CY63428   5.022   3.968   7.475
   90SBC   C0DF63429   5.265   3.755   7.342
   90SBC   C0DE63430   5.256   3.639   7.263
   90SBC   C0GI63431   5.357   3.564   7.196
   90SBC   H01K63432   5.458   3.600   7.182
   90SBC   C0GJ63433   5.310   3.451   7.142
   90SBC   H01J63434   5.380   3.390   7.087
   90SBC   O00I63435   5.185   3.404   7.151
   90SBC   C0GH63436   5.081   3.474   7.208
   90SBC   C0GG63437   4.946   3.438   7.187
   90SBC   O00G63438   4.932   3.338   7.094
   90SBC   C0G863439   4.813   3.298   7.050
   90SBC   C0G963440   4.831   3.189   6.966
   90SBC   H01G63441   4.919   3.132   6.940
   90SBC   C0GA63442   4.710   3.144   6.910
   90SBC   H01H63443   4.710   3.059   6.844
   90SBC   C0GB63444   4.582   3.209   6.923
   90SBC   C0EP63445   4.574   3.322   7.015
   90SBC   C0E863446   4.446   3.389   7.022
   90SBC   C0CK63447   4.390   3.496   7.098
   90SBC   C0CL63448   4.447   3.525   7.221
   90SBC   C0E963449   4.582   3.503   7.267
   90SBC   C0GE63450   4.701   3.451   7.200
   90SBC   C0E763451   4.338   3.353   6.946
   90SBC   C0CJ63452   4.220   3.428   6.967
   90SBC   C0E663453   4.111   3.387   6.891
   90SBC   H00Y63454   4.009   3.420   6.896
   90SBC   C0EO63455   4.126   3.286   6.791
   90SBC   H01163456   4.041   3.257   6.731
   90SBC   C0G663457   4.246   3.213   6.773
   90SBC   C0G563458   4.266   3.102   6.681
   90SBC   H01F63459   4.187   3.076   6.612
   90SBC   C0GD63460   4.378   3.034   6.683
   90SBC   H01I63461   4.387   2.946   6.620
   90SBC   O00H63462   4.476   3.054   6.769
   90SBC   C0EQ63463   4.353   3.249   6.857
   90SBC   C0GC63464   4.469   3.167   6.850
   90SBC   C0G763465   4.693   3.361   7.089
   90SBC   C0DD63466   5.123   3.583   7.281
   90SBC   C0GF63467   4.833   3.490   7.252
   90SBC   C0CO63468   4.590   3.577   7.386
   90SBC   C0D063469   4.851   3.781   7.465
   90SBC   C0C463470   4.654   3.972   7.466
   90SBC   C0CN63471   4.468   3.637   7.424
   90SBC   C0CP63472   4.327   3.942   7.402
   90SBC   C0CM63473   4.377   3.603   7.320
   90SBC   C0CI63474   4.251   3.536   7.063
   90SBC   C0CD63475   3.796   3.704   7.039
   90SBC   C0BR63476   4.064   3.825   7.260
   90SBC   C0CS63477   3.960   4.021   7.379
   90SBC   C0B663478   3.738   4.189   7.428
   90SBC   C0CG63479   3.700   3.852   7.199
   90SBC   C0CF63480   3.684   3.753   7.104
   90SBC   C0E563481   3.663   3.581   6.888
   90SBC   C0DT63482   3.419   3.466   6.838
   90SBC   C0DL63483   3.325   3.709   7.096
   90SBC   C0DM63484   3.215   3.771   7.139
   90SBC   C0DY63485   3.076   3.603   7.030
   90SBC   C0DU63486   3.302   3.408   6.821
   90SBC   C0F063487   3.156   3.281   6.670
   90SBC   C0F463488   2.917   3.235   6.550
   90SBC   C0FG63489   2.830   3.372   6.882
   90SBC   O00B63490   2.676   3.292   6.556
   90SBC   C0FN63491   2.711   3.436   6.904
   90SBC   C0DZ63492   2.950   3.552   7.002
   90SBC   O00C63493   2.741   3.821   7.122
   90SBC   C0FR63494   2.742   3.939   7.185
   90SBC   O00D63495   2.633   3.983   7.211
   90SBC   C0E063496   3.089   3.718   7.104
   90SBC   C0E363497   2.871   3.990   7.226
   90SBC   C0AW63498   2.882   4.116   7.286
   90SBC   C0AV63499   2.779   4.209   7.318
   90SBC   H00Q63500   2.680   4.185   7.281
   90SBC   C0AU63501   2.802   4.336   7.382
   90SBC   H00R63502   2.721   4.407   7.390
   90SBC   C0AT63503   2.934   4.374   7.403
   90SBC   C0AS63504   3.013   4.496   7.452
   90SBC   C0AR63505   2.947   4.623   7.462
   90SBC   C0BE63506   3.033   4.284   7.378
   90SBC   C0DN63507   3.228   3.883   7.211
   90SBC   C0AX63508   3.014   4.154   7.317
   90SBC   C0BB63509   3.367   4.057   7.313
   90SBC   C0BD63510   3.162   4.331   7.411
   90SBC   C0B263511   3.505   4.236   7.413
   90SBC   C0AH63512   3.535   4.494   7.484
   90SBC   C0BF63513   3.155   4.469   7.451
   90SBC   C0AL63514   3.505   4.764   7.509
   90SBC   C07U63515   3.154   4.773   7.523
   90SBC   C0AQ63516   3.014   4.742   7.507
   90SBC   C0BG63517   2.806   4.654   7.441
   90SBC   C0FY63518   2.683   4.987   7.395
   90SBC   C0BJ63519   2.748   4.658   7.309
   90SBC   H00S63520   2.779   4.598   7.225
   90SBC   C0FZ63521   2.640   4.985   7.263
   90SBC   C07S63522   2.760   5.090   7.442
   90SBC   C0G163523   2.667   5.331   7.174
   90SBC   C07K63524   2.806   5.571   7.424
   90SBC   C07H63525   2.904   5.325   7.525
   90SBC   C06B63526   3.055   5.499   7.805
   90SBC   C06N63527   3.265   5.466   7.719
   90SBC   C06663528   3.092   5.151   7.568
   90SBC   C06263529   3.385   5.059   7.531
   90SBC   C05Y63530   3.506   5.418   7.637
   90SBC   C06163531   3.513   5.081   7.467
   90SBC   C05H63532   3.797   5.289   7.536
   90SBC   C06V63533   3.624   4.995   7.480
   90SBC   C06Y63534   3.862   4.852   7.509
   90SBC   C05C63535   4.044   5.181   7.481
   90SBC   C06Z63536   4.092   4.812   7.508
   90SBC   C07063537   4.353   4.900   7.472
   90SBC   C05B63538   4.177   5.220   7.478
   90SBC   C05763539   4.439   5.303   7.474
   90SBC   C05963540   4.516   5.077   7.439
   91SBC   C05863541   7.359   7.474  11.284
   91SBC   C05A63542   7.285   7.448  11.404
   91SBC   C06Q63543   7.335   7.357  11.498
   91SBC   C06R63544   7.261   7.327  11.611
   91SBC   C06S63545   7.141   7.398  11.645
   91SBC   C06T63546   7.070   7.352  11.757
   91SBC   C06U63547   6.949   7.407  11.817
   91SBC   C06X63548   6.851   7.504  11.780
   91SBC   C06063549   6.753   7.524  11.883
   91SBC   C05Z63550   6.611   7.562  11.879
   91SBC   C06863551   6.548   7.486  11.995
   91SBC   C06763552   6.414   7.501  12.063
   91SBC   C06963553   6.330   7.609  12.020
   91SBC   C06A63554   6.203   7.649  12.087
   91SBC   C07363555   6.093   7.575  12.134
   91SBC   C07P63556   5.959   7.604  12.092
   91SBC   C07O63557   5.918   7.655  11.966
   91SBC   H00D63558   5.990   7.662  11.885
   91SBC   C07N63559   5.788   7.703  11.930
   91SBC   H00E63560   5.764   7.725  11.828
   91SBC   C07M63561   5.698   7.696  12.038
   91SBC   H00F63562   5.597   7.732  12.026
   91SBC   C07L63563   5.723   7.631  12.156
   91SBC   C07Q63564   5.625   7.616  12.262
   91SBC   H00G63565   5.532   7.671  12.255
   91SBC   O00F63566   5.642   7.540  12.372
   91SBC   C07J63567   5.773   7.491  12.390
   91SBC   C07I63568   5.878   7.517  12.295
   91SBC   N00463569   6.009   7.463  12.321
   91SBC   C07R63570   6.025   7.393  12.445
   91SBC   C07T63571   5.921   7.366  12.528
   91SBC   C0FX63572   5.932   7.288  12.642
   91SBC   C0FW63573   5.828   7.252  12.722
   91SBC   C0G063574   5.707   7.317  12.701
   91SBC   C0G263575   5.608   7.305  12.808
   91SBC   H01E63576   5.518   7.365  12.799
   91SBC   C0G363577   5.623   7.211  12.911
   91SBC   H01C63578   5.552   7.212  12.993
   91SBC   C0G463579   5.743   7.133  12.911
   91SBC   H01D63580   5.758   7.058  12.988
   91SBC   O00E63581   5.690   7.405  12.598
   91SBC   C0FV63582   5.846   7.150  12.818
   91SBC   C0FU63583   5.977   7.085  12.827
   91SBC   H01B63584   5.976   7.013  12.907
   91SBC   C0FT63585   6.087   7.132  12.759
   91SBC   C0FS63586   6.225   7.104  12.732
   91SBC   C0BI63587   6.275   7.216  12.661
   91SBC   C0BH63588   6.403   7.201  12.612
   91SBC   C07F63589   6.434   7.208  12.475
   91SBC   C07E63590   6.384   7.303  12.380
   91SBC   C07G63591   6.261   7.363  12.384
   91SBC   C07463592   6.250   7.422  12.259
   91SBC   C06563593   6.444   7.317  12.256
   91SBC   C06463594   6.566   7.241  12.238
   91SBC   C06363595   6.659   7.266  12.139
   91SBC   C07563596   6.767   7.166  12.170
   91SBC   C0AM63597   6.737   7.076  12.284
   91SBC   C0AN63598   6.812   6.965  12.349
   91SBC   C0AO63599   6.940   6.900  12.306
   91SBC   C0B163600   6.995   6.788  12.381
   91SBC   C0B063601   6.928   6.728  12.482
   91SBC   C0AZ63602   6.968   6.616  12.555
   91SBC   C0AY63603   6.894   6.571  12.662
   91SBC   N00763604   6.935   6.459  12.735
   91SBC   C0E263605   6.859   6.417  12.851
   91SBC   C0E163606   6.906   6.304  12.918
   91SBC   C0E463607   6.833   6.264  13.027
   91SBC   C0FF63608   6.867   6.150  13.104
   91SBC   C0FJ63609   6.796   6.070  13.209
   91SBC   C0FK63610   6.655   6.032  13.206
   91SBC   H01663611   6.582   6.084  13.145
   91SBC   C0FL63612   6.644   5.904  13.274
   91SBC   H01763613   6.563   5.833  13.275
   91SBC   C0FM63614   6.778   5.865  13.317
   91SBC   C0FH63615   6.865   5.748  13.346
   91SBC   C0FI63616   6.990   5.803  13.292
   91SBC   C0F363617   7.087   5.720  13.234
   91SBC   C0F263618   7.179   5.785  13.155
   91SBC   C0DW63619   7.161   5.911  13.105
   91SBC   C0FE63620   7.049   5.984  13.145
   91SBC   C0DV63621   7.233   5.953  12.997
   91SBC   C0DX63622   7.192   6.069  12.927
   91SBC   C0DK63623   7.256   6.101  12.806
   91SBC   C0DJ63624   7.352   6.021  12.754
   91SBC   C0DI63625   7.414   6.059  12.633
   91SBC   C0DH63626   7.385   6.180  12.570
   91SBC   C0DG63627   7.280   6.259  12.621
   91SBC   C0BV63628   7.241   6.368  12.552
   91SBC   C0BC63629   7.123   6.439  12.590
   91SBC   C0BA63630   7.315   6.415  12.445
   91SBC   C0B463631   7.277   6.533  12.376
   91SBC   C0B363632   7.159   6.601  12.414
   91SBC   C0B563633   7.353   6.587  12.273
   91SBC   C0BU63634   7.474   6.514  12.247
   91SBC   C0BT63635   7.509   6.395  12.305
   91SBC   C0BS63636   7.622   6.327  12.260
   91SBC   C0CC63637   7.648   6.203  12.319
   91SBC   C0CB63638   7.758   6.128  12.280
   91SBC   C0CH63639   7.747   5.989  12.307
   91SBC   C0DO63640   7.669   5.934  12.413
   91SBC   C0DP63641   7.683   5.805  12.456
   91SBC   C0EA63642   7.783   5.714  12.389
   91SBC   H01263643   7.844   5.756  12.310
   91SBC   O00963644   7.801   5.585  12.431
   91SBC   C0EH63645   7.715   5.543  12.532
   91SBC   C0EG63646   7.724   5.414  12.573
   91SBC   C0EJ63647   7.800   5.302  12.529
   91SBC   H01063648   7.869   5.307  12.447
   91SBC   C0EK63649   7.757   5.183  12.597
   91SBC   H00Z63650   7.787   5.081  12.579
   91SBC   C0EL63651   7.660   5.228  12.690
   91SBC   C0EM63652   7.577   5.152  12.778
   91SBC   C0EW63653   7.578   5.011  12.804
   91SBC   H01363654   7.645   4.945  12.751
   91SBC   C0EX63655   7.492   4.960  12.907
   91SBC   H01463656   7.494   4.853  12.921
   91SBC   C0F163657   7.398   5.046  12.983
   91SBC   C0EU63658   7.399   5.179  12.947
   91SBC   C0ET63659   7.319   5.279  13.006
   91SBC   C0ES63660   7.356   5.400  12.935
   91SBC   C0EE63661   7.461   5.369  12.839
   91SBC   C0ED63662   7.551   5.439  12.750
   91SBC   C0EC63663   7.545   5.574  12.717
   91SBC   C0EB63664   7.464   5.670  12.780
   91SBC   C0EN63665   7.394   5.634  12.908
   91SBC   C0ER63666   7.346   5.741  12.984
   91SBC   C0DS63667   7.466   5.804  12.748
   91SBC   C0DR63668   7.524   5.847  12.628
   91SBC   C0EY63669   7.355   5.523  12.991
   91SBC   C0EZ63670   7.270   5.559  13.096
   91SBC   C0F563671   7.165   5.488  13.174
   91SBC   C0F663672   7.151   5.349  13.176
   91SBC   N00863673   7.027   5.302  13.240
   91SBC   C0F763674   6.928   5.391  13.290
   91SBC   C0FQ63675   6.811   5.326  13.340
   91SBC   H01863676   6.743   5.396  13.386
   91SBC   C0FP63677   6.789   5.188  13.342
   91SBC   H01963678   6.698   5.146  13.382
   91SBC   C0FO63679   6.890   5.110  13.295
   91SBC   H01A63680   6.888   5.002  13.298
   91SBC   C0F863681   6.956   5.532  13.293
   91SBC   C0F963682   7.012   5.162  13.256
   91SBC   C0FA63683   7.111   5.069  13.222
   91SBC   H01563684   7.100   4.963  13.239
   91SBC   C0FB63685   7.216   5.110  13.136
   91SBC   C0FD63686   7.229   5.245  13.113
   91SBC   C0FC63687   7.303   5.005  13.085
   91SBC   O00A63688   7.296   4.883  13.115
   91SBC   C0EV63689   7.482   5.230  12.850
   91SBC   C0EF63690   7.643   5.367  12.674
   91SBC   C0EI63691   7.623   5.625  12.612
   91SBC   C0DQ63692   7.611   5.762  12.567
   91SBC   C0CE63693   7.581   6.021  12.467
   91SBC   H00U63694   7.826   5.935  12.257
   91SBC   C0CA63695   7.865   6.193  12.224
   91SBC   C0C963696   7.847   6.324  12.162
   91SBC   C0C863697   7.965   6.386  12.114
   91SBC   C0C763698   7.988   6.492  12.012
   91SBC   C0C663699   8.122   6.522  11.975
   91SBC   C0C563700   8.189   6.571  11.853
   91SBC   C0CQ63701   8.316   6.513  11.825
   91SBC   C0D163702   8.362   6.403  11.894
   91SBC   C0D863703   8.436   6.318  11.807
   91SBC   C0D763704   8.478   6.402  11.702
   91SBC   C0D663705   8.538   6.356  11.581
   91SBC   C0D563706   8.573   6.449  11.475
   91SBC   C0D463707   8.523   6.576  11.439
   91SBC   C0D363708   8.529   6.581  11.293
   91SBC   C0CX63709   8.421   6.675  11.249
   91SBC   C0CW63710   8.336   6.700  11.368
   91SBC   C0CV63711   8.226   6.789  11.404
   91SBC   C0D263712   8.184   6.893  11.319
   91SBC   C09D63713   8.255   6.951  11.212
   91SBC   C09C63714   8.217   7.073  11.143
   91SBC   C09B63715   8.273   7.130  11.029
   91SBC   C09A63716   8.392   7.066  10.984
   91SBC   C09963717   8.450   6.966  11.055
   91SBC   C09863718   8.536   6.894  10.973
   91SBC   C08Y63719   8.512   6.942  10.834
   91SBC   C08X63720   8.547   6.871  10.714
   91SBC   C08W63721   8.637   6.753  10.719
   91SBC   C08U63722   8.669   6.665  10.835
   91SBC   C08V63723   8.623   6.667  10.970
   91SBC   C0DC63724   8.728   6.596  11.043
   91SBC   H00W63725   8.736   6.589  11.150
   91SBC   C0DB63726   8.819   6.535  10.946
   91SBC   H00X63727   8.903   6.476  10.980
   91SBC   C08T63728   8.779   6.581  10.817
   91SBC   C08S63729   8.844   6.555  10.694
   91SBC   H00N63730   8.929   6.489  10.693
   91SBC   C08R63731   8.791   6.609  10.578
   91SBC   C08Q63732   8.839   6.582  10.449
   91SBC   H00O63733   8.928   6.520  10.447
   91SBC   C08P63734   8.793   6.634  10.328
   91SBC   C08O63735   8.847   6.609  10.198
   91SBC   H00P63736   8.929   6.542  10.179
   91SBC   C08N63737   8.780   6.659  10.082
   91SBC   C08M63738   8.834   6.623   9.948
   91SBC   O00863739   8.946   6.570   9.910
   91SBC   O00763740   8.762   6.681   9.842
   91SBC   C08H63741   8.639   6.748   9.852
   91SBC   C08G63742   8.570   6.801   9.735
   91SBC   C03V63743   8.610   6.802   9.599
   91SBC   H00963744   8.704   6.757   9.573
   91SBC   C03U63745   8.540   6.856   9.497
   91SBC   C03W63746   8.564   6.848   9.356
   91SBC   H00A63747   8.659   6.815   9.319
   91SBC   C03X63748   8.477   6.892   9.270
   91SBC   H00B63749   8.506   6.896   9.166
   91SBC   O00563750   8.350   6.938   9.297
   91SBC   C03O63751   8.330   6.958   9.436
   91SBC   C03N63752   8.206   7.009   9.472
   91SBC   O00063753   8.130   7.055   9.372
   91SBC   C01963754   8.007   7.103   9.400
   91SBC   C01863755   7.969   7.150   9.529
   91SBC   C01763756   8.062   7.122   9.633
   91SBC   C01663757   8.039   7.165   9.762
   91SBC   C01563758   7.927   7.241   9.776
   91SBC   C01463759   7.907   7.289   9.904
   91SBC   C01363760   7.984   7.265  10.019
   91SBC   C01263761   7.925   7.345  10.124
   91SBC   C01163762   7.825   7.422  10.054
   91SBC   C01063763   7.753   7.517  10.117
   91SBC   C00Z63764   7.640   7.582  10.083
   91SBC   C00Y63765   7.602   7.643  10.205
   91SBC   C01O63766   7.693   7.628  10.309
   91SBC   C01P63767   7.648   7.631  10.437
   91SBC   C02L63768   7.723   7.559  10.525
   91SBC   C02K63769   7.839   7.498  10.474
   91SBC   C01M63770   7.860   7.464  10.334
   91SBC   C02J63771   7.920   7.447  10.583
   91SBC   C02I63772   8.047   7.391  10.570
   91SBC   C02H63773   8.116   7.346  10.450
   91SBC   C01Q63774   8.068   7.326  10.315
   91SBC   C02G63775   8.161   7.242  10.248
   91SBC   C08963776   8.269   7.227  10.336
   91SBC   C08863777   8.327   7.105  10.305
   91SBC   C08763778   8.274   7.072  10.173
   91SBC   C08663779   8.336   6.980  10.084
   91SBC   C03S63780   8.320   6.978   9.942
   91SBC   N00663781   8.424   6.905   9.894
   91SBC   C08F63782   8.491   6.844   9.994
   91SBC   C01J63783   8.237   7.042   9.847
   91SBC   C03R63784   8.265   7.013   9.708
   91SBC   C03Q63785   8.384   6.943   9.669
   91SBC   C08E63786   8.444   6.892  10.113
   91SBC   C08D63787   8.509   6.862  10.234
   91SBC   C08K63788   8.619   6.771  10.227
   91SBC   C08C63789   8.485   6.912  10.361
   91SBC   C09163790   8.540   6.852  10.472
   91SBC   C09263791   8.640   6.753  10.472
   91SBC   C08B63792   8.405   7.019  10.399
   91SBC   C09063793   8.420   7.031  10.544
   91SBC   C09463794   8.382   7.149  10.624
   91SBC   C09563795   8.368   7.150  10.764
   91SBC   C09R63796   8.271   7.237  10.809
   91SBC   C09763797   8.213   7.295  10.699
   91SBC   C09663798   8.285   7.247  10.588
   91SBC   C01I63799   8.169   7.165  10.131
   91SBC   C08A63800   8.232   7.274  10.464
   91SBC   C09L63801   8.094   7.371  10.693
   91SBC   C09K63802   8.001   7.424  10.794
   91SBC   C09J63803   7.995   7.363  10.919
   91SBC   C09I63804   7.883   7.354  11.001
   91SBC   C09O63805   7.744   7.401  11.001
   91SBC   C09N63806   7.692   7.483  10.895
   91SBC   C09M63807   7.747   7.502  10.763
   91SBC   C06O63808   7.562   7.535  10.917
   91SBC   C05M63809   7.498   7.517  11.040
   91SBC   C06P63810   7.549   7.432  11.138
   91SBC   C04263811   7.374   7.576  11.064
   91SBC   C04163812   7.314   7.655  10.964
   91SBC   C04063813   7.191   7.721  10.993
   91SBC   C03Z63814   7.122   7.793  10.893
   91SBC   C03Y63815   7.179   7.804  10.765
   91SBC   C02763816   7.102   7.849  10.660
   91SBC   C02663817   7.147   7.840  10.534
   91SBC   C02863818   7.063   7.872  10.426
   91SBC   C02963819   6.936   7.909  10.446
   91SBC   C02B63820   6.855   7.931  10.330
   91SBC   C02C63821   6.717   7.967  10.354
   91SBC   C02X63822   6.632   7.986  10.244
   91SBC   C03E63823   6.501   8.019  10.275
   91SBC   C03G63824   6.446   8.031  10.399
   91SBC   C04Q63825   6.537   8.018  10.500
   91SBC   C04R63826   6.488   8.028  10.629
   91SBC   C04S63827   6.568   7.999  10.743
   91SBC   C04L63828   6.704   7.966  10.723
   91SBC   C04M63829   6.755   7.961  10.590
   91SBC   C04K63830   6.785   7.927  10.829
   91SBC   C04F63831   6.724   7.919  10.953
   91SBC   C04E63832   6.593   7.960  10.975
   91SBC   C04D63833   6.540   7.956  11.100
   91SBC   C05063834   6.416   8.010  11.126
   91SBC   C05163835   6.369   8.009  11.259
   91SBC   C05Q63836   6.247   8.068  11.283
   91SBC   C05V63837   6.196   8.063  11.412
   91SBC   N00563838   6.069   8.119  11.434
   91SBC   C07V63839   5.996   8.175  11.330
   91SBC   C08263840   5.873   8.230  11.357
   91SBC   C08163841   5.816   8.235  11.479
   91SBC   C07C63842   5.884   8.181  11.587
   91SBC   C07B63843   5.828   8.176  11.715
   91SBC   C08063844   5.699   8.219  11.739
   91SBC   C07Z63845   5.642   8.203  11.868
   91SBC   H00L63846   5.545   8.249  11.883
   91SBC   C07963847   5.700   8.141  11.967
   91SBC   C07863848   5.833   8.088  11.939
   91SBC   C07763849   5.900   8.025  12.043
   91SBC   C07X63850   5.843   8.014  12.171
   91SBC   H00I63851   5.897   7.969  12.253
   91SBC   C07Y63852   5.711   8.059  12.190
   91SBC   H00H63853   5.654   8.051  12.282
   91SBC   C07663854   6.022   7.959  12.015
   91SBC   C06C63855   6.076   7.864  12.099
   91SBC   H00C63856   6.024   7.840  12.191
   91SBC   C06F63857   6.082   7.976  11.889
   91SBC   C06E63858   6.202   7.915  11.857
   91SBC   C06G63859   6.269   7.919  11.739
   91SBC   C06H63860   6.208   8.000  11.642
   91SBC   C06I63861   6.087   8.068  11.665
   91SBC   C06L63862   6.381   7.834  11.713
   91SBC   C06M63863   6.434   7.736  11.806
   91SBC   C06K63864   6.442   7.850  11.592
   91SBC   C05S63865   6.379   7.927  11.489
   91SBC   C05U63866   6.565   7.792  11.561
   91SBC   C05X63867   6.629   7.703  11.660
   91SBC   C05G63868   6.754   7.654  11.610
   91SBC   C05F63869   6.809   7.703  11.492
   91SBC   C05E63870   6.931   7.640  11.465
   91SBC   C04863871   7.001   7.665  11.348
   91SBC   C05663872   7.118   7.594  11.327
   91SBC   C04563873   7.186   7.619  11.208
   91SBC   C04763874   6.931   7.735  11.251
   91SBC   C04963875   6.808   7.790  11.280
   91SBC   C04B63876   6.737   7.853  11.181
   91SBC   C04663877   6.996   7.756  11.133
   91SBC   C04H63878   6.930   7.819  11.033
   91SBC   C05D63879   6.970   7.553  11.567
   91SBC   C04A63880   6.748   7.785  11.403
   91SBC   C05T63881   6.621   7.818  11.429
   91SBC   C05563882   6.555   7.890  11.332
   91SBC   C06D63883   6.250   7.819  11.942
   91SBC   C07W63884   6.016   8.048  11.788
   91SBC   C08563885   5.646   8.125  12.093
   91SBC   H00M63886   5.542   8.154  12.107
   91SBC   C08463887   5.636   8.289  11.635
   91SBC   H00J63888   5.535   8.328  11.638
   91SBC   C07A63889   5.891   8.105  11.813
   91SBC   C08363890   5.696   8.294  11.510
   91SBC   H00K63891   5.648   8.356  11.436
   91SBC   O00K63892   5.802   8.273  11.253
   91SBC   C0GO63893   5.837   8.244  11.127
   91SBC   C0GN63894   5.750   8.270  11.024
   91SBC   H01L63895   5.659   8.321  11.052
   91SBC   C0GM63896   5.785   8.244  10.890
   91SBC   C0GL63897   5.699   8.279  10.793
   91SBC   H01M63898   5.601   8.312  10.824
   91SBC   O00J63899   5.734   8.271  10.655
   91SBC   C0GK63900   5.860   8.220  10.630
   91SBC   H01N63901   5.895   8.215  10.528
   91SBC   C05K63902   5.954   8.184  10.732
   91SBC   C05J63903   6.083   8.144  10.697
   91SBC   C04Y63904   6.128   8.095  10.568
   91SBC   C04X63905   6.261   8.064  10.542
   91SBC   O00663906   6.037   8.076  10.468
   91SBC   C05363907   6.076   8.042  10.337
   91SBC   C04O63908   6.216   8.031  10.305
   91SBC   C03C63909   6.276   8.012  10.175
   91SBC   C03B63910   6.231   7.973  10.043
   91SBC   C05463911   6.103   7.938  10.017
   91SBC   C0GR63912   6.057   7.875   9.897
   91SBC   C03M63913   6.121   7.820   9.774
   91SBC   C03I63914   6.267   7.807   9.750
   91SBC   C03J63915   6.312   7.742   9.634
   91SBC   N00263916   6.453   7.723   9.603
   91SBC   C02U63917   6.492   7.646   9.492
   91SBC   C02T63918   6.628   7.620   9.464
   91SBC   C02Z63919   6.660   7.532   9.364
   91SBC   N00163920   6.791   7.487   9.349
   91SBC   C02R63921   6.825   7.390   9.244
   91SBC   C03263922   6.727   7.351   9.155
   91SBC   C03163923   6.598   7.413   9.166
   91SBC   H00763924   6.516   7.397   9.098
   91SBC   C03363925   6.765   7.248   9.061
   91SBC   H00363926   6.689   7.229   8.985
   91SBC   O00463927   6.880   7.167   9.069
   91SBC   C03463928   6.973   7.213   9.162
   91SBC   C03563929   7.085   7.131   9.177
   91SBC   C03663930   7.181   7.159   9.274
   91SBC   H00563931   7.271   7.103   9.289
   91SBC   C03763932   7.155   7.272   9.359
   91SBC   H00663933   7.212   7.274   9.450
   91SBC   C00D63934   7.050   7.365   9.336
   91SBC   C00C63935   7.027   7.479   9.415
   91SBC   C00B63936   7.129   7.531   9.508
   91SBC   C00A63937   7.264   7.505   9.563
   91SBC   C00963938   7.280   7.586   9.673
   91SBC   C00863939   7.373   7.580   9.780
   91SBC   C00763940   7.481   7.496   9.754
   91SBC   C00663941   7.585   7.499   9.852
   91SBC   C00563942   7.696   7.415   9.824
   91SBC   C00463943   7.718   7.347   9.702
   91SBC   C00363944   7.614   7.362   9.604
   91SBC   C00263945   7.636   7.316   9.473
   91SBC   C01C63946   7.759   7.245   9.446
   91SBC   C01B63947   7.791   7.182   9.320
   91SBC   H00063948   7.721   7.177   9.238
   91SBC   C00163949   7.545   7.338   9.372
   91SBC   C00063950   7.430   7.413   9.403
   91SBC   C01U63951   7.367   7.433   9.279
   91SBC   H00263952   7.265   7.467   9.266
   91SBC   C01T63953   7.449   7.358   9.173
   91SBC   O00263954   7.428   7.343   9.052
   91SBC   O00163955   7.556   7.315   9.240
   91SBC   C01S63956   7.493   7.431   9.634
   91SBC   C00N63957   7.347   7.656   9.892
   91SBC   C00M63958   7.228   7.727   9.912
   91SBC   C00J63959   7.138   7.730   9.816
   91SBC   C00I63960   7.009   7.779   9.825
   91SBC   C00H63961   6.913   7.759   9.721
   91SBC   C00G63962   6.945   7.678   9.616
   91SBC   C00F63963   6.855   7.626   9.529
   91SBC   C01X63964   6.780   7.788   9.742
   91SBC   C01W63965   6.746   7.847   9.863
   91SBC   C01V63966   6.838   7.866   9.970
   91SBC   C02063967   6.801   7.914  10.094
   91SBC   C01Z63968   6.613   7.877   9.890
   91SBC   C02Y63969   6.582   7.938  10.009
   91SBC   C03963970   6.446   7.974  10.034
   91SBC   C02W63971   6.510   7.847   9.797
   91SBC   C01Y63972   6.686   7.742   9.655
   91SBC   C00U63973   6.973   7.826   9.950
   91SBC   C00S63974   7.063   7.832  10.056
   91SBC   C00T63975   7.025   7.875  10.182
   91SBC   C00R63976   7.190   7.781  10.036
   91SBC   C00Q63977   7.274   7.764  10.142
   91SBC   C00V63978   7.234   7.801  10.271
   91SBC   C02463979   7.324   7.786  10.379
   91SBC   C00X63980   7.451   7.743  10.360
   91SBC   C00P63981   7.400   7.705  10.117
   91SBC   C00O63982   7.435   7.644   9.994
   91SBC   C00K63983   7.169   7.662   9.697
   91SBC   N00063984   7.389   7.442   9.534
   91SBC   C00L63985   7.077   7.628   9.600
   91SBC   H00463986   7.101   7.047   9.110
   91SBC   C02Q63987   6.947   7.329   9.248
   91SBC   C00E63988   6.895   7.534   9.431
   91SBC   C03063989   6.558   7.488   9.280
   91SBC   O00363990   6.434   7.528   9.294
   91SBC   C02S63991   6.722   7.661   9.552
   91SBC   C03863992   6.399   7.595   9.405
   91SBC   C03L63993   6.266   7.609   9.432
   91SBC   H00863994   6.196   7.575   9.357
   91SBC   C02V63995   6.550   7.779   9.681
   91SBC   C03K63996   6.220   7.675   9.547
   91SBC   C0BK63997   6.083   7.688   9.583
   91SBC   H00T63998   6.010   7.635   9.524
   91SBC   C03H63999   6.371   7.868   9.827
   91SBC   C0BL64000   6.028   7.760   9.686
   91SBC   C0GU64001   5.889   7.754   9.708
   91SBC   H01O64002   5.829   7.702   9.635
   91SBC   C0GT64003   5.828   7.814   9.818
   91SBC   H01P64004   5.721   7.828   9.822
   91SBC   C0GS64005   5.911   7.870   9.909
   91SBC   C0GV64006   5.879   7.928  10.032
   91SBC   C0GW64007   5.748   7.945  10.085
   91SBC   H01Q64008   5.660   7.918  10.028
   91SBC   C0GX64009   5.735   8.003  10.209
   91SBC   H01R64010   5.638   8.012  10.254
   91SBC   O00L64011   5.847   8.033  10.284
   91SBC   C0GQ64012   5.996   7.972  10.102
   91SBC   C03A64013   6.338   7.929   9.959
   91SBC   C05L64014   5.974   8.017  10.239
   91SBC   C04W64015   6.174   8.124  10.804
   91SBC   C05I64016   6.134   8.140  10.935
   91SBC   C05O64017   6.006   8.186  10.969
   91SBC   C05264018   6.213   8.105  11.046
   91SBC   C04V64019   6.304   8.080  10.782
   91SBC   C04U64020   6.390   8.054  10.889
   91SBC   N00964021   5.911   8.196  10.868
   91SBC   C0GP64022   5.966   8.197  11.101
   91SBC   C05W64023   6.045   8.165  11.205
   91SBC   C07D64024   6.012   8.123  11.566
   91SBC   C06J64025   6.262   7.996  11.517
   91SBC   C05P64026   6.169   8.108  11.179
   91SBC   C05R64027   6.432   7.939  11.359
   91SBC   C04Z64028   6.339   8.058  11.022
   91SBC   C04C64029   6.609   7.905  11.202
   91SBC   C04G64030   6.797   7.859  11.056
   91SBC   C04J64031   6.918   7.887  10.805
   91SBC   C04T64032   6.517   8.002  10.869
   91SBC   N00364033   6.352   8.057  10.652
   91SBC   C04P64034   6.309   8.040  10.416
   91SBC   C03D64035   6.416   8.012  10.165
   91SBC   C02164036   6.669   7.956  10.117
   91SBC   C03F64037   6.671   7.986  10.483
   91SBC   C02264038   6.897   7.913  10.200
   91SBC   C02A64039   6.888   7.923  10.574
   91SBC   C02364040   7.108   7.853  10.295
   91SBC   C02564041   7.280   7.795  10.511
   91SBC   C02D64042   7.359   7.745  10.615
   91SBC   C02E64043   7.482   7.693  10.591
   91SBC   C02N64044   7.553   7.615  10.690
   91SBC   C04N64045   6.965   7.883  10.679
   91SBC   C02P64046   7.308   7.744  10.745
   91SBC   C04I64047   6.993   7.839  10.914
   91SBC   C04464048   7.126   7.700  11.114
   91SBC   C04364049   7.371   7.672  10.844
   91SBC   C05N64050   7.493   7.606  10.814
   91SBC   C09U64051   7.671   7.374  11.119
   91SBC   C09V64052   7.720   7.286  11.216
   91SBC   C09X64053   7.838   7.221  11.206
   91SBC   C09Y64054   7.892   7.124  11.291
   91SBC   C0A164055   7.819   7.091  11.403
   91SBC   C0A264056   7.698   7.158  11.419
   91SBC   C0A464057   7.633   7.139  11.540
   91SBC   C07164058   7.511   7.205  11.561
   91SBC   C0A564059   7.434   7.173  11.674
   91SBC   C0A964060   7.479   7.071  11.758
   91SBC   C0A864061   7.605   7.015  11.735
   91SBC   C0AP64062   7.638   6.905  11.814
   91SBC   C0BY64063   7.757   6.843  11.787
   91SBC   C0BX64064   7.844   6.871  11.686
   91SBC   C0C264065   7.962   6.792  11.661
   91SBC   C0C364066   8.037   6.826  11.550
   91SBC   C0CT64067   7.986   6.918  11.456
   91SBC   C0C164068   8.004   6.691  11.749
   91SBC   C0C064069   7.901   6.647  11.846
   91SBC   C0A764070   7.797   6.966  11.596
   91SBC   C0BZ64071   7.790   6.731  11.861
   91SBC   C0BO64072   7.699   6.674  11.947
   91SBC   C0BN64073   7.586   6.741  11.985
   91SBC   C0BM64074   7.517   6.687  12.085
   91SBC   C0B964075   7.397   6.752  12.114
   91SBC   C0B864076   7.359   6.865  12.038
   91SBC   C0AD64077   7.445   6.922  11.946
   91SBC   C0AF64078   7.241   6.926  12.069
   91SBC   C0AG64079   7.155   6.880  12.171
   91SBC   C0B764080   7.194   6.765  12.244
   91SBC   C0AE64081   7.208   7.030  11.989
   91SBC   C0AB64082   7.285   7.085  11.891
   91SBC   C0AA64083   7.236   7.181  11.801
   91SBC   C0AJ64084   7.088   7.091  12.017
   91SBC   C0AK64085   7.048   7.202  11.939
   91SBC   C06W64086   6.935   7.239  11.991
   91SBC   C0AI64087   6.995   7.059  12.118
   91SBC   C0BP64088   7.755   6.562  12.006
   91SBC   C0BQ64089   7.672   6.503  12.109
   91SBC   C0BW64090   7.562   6.856  11.917
   91SBC   C0AC64091   7.402   7.025  11.864
   91SBC   C0A664092   7.681   7.043  11.626
   91SBC   C0A364093   7.867   6.988  11.482
   91SBC   C09Z64094   8.012   7.063  11.268
   91SBC   C09W64095   7.649   7.256  11.332
   91SBC   C07264096   7.530   7.328  11.361
   91SBC   C09H64097   7.915   7.268  11.099
   91SBC   C09G64098   8.041   7.227  11.093
   91SBC   C09P64099   8.094   7.278  10.983
   91SBC   C02O64100   7.886   7.466  10.722
   91SBC   C02M64101   7.673   7.557  10.657
   91SBC   C02F64102   7.535   7.705  10.463
   91SBC   C00W64103   7.477   7.699  10.231
   91SBC   C01R64104   7.555   7.575   9.969
   91SBC   C01N64105   7.773   7.533  10.255
   91SBC   C01L64106   7.951   7.370  10.266
   91SBC   C01H64107   8.098   7.183  10.012
   91SBC   C01K64108   7.802   7.380   9.925
   91SBC   C01E64109   7.828   7.265   9.676
   91SBC   C01G64110   8.127   7.131   9.877
   91SBC   C01D64111   7.849   7.215   9.549
   91SBC   C01A64112   7.920   7.124   9.295
   91SBC   H00164113   7.946   7.093   9.195
   91SBC   C01F64114   8.181   7.052   9.605
   91SBC   C03P64115   8.425   6.920   9.536
   91SBC   C03T64116   8.457   6.876   9.765
   91SBC   C08I64117   8.599   6.772   9.987
   91SBC   C08J64118   8.666   6.734  10.101
   91SBC   C08L64119   8.687   6.721  10.343
   91SBC   C09364120   8.684   6.704  10.593
   91SBC   C08Z64121   8.499   6.913  10.590
   91SBC   C09T64122   8.542   6.767  11.030
   91SBC   C09S64123   8.435   7.061  10.850
   91SBC   C09Q64124   8.216   7.226  10.941
   91SBC   C09F64125   8.094   7.118  11.172
   91SBC   C09E64126   8.369   6.895  11.146
   91SBC   C0A064127   8.060   6.956  11.347
   91SBC   C0CU64128   8.155   6.754  11.525
   91SBC   C0CR64129   8.203   6.662  11.625
   91SBC   C0CZ64130   8.331   6.602  11.600
   91SBC   C0DA64131   8.444   6.767  11.145
   91SBC   C0D964132   8.552   6.442  11.243
   91SBC   H00V64133   8.542   6.396  11.146
   91SBC   C0CY64134   8.397   6.632  11.476
   91SBC   C0DF64135   8.603   6.369  11.360
   91SBC   C0DE64136   8.619   6.232  11.407
   91SBC   C0GI64137   8.692   6.118  11.361
   91SBC   H01K64138   8.756   6.120  11.274
   91SBC   C0GJ64139   8.688   6.007  11.439
   91SBC   H01J64140   8.755   5.928  11.408
   91SBC   O00I64141   8.623   5.995  11.561
   91SBC   C0GH64142   8.556   6.105  11.611
   91SBC   C0GG64143   8.488   6.076  11.733
   91SBC   O00G64144   8.488   5.943  11.771
   91SBC   C0G864145   8.435   5.903  11.887
   91SBC   C0G964146   8.459   5.771  11.922
   91SBC   H01G64147   8.523   5.707  11.863
   91SBC   C0GA64148   8.407   5.721  12.041
   91SBC   H01H64149   8.448   5.625  12.068
   91SBC   C0GB64150   8.324   5.796  12.123
   91SBC   C0EP64151   8.283   5.926  12.076
   91SBC   C0E864152   8.171   5.992  12.142
   91SBC   C0CK64153   8.082   6.097  12.113
   91SBC   C0CL64154   8.141   6.214  12.076
   91SBC   C0E964155   8.266   6.223  12.000
   91SBC   C0GE64156   8.345   6.120  11.928
   91SBC   C0E764157   8.141   5.953  12.274
   91SBC   C0CJ64158   8.036   6.026  12.332
   91SBC   C0E664159   7.997   5.997  12.467
   91SBC   H00Y64160   7.930   6.066  12.516
   91SBC   C0EO64161   8.049   5.876  12.520
   91SBC   H01164162   8.019   5.844  12.618
   91SBC   C0G664163   8.148   5.798  12.452
   91SBC   C0G564164   8.210   5.677  12.505
   91SBC   H01F64165   8.180   5.642  12.603
   91SBC   C0GD64166   8.296   5.601  12.433
   91SBC   H01I64167   8.344   5.513  12.474
   91SBC   O00H64168   8.340   5.636  12.309
   91SBC   C0EQ64169   8.197   5.835  12.323
   91SBC   C0GC64170   8.287   5.751  12.256
   91SBC   C0G764171   8.348   5.987  11.964
   91SBC   C0DD64172   8.567   6.226  11.541
   91SBC   C0GF64173   8.434   6.173  11.825
   91SBC   C0CO64174   8.283   6.360  11.994
   91SBC   C0D064175   8.379   6.505  11.700
   91SBC   C0C464176   8.134   6.639  11.745
   91SBC   C0CN64177   8.195   6.441  12.067
   91SBC   C0CP64178   7.884   6.544  11.948
   91SBC   C0CM64179   8.099   6.345  12.129
   91SBC   C0CI64180   7.982   6.111  12.224
   91SBC   C0CD64181   7.560   6.146  12.416
   91SBC   C0BR64182   7.719   6.386  12.171
   91SBC   C0CS64183   7.556   6.566  12.146
   91SBC   C0B664184   7.315   6.702  12.212
   91SBC   C0CG64185   7.427   6.344  12.406
   91SBC   C0CF64186   7.461   6.225  12.470
   91SBC   C0E564187   7.510   5.975  12.578
   91SBC   C0DT64188   7.391   5.900  12.815
   91SBC   C0DL64189   7.209   6.213  12.735
   91SBC   C0DM64190   7.093   6.280  12.777
   91SBC   C0DY64191   7.075   6.139  12.964
   91SBC   C0DU64192   7.333   5.879  12.940
   91SBC   C0F064193   7.271   5.700  13.094
   91SBC   C0F464194   7.075   5.579  13.241
   91SBC   C0FG64195   6.977   5.930  13.250
   91SBC   O00B64196   6.844   5.616  13.329
   91SBC   C0FN64197   6.858   5.977  13.292
   91SBC   C0DZ64198   6.995   6.093  13.076
   91SBC   O00C64199   6.727   6.335  13.069
   91SBC   C0FR64200   6.674   6.434  13.004
   91SBC   O00D64201   6.567   6.472  13.049
   91SBC   C0E064202   7.025   6.243  12.887
   91SBC   C0E364203   6.750   6.490  12.895
   91SBC   C0AW64204   6.716   6.611  12.829
   91SBC   C0AV64205   6.610   6.701  12.865
   91SBC   H00Q64206   6.561   6.676  12.958
   91SBC   C0AU64207   6.576   6.810  12.790
   91SBC   H00R64208   6.503   6.883  12.822
   91SBC   C0AT64209   6.654   6.837  12.677
   91SBC   C0AS64210   6.653   6.937  12.570
   91SBC   C0AR64211   6.542   7.024  12.552
   91SBC   C0BE64212   6.750   6.749  12.642
   91SBC   C0DN64213   7.054   6.391  12.698
   91SBC   C0AX64214   6.789   6.638  12.715
   91SBC   C0BB64215   7.082   6.550  12.515
   91SBC   C0BD64216   6.813   6.789  12.525
   91SBC   C0B264217   7.115   6.717  12.348
   91SBC   C0AH64218   7.025   6.942  12.199
   91SBC   C0BF64219   6.759   6.905  12.469
   91SBC   C0AL64220   6.894   7.153  12.102
   91SBC   C07U64221   6.608   7.137  12.326
   91SBC   C0AQ64222   6.534   7.118  12.446
   91SBC   C0BG64223   6.450   7.077  12.656
   91SBC   C0FY64224   6.169   7.281  12.604
   91SBC   C0BJ64225   6.337   7.007  12.725
   91SBC   H00S64226   6.324   6.904  12.754
   91SBC   C0FZ64227   6.057   7.238  12.667
   91SBC   C07S64228   6.158   7.347  12.480
   91SBC   C0G164229   5.792   7.416  12.504
   91SBC   C07K64230   5.852   7.582  12.175
   91SBC   C07H64231   6.124   7.488  12.230
   91SBC   C06B64232   6.180   7.786  12.056
   91SBC   C06N64233   6.345   7.721  11.922
   91SBC   C06664234   6.373   7.420  12.179
   91SBC   C06264235   6.657   7.391  12.048
   91SBC   C05Y64236   6.557   7.661  11.779
   91SBC   C06164237   6.780   7.429  11.983
   91SBC   C05H64238   6.857   7.563  11.655
   91SBC   C06V64239   6.892   7.350  11.932
   91SBC   C06Y64240   7.120   7.245  11.828
   91SBC   C05C64241   7.092   7.484  11.546
   91SBC   C06Z64242   7.309   7.230  11.697
   91SBC   C07064243   7.455   7.290  11.471
   91SBC   C05B64244   7.166   7.508  11.426
   91SBC   C05764245   7.309   7.557  11.185
   91SBC   C05964246   7.481   7.410  11.259
   92SBC   C05864247   0.122   8.761   6.344
   92SBC   C05A64248   0.100   8.896   6.314
   92SBC   C06Q64249   0.128   8.955   6.194
   92SBC   C06R64250   0.117   9.091   6.181
   92SBC   C06S64251   0.061   9.174   6.282
   92SBC   C06T64252   0.044   9.314   6.255
   92SBC   C06U64253  -0.024   9.418   6.325
   92SBC   C06X64254  -0.084   9.422   6.457
   92SBC   C06064255  -0.150   9.550   6.482
   92SBC   C05Z64256  -0.163   9.632   6.602
   92SBC   C06864257  -0.126   9.773   6.559
   92SBC   C06764258  -0.103   9.892   6.640
   92SBC   C06964259  -0.132   9.892   6.786
   92SBC   C06A64260  -0.118  10.007   6.884
   92SBC   C07364261  -0.033  10.119   6.892
   92SBC   C07P64262   0.030  10.165   7.014
   92SBC   C07O64263   0.028  10.087   7.131
   92SBC   H00D64264  -0.025   9.994   7.118
   92SBC   C07N64265   0.102  10.119   7.252
   92SBC   H00E64266   0.099  10.055   7.340
   92SBC   C07M64267   0.174  10.240   7.241
   92SBC   H00F64268   0.218  10.284   7.329
   92SBC   C07L64269   0.186  10.313   7.128
   92SBC   C07Q64270   0.262  10.433   7.119
   92SBC   H00G64271   0.295  10.483   7.209
   92SBC   O00F64272   0.272  10.513   7.008
   92SBC   C07J64273   0.195  10.468   6.903
   92SBC   C07I64274   0.114  10.354   6.902
   92SBC   N00464275   0.046  10.322   6.783
   92SBC   C07R64276   0.042  10.420   6.677
   92SBC   C07T64277   0.121  10.533   6.689
   92SBC   C0FX64278   0.134  10.628   6.589
   92SBC   C0FW64279   0.236  10.717   6.568
   92SBC   C0G064280   0.334  10.716   6.674
   92SBC   C0G264281   0.453  10.788   6.669
   92SBC   H01E64282   0.530  10.779   6.744
   92SBC   C0G364283   0.470  10.864   6.555
   92SBC   H01C64284   0.561  10.922   6.545
   92SBC   C0G464285   0.377  10.861   6.449
   92SBC   H01D64286   0.404  10.913   6.358
   92SBC   O00E64287   0.299  10.656   6.793
   92SBC   C0FV64288   0.263  10.785   6.450
   92SBC   C0FU64289   0.176  10.765   6.342
   92SBC   H01B64290   0.192  10.804   6.243
   92SBC   C0FT64291   0.062  10.680   6.357
   92SBC   C0FS64292  -0.013  10.603   6.268
   92SBC   C0BI64293  -0.103  10.516   6.347
   92SBC   C0BH64294  -0.132  10.402   6.264
   92SBC   C07F64295  -0.104  10.267   6.295
   92SBC   C07E64296  -0.105  10.201   6.419
   92SBC   C07G64297  -0.073  10.259   6.543
   92SBC   C07464298  -0.055  10.161   6.637
   92SBC   C06564299  -0.088  10.063   6.435
   92SBC   C06464300  -0.066   9.993   6.316
   92SBC   C06364301  -0.045   9.859   6.304
   92SBC   C07564302  -0.024   9.842   6.158
   92SBC   C0AM64303  -0.023   9.963   6.074
   92SBC   C0AN64304  -0.001   9.981   5.930
   92SBC   C0AO64305   0.035   9.886   5.819
   92SBC   C0B164306   0.043   9.927   5.684
   92SBC   C0B064307   0.027  10.058   5.646
   92SBC   C0AZ64308   0.048  10.109   5.519
   92SBC   C0AY64309   0.046  10.248   5.493
   92SBC   N00764310   0.085  10.304   5.372
   92SBC   C0E264311   0.084  10.444   5.348
   92SBC   C0E164312   0.103  10.491   5.219
   92SBC   C0E464313   0.121  10.628   5.208
   92SBC   C0FF64314   0.144  10.677   5.083
   92SBC   C0FJ64315   0.179  10.815   5.041
   92SBC   C0FK64316   0.254  10.908   5.121
   92SBC   H01664317   0.265  10.902   5.228
   92SBC   C0FL64318   0.322  10.996   5.029
   92SBC   H01764319   0.390  11.078   5.043
   92SBC   C0FM64320   0.287  10.958   4.891
   92SBC   C0FH64321   0.326  10.951   4.750
   92SBC   C0FI64322   0.253  10.832   4.714
   92SBC   C0F364323   0.309  10.748   4.610
   92SBC   C0F264324   0.279  10.614   4.631
   92SBC   C0DW64325   0.218  10.557   4.746
   92SBC   C0FE64326   0.169  10.636   4.842
   92SBC   C0DV64327   0.221  10.421   4.766
   92SBC   C0DX64328   0.182  10.375   4.893
   92SBC   C0DK64329   0.200  10.242   4.916
   92SBC   C0DJ64330   0.268  10.154   4.821
   92SBC   C0DI64331   0.292  10.022   4.846
   92SBC   C0DH64332   0.244   9.966   4.967
   92SBC   C0DG64333   0.183  10.045   5.065
   92SBC   C0BV64334   0.157   9.993   5.190
   92SBC   C0BC64335   0.116  10.080   5.294
   92SBC   C0BA64336   0.175   9.860   5.216
   92SBC   C0B464337   0.144   9.807   5.342
   92SBC   C0B364338   0.105   9.891   5.449
   92SBC   C0B564339   0.159   9.671   5.363
   92SBC   C0BU64340   0.198   9.581   5.258
   92SBC   C0BT64341   0.227   9.634   5.134
   92SBC   C0BS64342   0.280   9.550   5.030
   92SBC   C0CC64343   0.320   9.610   4.913
   92SBC   C0CB64344   0.385   9.536   4.818
   92SBC   C0CH64345   0.484   9.606   4.743
   92SBC   C0DO64346   0.476   9.744   4.714
   92SBC   C0DP64347   0.538   9.800   4.605
   92SBC   C0EA64348   0.616   9.724   4.511
   92SBC   H01264349   0.624   9.618   4.527
   92SBC   O00964350   0.662   9.771   4.394
   92SBC   C0EH64351   0.653   9.898   4.376
   92SBC   C0EG64352   0.726   9.950   4.264
   92SBC   C0EJ64353   0.814   9.894   4.168
   92SBC   H01064354   0.829   9.789   4.149
   92SBC   C0EK64355   0.860  10.002   4.079
   92SBC   H00Z64356   0.929   9.988   3.997
   92SBC   C0EL64357   0.795  10.117   4.130
   92SBC   C0EM64358   0.808  10.252   4.098
   92SBC   C0EW64359   0.896  10.307   3.997
   92SBC   H01364360   0.959  10.244   3.936
   92SBC   C0EX64361   0.894  10.450   3.967
   92SBC   H01464362   0.954  10.479   3.882
   92SBC   C0F164363   0.818  10.544   4.052
   92SBC   C0EU64364   0.738  10.485   4.154
   92SBC   C0ET64365   0.652  10.553   4.244
   92SBC   C0ES64366   0.596  10.439   4.319
   92SBC   C0EE64367   0.645  10.311   4.282
   92SBC   C0ED64368   0.641  10.172   4.315
   92SBC   C0EC64369   0.562  10.124   4.424
   92SBC   C0EB64370   0.466  10.193   4.500
   92SBC   C0EN64371   0.440  10.334   4.483
   92SBC   C0ER64372   0.346  10.393   4.562
   92SBC   C0DS64373   0.397  10.135   4.615
   92SBC   C0DR64374   0.426  10.007   4.646
   92SBC   C0EY64375   0.490  10.443   4.406
   92SBC   C0EZ64376   0.435  10.573   4.443
   92SBC   C0F564377   0.474  10.715   4.430
   92SBC   C0F664378   0.574  10.770   4.346
   92SBC   N00864379   0.594  10.916   4.354
   92SBC   C0F764380   0.538  11.002   4.459
   92SBC   C0FQ64381   0.582  11.134   4.466
   92SBC   H01864382   0.548  11.197   4.548
   92SBC   C0FP64383   0.663  11.196   4.370
   92SBC   H01964384   0.694  11.300   4.365
   92SBC   C0FO64385   0.706  11.116   4.265
   92SBC   H01A64386   0.768  11.159   4.188
   92SBC   C0F864387   0.451  10.933   4.551
   92SBC   C0F964388   0.681  10.975   4.260
   92SBC   C0FA64389   0.747  10.898   4.158
   92SBC   H01564390   0.822  10.946   4.098
   92SBC   C0FB64391   0.726  10.760   4.149
   92SBC   C0FD64392   0.645  10.698   4.246
   92SBC   C0FC64393   0.816  10.691   4.050
   92SBC   O00A64394   0.894  10.752   3.977
   92SBC   C0EV64395   0.736  10.345   4.176
   92SBC   C0EF64396   0.712  10.078   4.234
   92SBC   C0EI64397   0.577   9.984   4.458
   92SBC   C0DQ64398   0.510   9.931   4.567
   92SBC   C0CE64399   0.385   9.814   4.785
   92SBC   H00U64400   0.562   9.547   4.697
   92SBC   C0CA64401   0.353   9.395   4.806
   92SBC   C0C964402   0.323   9.325   4.934
   92SBC   C0C864403   0.305   9.185   4.932
   92SBC   C0C764404   0.307   9.080   5.035
   92SBC   C0C664405   0.284   8.944   4.997
   92SBC   C0C564406   0.321   8.810   5.033
   92SBC   C0CQ64407   0.329   8.715   4.929
   92SBC   C0D164408   0.357   8.762   4.800
   92SBC   C0D864409   0.447   8.689   4.731
   92SBC   C0D764410   0.460   8.575   4.812
   92SBC   C0D664411   0.553   8.461   4.784
   92SBC   C0D564412   0.560   8.342   4.863
   92SBC   C0D464413   0.510   8.315   4.993
   92SBC   C0D364414   0.600   8.219   5.053
   92SBC   C0CX64415   0.585   8.233   5.199
   92SBC   C0CW64416   0.520   8.365   5.222
   92SBC   C0CV64417   0.477   8.440   5.341
   92SBC   C0D264418   0.496   8.393   5.475
   92SBC   C09D64419   0.546   8.264   5.516
   92SBC   C09C64420   0.537   8.229   5.653
   92SBC   C09B64421   0.567   8.102   5.704
   92SBC   C09A64422   0.603   8.001   5.611
   92SBC   C09964423   0.629   8.038   5.482
   92SBC   C09864424   0.627   7.922   5.403
   92SBC   C08Y64425   0.580   7.809   5.489
   92SBC   C08X64426   0.509   7.688   5.455
   92SBC   C08W64427   0.484   7.653   5.318
   92SBC   C08U64428   0.506   7.729   5.203
   92SBC   C08V64429   0.543   7.871   5.175
   92SBC   C0DC64430   0.568   7.881   5.036
   92SBC   H00W64431   0.603   7.973   4.992
   92SBC   C0DB64432   0.543   7.758   4.970
   92SBC   H00X64433   0.560   7.723   4.869
   92SBC   C08T64434   0.503   7.669   5.073
   92SBC   C08S64435   0.465   7.541   5.055
   92SBC   H00N64436   0.468   7.497   4.957
   92SBC   C08R64437   0.407   7.472   5.165
   92SBC   C08Q64438   0.341   7.347   5.151
   92SBC   H00O64439   0.338   7.314   5.048
   92SBC   C08P64440   0.276   7.271   5.246
   92SBC   C08O64441   0.199   7.153   5.227
   92SBC   H00P64442   0.177   7.126   5.125
   92SBC   C08N64443   0.144   7.088   5.342
   92SBC   C08M64444   0.082   6.958   5.318
   92SBC   O00864445   0.081   6.899   5.210
   92SBC   O00764446   0.021   6.904   5.428
   92SBC   C08H64447   0.031   6.957   5.550
   92SBC   C08G64448  -0.018   6.883   5.662
   92SBC   C03V64449  -0.083   6.759   5.665
   92SBC   H00964450  -0.094   6.710   5.570
   92SBC   C03U64451  -0.124   6.694   5.781
   92SBC   C03W64452  -0.191   6.566   5.790
   92SBC   H00A64453  -0.216   6.512   5.700
   92SBC   C03X64454  -0.231   6.523   5.906
   92SBC   H00B64455  -0.271   6.423   5.917
   92SBC   O00564456  -0.217   6.589   6.024
   92SBC   C03O64457  -0.152   6.711   6.020
   92SBC   C03N64458  -0.133   6.781   6.136
   92SBC   O00064459  -0.198   6.724   6.238
   92SBC   C01964460  -0.200   6.790   6.355
   92SBC   C01864461  -0.135   6.914   6.373
   92SBC   C01764462  -0.075   6.977   6.260
   92SBC   C01664463   0.001   7.093   6.276
   92SBC   C01564464  -0.007   7.149   6.405
   92SBC   C01464465   0.068   7.265   6.425
   92SBC   C01364466   0.140   7.326   6.316
   92SBC   C01264467   0.190   7.451   6.382
   92SBC   C01164468   0.151   7.442   6.517
   92SBC   C01064469   0.173   7.545   6.601
   92SBC   C00Z64470   0.121   7.563   6.729
   92SBC   C00Y64471   0.150   7.698   6.755
   92SBC   C01O64472   0.208   7.759   6.647
   92SBC   C01P64473   0.201   7.893   6.614
   92SBC   C02L64474   0.240   7.930   6.490
   92SBC   C02K64475   0.272   7.826   6.396
   92SBC   C01M64476   0.253   7.686   6.417
   92SBC   C02J64477   0.336   7.882   6.284
   92SBC   C02I64478   0.390   7.813   6.173
   92SBC   C02H64479   0.379   7.676   6.142
   92SBC   C01Q64480   0.313   7.565   6.205
   92SBC   C02G64481   0.314   7.457   6.114
   92SBC   C08964482   0.395   7.496   6.005
   92SBC   C08864483   0.346   7.434   5.887
   92SBC   C08764484   0.255   7.331   5.944
   92SBC   C08664485   0.181   7.243   5.866
   92SBC   C03S64486   0.103   7.130   5.916
   92SBC   N00664487   0.074   7.054   5.802
   92SBC   C08F64488   0.126   7.117   5.693
   92SBC   C01J64489   0.049   7.085   6.036
   92SBC   C03R64490  -0.022   6.966   6.028
   92SBC   C03Q64491  -0.039   6.888   5.909
   92SBC   C08E64492   0.187   7.230   5.726
   92SBC   C08D64493   0.247   7.308   5.619
   92SBC   C08K64494   0.234   7.259   5.488
   92SBC   C08C64495   0.332   7.414   5.633
   92SBC   C09164496   0.380   7.485   5.525
   92SBC   C09264497   0.356   7.447   5.393
   92SBC   C08B64498   0.382   7.476   5.750
   92SBC   C09064499   0.467   7.589   5.707
   92SBC   C09464500   0.533   7.686   5.791
   92SBC   C09564501   0.553   7.820   5.749
   92SBC   C09R64502   0.542   7.914   5.850
   92SBC   C09764503   0.496   7.852   5.962
   92SBC   C09664504   0.485   7.719   5.926
   92SBC   C01I64505   0.231   7.342   6.089
   92SBC   C08A64506   0.421   7.632   6.017
   92SBC   C09L64507   0.445   7.901   6.084
   92SBC   C09K64508   0.433   8.032   6.138
   92SBC   C09J64509   0.461   8.150   6.065
   92SBC   C09I64510   0.393   8.276   6.093
   92SBC   C09O64511   0.315   8.339   6.198
   92SBC   C09N64512   0.279   8.269   6.317
   92SBC   C09M64513   0.289   8.126   6.341
   92SBC   C06O64514   0.212   8.348   6.410
   92SBC   C05M64515   0.188   8.487   6.389
   92SBC   C06P64516   0.213   8.548   6.268
   92SBC   C04264517   0.120   8.563   6.484
   92SBC   C04164518   0.068   8.507   6.602
   92SBC   C04064519  -0.005   8.581   6.694
   92SBC   C03Z64520  -0.064   8.520   6.803
   92SBC   C03Y64521  -0.041   8.392   6.830
   92SBC   C02764522  -0.099   8.335   6.943
   92SBC   C02664523  -0.084   8.196   6.963
   92SBC   C02864524  -0.151   8.136   7.070
   92SBC   C02964525  -0.231   8.213   7.152
   92SBC   C02B64526  -0.303   8.154   7.248
   92SBC   C02C64527  -0.379   8.230   7.333
   92SBC   C02X64528  -0.454   8.167   7.429
   92SBC   C03E64529  -0.538   8.248   7.506
   92SBC   C03G64530  -0.551   8.380   7.502
   92SBC   C04Q64531  -0.471   8.443   7.411
   92SBC   C04R64532  -0.477   8.577   7.396
   92SBC   C04S64533  -0.406   8.641   7.293
   92SBC   C04L64534  -0.330   8.567   7.200
   92SBC   C04M64535  -0.323   8.430   7.217
   92SBC   C04K64536  -0.274   8.622   7.088
   92SBC   C04F64537  -0.272   8.759   7.079
   92SBC   C04E64538  -0.354   8.838   7.166
   92SBC   C04D64539  -0.364   8.972   7.145
   92SBC   C05064540  -0.433   9.046   7.235
   92SBC   C05164541  -0.442   9.184   7.210
   92SBC   C05Q64542  -0.509   9.268   7.298
   92SBC   C05V64543  -0.508   9.405   7.274
   92SBC   N00564544  -0.582   9.484   7.368
   92SBC   C07V64545  -0.659   9.422   7.466
   92SBC   C08264546  -0.732   9.500   7.547
   92SBC   C08164547  -0.737   9.642   7.535
   92SBC   C07C64548  -0.647   9.703   7.449
   92SBC   C07B64549  -0.631   9.844   7.449
   92SBC   C08064550  -0.709   9.923   7.532
   92SBC   C07Z64551  -0.682  10.056   7.531
   92SBC   H00L64552  -0.742  10.118   7.596
   92SBC   C07964553  -0.592  10.125   7.448
   92SBC   C07864554  -0.532  10.043   7.351
   92SBC   C07764555  -0.448  10.098   7.253
   92SBC   C07X64556  -0.433  10.241   7.254
   92SBC   H00I64557  -0.368  10.294   7.186
   92SBC   C07Y64558  -0.498  10.322   7.346
   92SBC   H00H64559  -0.480  10.428   7.350
   92SBC   C07664560  -0.379  10.020   7.162
   92SBC   C06C64561  -0.285  10.082   7.070
   92SBC   H00C64562  -0.246  10.183   7.063
   92SBC   C06F64563  -0.407   9.885   7.153
   92SBC   C06E64564  -0.351   9.800   7.056
   92SBC   C06G64565  -0.361   9.665   7.054
   92SBC   C06H64566  -0.428   9.610   7.165
   92SBC   C06I64567  -0.491   9.686   7.263
   92SBC   C06L64568  -0.304   9.591   6.949
   92SBC   C06M64569  -0.232   9.650   6.841
   92SBC   C06K64570  -0.309   9.449   6.964
   92SBC   C05S64571  -0.374   9.391   7.078
   92SBC   C05U64572  -0.254   9.364   6.867
   92SBC   C05X64573  -0.204   9.422   6.747
   92SBC   C05G64574  -0.146   9.320   6.664
   92SBC   C05F64575  -0.144   9.186   6.704
   92SBC   C05E64576  -0.084   9.106   6.608
   92SBC   C04864577  -0.052   8.977   6.634
   92SBC   C05664578   0.012   8.908   6.531
   92SBC   C04564579   0.033   8.774   6.559
   92SBC   C04764580  -0.099   8.929   6.751
   92SBC   C04964581  -0.172   9.004   6.836
   92SBC   C04B64582  -0.226   8.953   6.950
   92SBC   C04664583  -0.087   8.792   6.772
   92SBC   C04H64584  -0.149   8.735   6.881
   92SBC   C05D64585  -0.049   9.179   6.502
   92SBC   C04A64586  -0.198   9.136   6.817
   92SBC   C05T64587  -0.254   9.227   6.901
   92SBC   C05564588  -0.306   9.172   7.011
   92SBC   C06D64589  -0.266   9.860   6.964
   92SBC   C07W64590  -0.488   9.826   7.255
   92SBC   C08564591  -0.562  10.260   7.452
   92SBC   H00M64592  -0.604  10.330   7.523
   92SBC   C08464593  -0.799   9.860   7.624
   92SBC   H00J64594  -0.838   9.930   7.696
   92SBC   C07A64595  -0.551   9.905   7.348
   92SBC   C08364596  -0.811   9.725   7.628
   92SBC   H00K64597  -0.872   9.691   7.711
   92SBC   O00K64598  -0.805   9.441   7.652
   92SBC   C0GO64599  -0.813   9.304   7.665
   92SBC   C0GN64600  -0.896   9.253   7.760
   92SBC   H01L64601  -0.954   9.321   7.821
   92SBC   C0GM64602  -0.907   9.114   7.773
   92SBC   C0GL64603  -0.990   9.060   7.864
   92SBC   H01M64604  -1.050   9.133   7.916
   92SBC   O00J64605  -1.011   8.928   7.871
   92SBC   C0GK64606  -0.926   8.849   7.790
   92SBC   H01N64607  -0.946   8.743   7.794
   92SBC   C05K64608  -0.822   8.897   7.715
   92SBC   C05J64609  -0.739   8.802   7.640
   92SBC   C04Y64610  -0.727   8.661   7.654
   92SBC   C04X64611  -0.637   8.586   7.578
   92SBC   O00664612  -0.804   8.600   7.748
   92SBC   C05364613  -0.818   8.460   7.754
   92SBC   C04O64614  -0.726   8.380   7.679
   92SBC   C03C64615  -0.717   8.236   7.671
   92SBC   C03B64616  -0.794   8.123   7.720
   92SBC   C05464617  -0.915   8.134   7.783
   92SBC   C0GR64618  -0.994   8.024   7.816
   92SBC   C03M64619  -0.989   7.876   7.801
   92SBC   C03I64620  -0.888   7.801   7.725
   92SBC   C03J64621  -0.907   7.659   7.703
   92SBC   N00264622  -0.815   7.574   7.629
   92SBC   C02U64623  -0.827   7.436   7.621
   92SBC   C02T64624  -0.747   7.362   7.534
   92SBC   C02Z64625  -0.776   7.230   7.516
   92SBC   N00164626  -0.689   7.150   7.431
   92SBC   C02R64627  -0.709   7.012   7.423
   92SBC   C03264628  -0.811   6.952   7.500
   92SBC   C03164629  -0.900   7.025   7.579
   92SBC   H00764630  -0.981   6.985   7.638
   92SBC   C03364631  -0.815   6.811   7.488
   92SBC   H00364632  -0.882   6.754   7.551
   92SBC   O00464633  -0.739   6.735   7.399
   92SBC   C03464634  -0.633   6.799   7.353
   92SBC   C03564635  -0.542   6.717   7.290
   92SBC   C03664636  -0.436   6.771   7.212
   92SBC   H00564637  -0.373   6.707   7.152
   92SBC   C03764638  -0.416   6.909   7.215
   92SBC   H00664639  -0.336   6.950   7.155
   92SBC   C00D64640  -0.512   6.995   7.280
   92SBC   C00C64641  -0.500   7.132   7.275
   92SBC   C00B64642  -0.398   7.204   7.194
   92SBC   C00A64643  -0.288   7.187   7.087
   92SBC   C00964644  -0.215   7.310   7.093
   92SBC   C00864645  -0.143   7.374   6.983
   92SBC   C00764646  -0.115   7.305   6.873
   92SBC   C00664647  -0.026   7.362   6.780
   92SBC   C00564648  -0.013   7.288   6.659
   92SBC   C00464649  -0.092   7.169   6.630
   92SBC   C00364650  -0.174   7.117   6.730
   92SBC   C00264651  -0.248   6.999   6.706
   92SBC   C01C64652  -0.227   6.924   6.592
   92SBC   C01B64653  -0.280   6.794   6.576
   92SBC   H00064654  -0.324   6.739   6.658
   92SBC   C00164655  -0.343   6.963   6.796
   92SBC   C00064656  -0.369   7.046   6.910
   92SBC   C01U64657  -0.501   7.008   6.954
   92SBC   H00264658  -0.559   7.048   7.036
   92SBC   C01T64659  -0.530   6.881   6.881
   92SBC   O00264660  -0.606   6.794   6.920
   92SBC   O00164661  -0.444   6.874   6.777
   92SBC   C01S64662  -0.186   7.185   6.854
   92SBC   C00N64663  -0.106   7.508   6.999
   92SBC   C00M64664  -0.153   7.583   7.105
   92SBC   C00J64665  -0.245   7.532   7.196
   92SBC   C00I64666  -0.326   7.603   7.276
   92SBC   C00H64667  -0.433   7.547   7.339
   92SBC   C00G64668  -0.464   7.415   7.323
   92SBC   C00F64669  -0.571   7.348   7.372
   92SBC   C01X64670  -0.514   7.616   7.427
   92SBC   C01W64671  -0.490   7.749   7.441
   92SBC   C01V64672  -0.395   7.810   7.362
   92SBC   C02064673  -0.385   7.948   7.358
   92SBC   C01Z64674  -0.577   7.824   7.514
   92SBC   C02Y64675  -0.552   7.960   7.518
   92SBC   C03964676  -0.630   8.042   7.599
   92SBC   C02W64677  -0.690   7.771   7.582
   92SBC   C01Y64678  -0.618   7.554   7.495
   92SBC   C00U64679  -0.312   7.738   7.276
   92SBC   C00S64680  -0.223   7.796   7.192
   92SBC   C00T64681  -0.227   7.935   7.187
   92SBC   C00R64682  -0.151   7.722   7.104
   92SBC   C00Q64683  -0.073   7.782   7.012
   92SBC   C00V64684  -0.069   7.919   7.005
   92SBC   C02464685   0.004   7.981   6.907
   92SBC   C00X64686   0.076   7.909   6.815
   92SBC   C00P64687  -0.007   7.706   6.921
   92SBC   C00O64688  -0.021   7.566   6.913
   92SBC   C00K64689  -0.264   7.392   7.193
   92SBC   N00064690  -0.284   7.143   6.953
   92SBC   C00L64691  -0.378   7.338   7.237
   92SBC   H00464692  -0.548   6.609   7.290
   92SBC   C02Q64693  -0.613   6.940   7.351
   92SBC   C00E64694  -0.587   7.211   7.347
   92SBC   C03064695  -0.882   7.164   7.585
   92SBC   O00364696  -0.956   7.240   7.674
   92SBC   C02S64697  -0.650   7.419   7.466
   92SBC   C03864698  -0.937   7.377   7.684
   92SBC   C03L64699  -1.026   7.453   7.756
   92SBC   H00864700  -1.114   7.408   7.800
   92SBC   C02V64701  -0.703   7.635   7.571
   92SBC   C03K64702  -1.006   7.593   7.765
   92SBC   C0BK64703  -1.091   7.669   7.848
   92SBC   H00T64704  -1.167   7.609   7.895
   92SBC   C03H64705  -0.772   7.856   7.662
   92SBC   C0BL64706  -1.090   7.808   7.868
   92SBC   C0GU64707  -1.185   7.873   7.950
   92SBC   H01O64708  -1.252   7.805   8.001
   92SBC   C0GT64709  -1.187   8.008   7.976
   92SBC   H01P64710  -1.261   8.055   8.040
   92SBC   C0GS64711  -1.092   8.084   7.907
   92SBC   C0GV64712  -1.076   8.223   7.914
   92SBC   C0GW64713  -1.158   8.323   7.976
   92SBC   H01Q64714  -1.249   8.312   8.033
   92SBC   C0GX64715  -1.118   8.452   7.955
   92SBC   H01R64716  -1.190   8.521   7.999
   92SBC   O00L64717  -1.005   8.499   7.888
   92SBC   C0GQ64718  -0.967   8.260   7.834
   92SBC   C03A64719  -0.741   8.000   7.667
   92SBC   C05L64720  -0.923   8.400   7.830
   92SBC   C04W64721  -0.663   8.859   7.537
   92SBC   C05I64722  -0.652   9.001   7.525
   92SBC   C05O64723  -0.724   9.090   7.604
   92SBC   C05264724  -0.583   9.061   7.417
   92SBC   C04V64725  -0.572   8.789   7.459
   92SBC   C04U64726  -0.498   8.849   7.359
   92SBC   N00964727  -0.813   9.033   7.703
   92SBC   C0GP64728  -0.733   9.224   7.581
   92SBC   C05W64729  -0.658   9.287   7.483
   92SBC   C07D64730  -0.570   9.624   7.365
   92SBC   C06J64731  -0.434   9.469   7.175
   92SBC   C05P64732  -0.583   9.203   7.404
   92SBC   C05R64733  -0.375   9.247   7.095
   92SBC   C04Z64734  -0.504   8.986   7.336
   92SBC   C04C64735  -0.302   9.034   7.039
   92SBC   C04G64736  -0.208   8.818   6.976
   92SBC   C04J64737  -0.196   8.543   7.008
   92SBC   C04T64738  -0.418   8.777   7.271
   92SBC   N00364739  -0.561   8.645   7.478
   92SBC   C04P64740  -0.635   8.446   7.588
   92SBC   C03D64741  -0.623   8.179   7.592
   92SBC   C02164742  -0.461   8.030   7.441
   92SBC   C03F64743  -0.388   8.370   7.323
   92SBC   C02264744  -0.305   8.014   7.265
   92SBC   C02A64745  -0.244   8.350   7.134
   92SBC   C02364746  -0.151   7.998   7.089
   92SBC   C02564747  -0.000   8.120   6.884
   92SBC   C02D64748   0.060   8.179   6.770
   92SBC   C02E64749   0.125   8.103   6.676
   92SBC   C02N64750   0.177   8.155   6.553
   92SBC   C04N64751  -0.183   8.411   7.027
   92SBC   C02P64752   0.039   8.317   6.742
   92SBC   C04I64753  -0.138   8.598   6.895
   92SBC   C04464754  -0.019   8.715   6.673
   92SBC   C04364755   0.092   8.372   6.624
   92SBC   C05N64756   0.164   8.290   6.530
   92SBC   C09U64757   0.285   8.474   6.171
   92SBC   C09V64758   0.312   8.536   6.052
   92SBC   C09X64759   0.370   8.474   5.945
   92SBC   C09Y64760   0.393   8.522   5.817
   92SBC   C0A164761   0.356   8.647   5.794
   92SBC   C0A264762   0.301   8.722   5.896
   92SBC   C0A464763   0.274   8.858   5.874
   92SBC   C07164764   0.208   8.932   5.969
   92SBC   C0A564765   0.186   9.068   5.949
   92SBC   C0A964766   0.216   9.124   5.827
   92SBC   C0A864767   0.267   9.046   5.728
   92SBC   C0AP64768   0.289   9.098   5.606
   92SBC   C0BY64769   0.326   9.012   5.505
   92SBC   C0BX64770   0.342   8.878   5.514
   92SBC   C0C264771   0.366   8.795   5.400
   92SBC   C0C364772   0.394   8.658   5.422
   92SBC   C0CT64773   0.408   8.612   5.551
   92SBC   C0C164774   0.360   8.852   5.271
   92SBC   C0C064775   0.349   8.997   5.257
   92SBC   C0A764776   0.335   8.827   5.645
   92SBC   C0BZ64777   0.333   9.069   5.375
   92SBC   C0BO64778   0.307   9.202   5.353
   92SBC   C0BN64779   0.263   9.284   5.455
   92SBC   C0BM64780   0.224   9.409   5.417
   92SBC   C0B964781   0.176   9.492   5.517
   92SBC   C0B864782   0.167   9.439   5.645
   92SBC   C0AD64783   0.204   9.311   5.676
   92SBC   C0AF64784   0.115   9.523   5.742
   92SBC   C0AG64785   0.087   9.661   5.728
   92SBC   C0B764786   0.098   9.707   5.596
   92SBC   C0AE64787   0.109   9.464   5.863
   92SBC   C0AB64788   0.139   9.334   5.901
   92SBC   C0AA64789   0.129   9.281   6.031
   92SBC   C0AJ64790   0.080   9.545   5.971
   92SBC   C0AK64791   0.075   9.498   6.103
   92SBC   C06W64792   0.016   9.595   6.172
   92SBC   C0AI64793   0.050   9.684   5.963
   92SBC   C0BP64794   0.313   9.232   5.220
   92SBC   C0BQ64795   0.284   9.370   5.184
   92SBC   C0BW64796   0.255   9.230   5.581
   92SBC   C0AC64797   0.188   9.256   5.804
   92SBC   C0A664798   0.299   8.909   5.750
   92SBC   C0A364799   0.372   8.695   5.664
   92SBC   C09Z64800   0.447   8.442   5.715
   92SBC   C09W64801   0.271   8.666   6.024
   92SBC   C07264802   0.209   8.739   6.121
   92SBC   C09H64803   0.416   8.348   5.975
   92SBC   C09G64804   0.485   8.278   5.881
   92SBC   C09P64805   0.511   8.155   5.930
   92SBC   C02O64806   0.353   8.024   6.257
   92SBC   C02M64807   0.238   8.069   6.462
   92SBC   C02F64808   0.131   7.971   6.702
   92SBC   C00W64809   0.077   7.772   6.839
   92SBC   C01R64810   0.027   7.490   6.809
   92SBC   C01N64811   0.220   7.662   6.555
   92SBC   C01L64812   0.251   7.573   6.335
   92SBC   C01H64813   0.145   7.273   6.183
   92SBC   C01K64814   0.072   7.336   6.548
   92SBC   C01E64815  -0.084   7.099   6.508
   92SBC   C01G64816   0.062   7.149   6.164
   92SBC   C01D64817  -0.145   6.976   6.489
   92SBC   C01A64818  -0.266   6.725   6.459
   92SBC   H00164819  -0.298   6.622   6.453
   92SBC   C01F64820  -0.075   6.911   6.143
   92SBC   C03P64821  -0.102   6.763   5.900
   92SBC   C03T64822  -0.004   6.941   5.789
   92SBC   C08I64823   0.102   7.073   5.570
   92SBC   C08J64824   0.159   7.141   5.467
   92SBC   C08L64825   0.291   7.326   5.378
   92SBC   C09364826   0.420   7.524   5.292
   92SBC   C08Z64827   0.459   7.597   5.561
   92SBC   C09T64828   0.589   7.967   5.274
   92SBC   C09S64829   0.588   7.866   5.620
   92SBC   C09Q64830   0.548   8.054   5.834
   92SBC   C09F64831   0.489   8.316   5.744
   92SBC   C09E64832   0.576   8.153   5.433
   92SBC   C0A064833   0.451   8.482   5.578
   92SBC   C0CU64834   0.425   8.572   5.313
   92SBC   C0CR64835   0.404   8.630   5.184
   92SBC   C0CZ64836   0.428   8.545   5.072
   92SBC   C0DA64837   0.576   8.120   5.291
   92SBC   C0D964838   0.722   8.210   4.967
   92SBC   H00V64839   0.819   8.171   4.993
   92SBC   C0CY64840   0.488   8.418   5.094
   92SBC   C0DF64841   0.684   8.278   4.841
   92SBC   C0DE64842   0.735   8.340   4.722
   92SBC   C0GI64843   0.835   8.299   4.626
   92SBC   H01K64844   0.896   8.210   4.631
   92SBC   C0GJ64845   0.850   8.380   4.518
   92SBC   H01J64846   0.909   8.336   4.439
   92SBC   O00I64847   0.789   8.499   4.501
   92SBC   C0GH64848   0.685   8.538   4.580
   92SBC   C0GG64849   0.625   8.668   4.556
   92SBC   O00G64850   0.687   8.729   4.448
   92SBC   C0G864851   0.664   8.857   4.416
   92SBC   C0G964852   0.718   8.895   4.297
   92SBC   H01G64853   0.774   8.826   4.235
   92SBC   C0GA64854   0.697   9.027   4.252
   92SBC   H01H64855   0.724   9.043   4.149
   92SBC   C0GB64856   0.627   9.126   4.323
   92SBC   C0EP64857   0.573   9.083   4.443
   92SBC   C0E864858   0.507   9.188   4.524
   92SBC   C0CK64859   0.452   9.203   4.654
   92SBC   C0CL64860   0.388   9.091   4.710
   92SBC   C0E964861   0.414   8.955   4.681
   92SBC   C0GE64862   0.508   8.879   4.595
   92SBC   C0E764863   0.475   9.313   4.467
   92SBC   C0CJ64864   0.398   9.400   4.551
   92SBC   C0E664865   0.348   9.513   4.487
   92SBC   H00Y64866   0.278   9.571   4.547
   92SBC   C0EO64867   0.401   9.554   4.361
   92SBC   H01164868   0.378   9.654   4.326
   92SBC   C0G664869   0.498   9.476   4.291
   92SBC   C0G564870   0.583   9.520   4.185
   92SBC   H01F64871   0.576   9.623   4.151
   92SBC   C0GD64872   0.677   9.437   4.134
   92SBC   H01I64873   0.732   9.473   4.048
   92SBC   O00H64874   0.691   9.303   4.167
   92SBC   C0EQ64875   0.525   9.344   4.342
   92SBC   C0GC64876   0.616   9.260   4.276
   92SBC   C0G764877   0.576   8.945   4.489
   92SBC   C0DD64878   0.652   8.451   4.688
   92SBC   C0GF64879   0.520   8.738   4.621
   92SBC   C0CO64880   0.329   8.889   4.769
   92SBC   C0D064881   0.408   8.605   4.943
   92SBC   C0C464882   0.366   8.763   5.161
   92SBC   C0CN64883   0.258   8.971   4.858
   92SBC   C0CP64884   0.343   9.103   5.163
   92SBC   C0CM64885   0.288   9.101   4.816
   92SBC   C0CI64886   0.395   9.336   4.678
   92SBC   C0CD64887   0.324   9.749   4.897
   92SBC   C0BR64888   0.300   9.408   5.054
   92SBC   C0CS64889   0.237   9.453   5.285
   92SBC   C0B664890   0.136   9.623   5.491
   92SBC   C0CG64891   0.220   9.773   5.111
   92SBC   C0CF64892   0.264   9.829   4.992
   92SBC   C0E564893   0.368   9.947   4.763
   92SBC   C0DT64894   0.316  10.205   4.704
   92SBC   C0DL64895   0.165  10.185   5.039
   92SBC   C0DM64896   0.128  10.269   5.145
   92SBC   C0DY64897   0.138  10.458   4.991
   92SBC   C0DU64898   0.288  10.337   4.679
   92SBC   C0F064899   0.345  10.529   4.545
   92SBC   C0F464900   0.407  10.798   4.523
   92SBC   C0FG64901   0.177  10.778   4.816
   92SBC   O00B64902   0.425  11.002   4.670
   92SBC   C0FN64903   0.185  10.862   4.916
   92SBC   C0DZ64904   0.144  10.597   4.971
   92SBC   O00C64905   0.103  10.711   5.309
   92SBC   C0FR64906   0.080  10.674   5.438
   92SBC   O00D64907   0.090  10.766   5.521
   92SBC   C0E064908   0.117  10.406   5.118
   92SBC   C0E364909   0.064  10.532   5.456
   92SBC   C0AW64910   0.039  10.474   5.582
   92SBC   C0AV64911   0.018  10.550   5.701
   92SBC   H00Q64912   0.004  10.657   5.694
   92SBC   C0AU64913  -0.021  10.495   5.826
   92SBC   H00R64914  -0.054  10.557   5.908
   92SBC   C0AT64915  -0.010  10.355   5.833
   92SBC   C0AS64916  -0.019  10.255   5.938
   92SBC   C0AR64917  -0.046  10.296   6.071
   92SBC   C0BE64918   0.015  10.282   5.722
   92SBC   C0DN64919   0.104  10.217   5.268
   92SBC   C0AX64920   0.035  10.337   5.594
   92SBC   C0BB64921   0.091  10.028   5.419
   92SBC   C0BD64922   0.005  10.149   5.747
   92SBC   C0B264923   0.075   9.842   5.575
   92SBC   C0AH64924   0.054   9.746   5.836
   92SBC   C0BF64925  -0.007  10.119   5.883
   92SBC   C0AL64926   0.016   9.716   6.097
   92SBC   C07U64927  -0.063  10.056   6.183
   92SBC   C0AQ64928  -0.069  10.199   6.180
   92SBC   C0BG64929  -0.075  10.428   6.134
   92SBC   C0FY64930  -0.054  10.507   6.478
   92SBC   C0BJ64931   0.012  10.544   6.137
   92SBC   H00S64932   0.087  10.578   6.067
   92SBC   C0FZ64933   0.043  10.612   6.483
   92SBC   C07S64934  -0.042  10.396   6.566
   92SBC   C0G164935   0.202  10.559   6.798
   92SBC   C07K64936   0.112  10.276   7.015
   92SBC   C07H64937  -0.015  10.192   6.771
   92SBC   C06B64938  -0.225   9.994   6.981
   92SBC   C06N64939  -0.201   9.790   6.866
   92SBC   C06664940  -0.084  10.032   6.579
   92SBC   C06264941  -0.092   9.763   6.414
   92SBC   C05Y64942  -0.197   9.566   6.728
   92SBC   C06164943  -0.126   9.631   6.371
   92SBC   C05H64944  -0.088   9.310   6.535
   92SBC   C06V64945  -0.043   9.553   6.288
   92SBC   C06Y64946   0.085   9.359   6.132
   92SBC   C05C64947   0.014   9.106   6.393
   92SBC   C06Z64948   0.146   9.147   6.057
   92SBC   C07064949   0.176   8.874   6.091
   92SBC   C05B64950   0.038   8.970   6.413
   92SBC   C05764951   0.096   8.700   6.465
   92SBC   C05964952   0.180   8.682   6.247
   93SBC   C05864953   0.341   5.372   4.716
   93SBC   C05A64954   0.261   5.329   4.821
   93SBC   C06Q64955   0.193   5.421   4.897
   93SBC   C06R64956   0.118   5.380   5.013
   93SBC   C06S64957   0.105   5.244   5.046
   93SBC   C06T64958   0.038   5.206   5.162
   93SBC   C06U64959   0.019   5.072   5.226
   93SBC   C06X64960   0.051   4.946   5.186
   93SBC   C06064961   0.019   4.846   5.289
   93SBC   C05Z64962  -0.044   4.712   5.285
   93SBC   C06864963  -0.120   4.716   5.416
   93SBC   C06764964  -0.176   4.598   5.484
   93SBC   C06964965  -0.195   4.470   5.412
   93SBC   C06A64966  -0.243   4.345   5.468
   93SBC   C07364967  -0.218   4.284   5.596
   93SBC   C07P64968  -0.186   4.148   5.600
   93SBC   C07O64969  -0.112   4.071   5.497
   93SBC   H00D64970  -0.080   4.128   5.411
   93SBC   C07N64971  -0.095   3.933   5.492
   93SBC   H00E64972  -0.051   3.886   5.405
   93SBC   C07M64973  -0.148   3.866   5.597
   93SBC   H00F64974  -0.132   3.759   5.596
   93SBC   C07L64975  -0.211   3.930   5.708
   93SBC   C07Q64976  -0.269   3.858   5.825
   93SBC   H00G64977  -0.280   3.751   5.817
   93SBC   O00F64978  -0.356   3.913   5.912
   93SBC   C07J64979  -0.347   4.051   5.927
   93SBC   C07I64980  -0.285   4.131   5.820
   93SBC   N00464981  -0.270   4.270   5.829
   93SBC   C07R64982  -0.310   4.331   5.952
   93SBC   C07T64983  -0.378   4.255   6.049
   93SBC   C0FX64984  -0.448   4.315   6.156
   93SBC   C0FW64985  -0.522   4.253   6.253
   93SBC   C0G064986  -0.537   4.111   6.239
   93SBC   C0G264987  -0.608   4.037   6.337
   93SBC   H01E64988  -0.611   3.930   6.322
   93SBC   C0G364989  -0.672   4.103   6.443
   93SBC   H01C64990  -0.729   4.042   6.510
   93SBC   C0G464991  -0.657   4.249   6.452
   93SBC   H01D64992  -0.704   4.290   6.540
   93SBC   O00E64993  -0.476   4.049   6.133
   93SBC   C0FV64994  -0.583   4.322   6.360
   93SBC   C0FU64995  -0.556   4.463   6.371
   93SBC   H01B64996  -0.599   4.506   6.460
   93SBC   C0FT64997  -0.489   4.526   6.270
   93SBC   C0FS64998  -0.452   4.661   6.227
   93SBC   C0BI64999  -0.335   4.646   6.148
   93SBC   C0BH65000  -0.297   4.760   6.086
   93SBC   C07F65001  -0.295   4.776   5.946
   93SBC   C07E65002  -0.259   4.685   5.849
   93SBC   C07G65003  -0.257   4.549   5.858
   93SBC   C07465004  -0.229   4.498   5.733
   93SBC   C06565005  -0.238   4.722   5.717
   93SBC   C06465006  -0.248   4.861   5.694
   93SBC   C06365007  -0.213   4.926   5.575
   93SBC   C07565008  -0.238   5.070   5.604
   93SBC   C0AM65009  -0.307   5.091   5.729
   93SBC   C0AN65010  -0.356   5.220   5.788
   93SBC   C0AO65011  -0.363   5.361   5.734
   93SBC   C0B165012  -0.430   5.467   5.799
   93SBC   C0B065013  -0.479   5.446   5.925
   93SBC   C0AZ65014  -0.539   5.545   6.005
   93SBC   C0AY65015  -0.581   5.517   6.138
   93SBC   N00765016  -0.644   5.614   6.216
   93SBC   C0E265017  -0.683   5.588   6.347
   93SBC   C0E165018  -0.749   5.690   6.417
   93SBC   C0E465019  -0.777   5.668   6.551
   93SBC   C0FF65020  -0.846   5.760   6.632
   93SBC   C0FJ65021  -0.887   5.763   6.766
   93SBC   C0FK65022  -0.809   5.701   6.871
   93SBC   H01665023  -0.725   5.634   6.857
   93SBC   C0FL65024  -0.844   5.781   6.992
   93SBC   H01765025  -0.795   5.788   7.088
   93SBC   C0FM65026  -0.943   5.877   6.954
   93SBC   C0FH65027  -0.985   6.017   6.982
   93SBC   C0FI65028  -1.023   6.059   6.850
   93SBC   C0F365029  -1.014   6.193   6.805
   93SBC   C0F265030  -1.002   6.208   6.673
   93SBC   C0DW65031  -0.969   6.110   6.586
   93SBC   C0FE65032  -0.961   5.984   6.631
   93SBC   C0DV65033  -0.914   6.134   6.463
   93SBC   C0DX65034  -0.853   6.034   6.391
   93SBC   C0DK65035  -0.794   6.068   6.266
   93SBC   C0DJ65036  -0.786   6.204   6.228
   93SBC   C0DI65037  -0.721   6.234   6.108
   93SBC   C0DH65038  -0.679   6.134   6.026
   93SBC   C0DG65039  -0.685   6.003   6.066
   93SBC   C0BV65040  -0.627   5.901   5.985
   93SBC   C0BC65041  -0.612   5.773   6.036
   93SBC   C0BA65042  -0.568   5.938   5.860
   93SBC   C0B465043  -0.517   5.838   5.778
   93SBC   C0B365044  -0.513   5.702   5.824
   93SBC   C0B565045  -0.464   5.868   5.656
   93SBC   C0BU65046  -0.463   6.003   5.615
   93SBC   C0BT65047  -0.521   6.103   5.696
   93SBC   C0BS65048  -0.517   6.241   5.651
   93SBC   C0CC65049  -0.555   6.340   5.740
   93SBC   C0CB65050  -0.524   6.471   5.714
   93SBC   C0CH65051  -0.517   6.553   5.830
   93SBC   C0DO65052  -0.579   6.521   5.953
   93SBC   C0DP65053  -0.587   6.616   6.054
   93SBC   C0EA65054  -0.505   6.735   6.049
   93SBC   H01265055  -0.437   6.757   5.967
   93SBC   O00965056  -0.517   6.832   6.141
   93SBC   C0EH65057  -0.600   6.815   6.247
   93SBC   C0EG65058  -0.605   6.917   6.345
   93SBC   C0EJ65059  -0.530   7.038   6.376
   93SBC   H01065060  -0.445   7.078   6.324
   93SBC   C0EK65061  -0.581   7.093   6.502
   93SBC   H00Z65062  -0.546   7.188   6.541
   93SBC   C0EL65063  -0.679   6.999   6.543
   93SBC   C0EM65064  -0.757   6.995   6.662
   93SBC   C0EW65065  -0.766   7.101   6.761
   93SBC   H01365066  -0.722   7.197   6.738
   93SBC   C0EX65067  -0.835   7.087   6.880
   93SBC   H01465068  -0.828   7.160   6.960
   93SBC   C0F165069  -0.881   6.953   6.905
   93SBC   C0EU65070  -0.891   6.858   6.804
   93SBC   C0ET65071  -0.929   6.724   6.813
   93SBC   C0ES65072  -0.910   6.675   6.679
   93SBC   C0EE65073  -0.836   6.768   6.600
   93SBC   C0ED65074  -0.769   6.775   6.477
   93SBC   C0EC65075  -0.756   6.670   6.384
   93SBC   C0EB65076  -0.815   6.544   6.396
   93SBC   C0EN65077  -0.900   6.495   6.508
   93SBC   C0ER65078  -0.950   6.365   6.507
   93SBC   C0DS65079  -0.802   6.442   6.292
   93SBC   C0DR65080  -0.725   6.468   6.180
   93SBC   C0EY65081  -0.942   6.548   6.636
   93SBC   C0EZ65082  -0.981   6.448   6.727
   93SBC   C0F565083  -0.989   6.425   6.875
   93SBC   C0F665084  -0.974   6.530   6.968
   93SBC   N00865085  -0.976   6.483   7.103
   93SBC   C0F765086  -0.982   6.346   7.141
   93SBC   C0FQ65087  -0.975   6.313   7.277
   93SBC   H01865088  -0.984   6.209   7.307
   93SBC   C0FP65089  -0.984   6.412   7.374
   93SBC   H01965090  -0.980   6.379   7.476
   93SBC   C0FO65091  -0.983   6.550   7.338
   93SBC   H01A65092  -0.985   6.624   7.416
   93SBC   C0F865093  -0.982   6.249   7.041
   93SBC   C0F965094  -0.978   6.582   7.202
   93SBC   C0FA65095  -0.965   6.719   7.178
   93SBC   H01565096  -0.948   6.788   7.259
   93SBC   C0FB65097  -0.941   6.765   7.049
   93SBC   C0FD65098  -0.957   6.670   6.944
   93SBC   C0FC65099  -0.912   6.905   7.038
   93SBC   O00A65100  -0.913   6.988   7.131
   93SBC   C0EV65101  -0.831   6.882   6.685
   93SBC   C0EF65102  -0.692   6.896   6.451
   93SBC   C0EI65103  -0.672   6.688   6.268
   93SBC   C0DQ65104  -0.661   6.593   6.167
   93SBC   C0CE65105  -0.629   6.396   5.970
   93SBC   H00U65106  -0.471   6.649   5.813
   93SBC   C0CA65107  -0.504   6.510   5.579
   93SBC   C0C965108  -0.475   6.415   5.477
   93SBC   C0C865109  -0.447   6.463   5.343
   93SBC   C0C765110  -0.357   6.418   5.236
   93SBC   C0C665111  -0.351   6.497   5.116
   93SBC   C0C565112  -0.252   6.527   5.013
   93SBC   C0CQ65113  -0.270   6.648   4.944
   93SBC   C0D165114  -0.329   6.750   5.014
   93SBC   C0D865115  -0.258   6.870   5.006
   93SBC   C0D765116  -0.187   6.852   4.887
   93SBC   C0D665117  -0.095   6.945   4.830
   93SBC   C0D565118  -0.008   6.920   4.720
   93SBC   C0D465119   0.042   6.800   4.662
   93SBC   C0D365120   0.169   6.823   4.613
   93SBC   C0CX65121   0.232   6.694   4.606
   93SBC   C0CW65122   0.151   6.598   4.688
   93SBC   C0CV65123   0.157   6.457   4.728
   93SBC   C0D265124   0.264   6.374   4.687
   93SBC   C09D65125   0.380   6.407   4.605
   93SBC   C09C65126   0.474   6.304   4.564
   93SBC   C09B65127   0.584   6.320   4.474
   93SBC   C09A65128   0.601   6.452   4.421
   93SBC   C09965129   0.530   6.551   4.475
   93SBC   C09865130   0.538   6.656   4.386
   93SBC   C08Y65131   0.611   6.616   4.269
   93SBC   C08X65132   0.608   6.668   4.135
   93SBC   C08W65133   0.533   6.788   4.105
   93SBC   C08U65134   0.451   6.863   4.197
   93SBC   C08V65135   0.396   6.848   4.329
   93SBC   C0DC65136   0.353   6.980   4.380
   93SBC   H00W65137   0.327   7.003   4.483
   93SBC   C0DB65138   0.368   7.079   4.276
   93SBC   H00X65139   0.336   7.182   4.281
   93SBC   C08T65140   0.420   6.998   4.166
   93SBC   C08S65141   0.432   7.046   4.036
   93SBC   H00N65142   0.398   7.145   4.010
   93SBC   C08R65143   0.475   6.962   3.935
   93SBC   C08Q65144   0.474   7.000   3.796
   93SBC   H00O65145   0.447   7.098   3.763
   93SBC   C08P65146   0.527   6.919   3.692
   93SBC   C08O65147   0.526   6.960   3.557
   93SBC   H00P65148   0.489   7.056   3.525
   93SBC   C08N65149   0.575   6.870   3.453
   93SBC   C08M65150   0.587   6.921   3.322
   93SBC   O00865151   0.550   7.032   3.281
   93SBC   O00765152   0.637   6.835   3.232
   93SBC   C08H65153   0.673   6.706   3.256
   93SBC   C08G65154   0.719   6.612   3.156
   93SBC   C03V65155   0.721   6.626   3.017
   93SBC   H00965156   0.689   6.720   2.975
   93SBC   C03U65157   0.762   6.525   2.925
   93SBC   C03W65158   0.754   6.536   2.785
   93SBC   H00A65159   0.721   6.630   2.743
   93SBC   C03X65160   0.789   6.435   2.707
   93SBC   H00B65161   0.790   6.439   2.599
   93SBC   O00565162   0.833   6.311   2.762
   93SBC   C03O65163   0.835   6.302   2.897
   93SBC   C03N65164   0.882   6.178   2.955
   93SBC   O00065165   0.919   6.083   2.864
   93SBC   C01965166   0.954   5.959   2.912
   93SBC   C01865167   0.956   5.934   3.051
   93SBC   C01765168   0.925   6.036   3.140
   93SBC   C01665169   0.929   6.006   3.278
   93SBC   C01565170   0.965   5.877   3.312
   93SBC   C01465171   0.982   5.846   3.441
   93SBC   C01365172   0.954   5.942   3.544
   93SBC   C01265173   0.964   5.860   3.666
   93SBC   C01165174   0.995   5.729   3.621
   93SBC   C01065175   1.008   5.630   3.704
   93SBC   C00Z65176   1.026   5.493   3.678
   93SBC   C00Y65177   1.000   5.433   3.804
   93SBC   C01O65178   0.974   5.524   3.906
   93SBC   C01P65179   0.875   5.498   3.999
   93SBC   C02L65180   0.831   5.605   4.069
   93SBC   C02K65181   0.861   5.733   4.023
   93SBC   C01M65182   0.923   5.761   3.894
   93SBC   C02J65183   0.826   5.836   4.109
   93SBC   C02I65184   0.839   5.972   4.094
   93SBC   C02H65185   0.884   6.048   3.982
   93SBC   C01Q65186   0.911   6.005   3.847
   93SBC   C02G65187   0.909   6.121   3.770
   93SBC   C08965188   0.906   6.238   3.857
   93SBC   C08865189   0.841   6.345   3.793
   93SBC   C08765190   0.837   6.298   3.655
   93SBC   C08665191   0.789   6.368   3.540
   93SBC   C03S65192   0.812   6.343   3.400
   93SBC   N00665193   0.766   6.455   3.333
   93SBC   C08F65194   0.718   6.545   3.421
   93SBC   C01J65195   0.851   6.235   3.321
   93SBC   C03R65196   0.853   6.258   3.181
   93SBC   C03Q65197   0.805   6.384   3.124
   93SBC   C08E65198   0.733   6.500   3.548
   93SBC   C08D65199   0.690   6.580   3.660
   93SBC   C08K65200   0.628   6.707   3.626
   93SBC   C08C65201   0.706   6.557   3.798
   93SBC   C09165202   0.647   6.646   3.887
   93SBC   C09265203   0.588   6.771   3.862
   93SBC   C08B65204   0.771   6.452   3.862
   93SBC   C09065205   0.744   6.475   4.004
   93SBC   C09465206   0.792   6.394   4.115
   93SBC   C09565207   0.732   6.392   4.242
   93SBC   C09R65208   0.740   6.265   4.305
   93SBC   C09765209   0.801   6.178   4.214
   93SBC   C09665210   0.828   6.252   4.098
   93SBC   C01I65211   0.895   6.162   3.630
   93SBC   C08A65212   0.883   6.186   3.985
   93SBC   C09L65213   0.805   6.035   4.214
   93SBC   C09K65214   0.766   5.930   4.307
   93SBC   C09J65215   0.694   5.958   4.427
   93SBC   C09I65216   0.611   5.867   4.491
   93SBC   C09O65217   0.574   5.728   4.483
   93SBC   C09N65218   0.625   5.636   4.383
   93SBC   C09M65219   0.711   5.673   4.275
   93SBC   C06O65220   0.588   5.502   4.400
   93SBC   C05M65221   0.502   5.459   4.504
   93SBC   C06P65222   0.441   5.552   4.586
   93SBC   C04265223   0.475   5.324   4.531
   93SBC   C04165224   0.508   5.234   4.430
   93SBC   C04065225   0.467   5.102   4.437
   93SBC   C03Z65226   0.502   5.009   4.345
   93SBC   C03Y65227   0.580   5.047   4.237
   93SBC   C02765228   0.619   4.952   4.142
   93SBC   C02665229   0.702   4.985   4.038
   93SBC   C02865230   0.748   4.888   3.947
   93SBC   C02965231   0.700   4.758   3.956
   93SBC   C02B65232   0.747   4.667   3.866
   93SBC   C02C65233   0.697   4.542   3.874
   93SBC   C02X65234   0.737   4.446   3.786
   93SBC   C03E65235   0.683   4.320   3.793
   93SBC   C03G65236   0.598   4.278   3.884
   93SBC   C04Q65237   0.562   4.367   3.983
   93SBC   C04R65238   0.473   4.330   4.081
   93SBC   C04S65239   0.435   4.424   4.177
   93SBC   C04L65240   0.486   4.552   4.175
   93SBC   C04M65241   0.567   4.594   4.072
   93SBC   C04K65242   0.447   4.645   4.264
   93SBC   C04F65243   0.371   4.609   4.371
   93SBC   C04E65244   0.324   4.481   4.380
   93SBC   C04D65245   0.245   4.445   4.495
   93SBC   C05065246   0.196   4.315   4.502
   93SBC   C05165247   0.127   4.275   4.616
   93SBC   C05Q65248   0.079   4.147   4.629
   93SBC   C05V65249   0.014   4.112   4.744
   93SBC   N00565250  -0.036   3.982   4.753
   93SBC   C07V65251  -0.007   3.892   4.646
   93SBC   C08265252  -0.051   3.756   4.661
   93SBC   C08165253  -0.122   3.711   4.771
   93SBC   C07C65254  -0.156   3.806   4.869
   93SBC   C07B65255  -0.230   3.766   4.982
   93SBC   C08065256  -0.265   3.633   5.001
   93SBC   C07Z65257  -0.334   3.598   5.117
   93SBC   H00L65258  -0.351   3.493   5.138
   93SBC   C07965259  -0.383   3.690   5.211
   93SBC   C07865260  -0.348   3.825   5.188
   93SBC   C07765261  -0.392   3.920   5.272
   93SBC   C07X65262  -0.483   3.885   5.375
   93SBC   H00I65263  -0.534   3.965   5.427
   93SBC   C07Y65264  -0.513   3.752   5.407
   93SBC   H00H65265  -0.581   3.730   5.488
   93SBC   C07665266  -0.352   4.053   5.262
   93SBC   C06C65267  -0.365   4.146   5.369
   93SBC   H00C65268  -0.416   4.127   5.462
   93SBC   C06F65269  -0.267   4.092   5.156
   93SBC   C06E65270  -0.210   4.218   5.147
   93SBC   C06G65271  -0.117   4.259   5.054
   93SBC   C06H65272  -0.092   4.164   4.950
   93SBC   C06I65273  -0.145   4.033   4.959
   93SBC   C06L65274  -0.072   4.392   5.054
   93SBC   C06M65275  -0.090   4.488   5.163
   93SBC   C06K65276   0.011   4.425   4.946
   93SBC   C05S65277   0.036   4.331   4.842
   93SBC   C05U65278   0.061   4.555   4.934
   93SBC   C05X65279   0.037   4.653   5.040
   93SBC   C05G65280   0.094   4.781   5.007
   93SBC   C05F65281   0.162   4.801   4.890
   93SBC   C05E65282   0.197   4.932   4.871
   93SBC   C04865283   0.266   4.976   4.761
   93SBC   C05665284   0.293   5.107   4.758
   93SBC   C04565285   0.371   5.146   4.648
   93SBC   C04765286   0.297   4.883   4.668
   93SBC   C04965287   0.251   4.749   4.684
   93SBC   C04B65288   0.268   4.658   4.581
   93SBC   C04665289   0.360   4.922   4.557
   93SBC   C04H65290   0.387   4.834   4.461
   93SBC   C05D65291   0.145   5.011   4.972
   93SBC   C04A65292   0.187   4.706   4.797
   93SBC   C05T65293   0.136   4.585   4.820
   93SBC   C05565294   0.151   4.492   4.712
   93SBC   C06D65295  -0.234   4.309   5.251
   93SBC   C07W65296  -0.230   3.996   5.062
   93SBC   C08565297  -0.454   3.654   5.330
   93SBC   H00M65298  -0.478   3.550   5.348
   93SBC   C08465299  -0.243   3.543   4.895
   93SBC   H00J65300  -0.285   3.444   4.897
   93SBC   C07A65301  -0.271   3.861   5.078
   93SBC   C08365302  -0.165   3.584   4.788
   93SBC   H00K65303  -0.132   3.503   4.724
   93SBC   O00K65304  -0.019   3.664   4.560
   93SBC   C0GO65305   0.024   3.715   4.439
   93SBC   C0GN65306   0.021   3.631   4.328
   93SBC   H01L65307  -0.031   3.536   4.329
   93SBC   C0GM65308   0.072   3.676   4.200
   93SBC   C0GL65309   0.048   3.609   4.089
   93SBC   H01M65310  -0.012   3.520   4.099
   93SBC   O00J65311   0.097   3.648   3.962
   93SBC   C0GK65312   0.175   3.763   3.964
   93SBC   H01N65313   0.209   3.796   3.867
   93SBC   C05K65314   0.203   3.834   4.080
   93SBC   C05J65315   0.282   3.953   4.073
   93SBC   C04Y65316   0.376   3.996   3.973
   93SBC   C04X65317   0.450   4.116   3.978
   93SBC   O00665318   0.402   3.914   3.868
   93SBC   C05365319   0.482   3.948   3.761
   93SBC   C04O65320   0.557   4.067   3.766
   93SBC   C03C65321   0.640   4.117   3.665
   93SBC   C03B65322   0.679   4.082   3.526
   93SBC   C05465323   0.619   3.978   3.457
   93SBC   C0GR65324   0.650   3.951   3.320
   93SBC   C03M65325   0.717   4.023   3.205
   93SBC   C03I65326   0.777   4.156   3.214
   93SBC   C03J65327   0.819   4.215   3.092
   93SBC   N00265328   0.874   4.354   3.090
   93SBC   C02U65329   0.903   4.418   2.964
   93SBC   C02T65330   0.942   4.554   2.961
   93SBC   C02Z65331   0.970   4.615   2.843
   93SBC   N00165332   1.012   4.746   2.838
   93SBC   C02R65333   1.026   4.813   2.714
   93SBC   C03265334   1.007   4.738   2.597
   93SBC   C03165335   0.961   4.602   2.603
   93SBC   H00765336   0.943   4.541   2.515
   93SBC   C03365337   1.051   4.798   2.476
   93SBC   H00365338   1.037   4.744   2.384
   93SBC   O00465339   1.075   4.931   2.470
   93SBC   C03465340   1.111   5.000   2.582
   93SBC   C03565341   1.183   5.125   2.575
   93SBC   C03665342   1.231   5.184   2.693
   93SBC   H00565343   1.294   5.269   2.671
   93SBC   C03765344   1.199   5.123   2.818
   93SBC   H00665345   1.239   5.169   2.907
   93SBC   C00D65346   1.118   5.009   2.827
   93SBC   C00C65347   1.079   4.952   2.948
   93SBC   C00B65348   1.087   5.030   3.072
   93SBC   C00A65349   1.114   5.169   3.129
   93SBC   C00965350   1.119   5.147   3.269
   93SBC   C00865351   1.102   5.244   3.371
   93SBC   C00765352   1.074   5.371   3.330
   93SBC   C00665353   1.053   5.463   3.431
   93SBC   C00565354   1.035   5.597   3.395
   93SBC   C00465355   1.020   5.641   3.263
   93SBC   C00365356   1.033   5.540   3.160
   93SBC   C00265357   1.002   5.570   3.029
   93SBC   C01C65358   0.994   5.701   2.987
   93SBC   C01B65359   0.997   5.731   2.849
   93SBC   H00065360   1.020   5.661   2.771
   93SBC   C00165361   0.990   5.466   2.932
   93SBC   C00065362   1.008   5.331   2.976
   93SBC   C01U65363   0.928   5.257   2.880
   93SBC   H00265364   0.896   5.154   2.885
   93SBC   C01T65365   0.872   5.354   2.782
   93SBC   O00265366   0.818   5.334   2.674
   93SBC   O00165367   0.904   5.471   2.829
   93SBC   C01S65368   1.061   5.406   3.194
   93SBC   C00N65369   1.076   5.185   3.498
   93SBC   C00M65370   1.057   5.047   3.524
   93SBC   C00J65371   1.083   4.956   3.424
   93SBC   C00I65372   1.043   4.828   3.430
   93SBC   C00H65373   1.035   4.752   3.312
   93SBC   C00G65374   1.064   4.805   3.186
   93SBC   C00F65375   1.015   4.753   3.071
   93SBC   C01X65376   0.980   4.622   3.319
   93SBC   C01W65377   0.944   4.566   3.438
   93SBC   C01V65378   0.930   4.652   3.546
   93SBC   C02065379   0.862   4.610   3.663
   93SBC   C01Z65380   0.884   4.440   3.443
   93SBC   C02Y65381   0.825   4.403   3.563
   93SBC   C03965382   0.765   4.280   3.572
   93SBC   C02W65383   0.861   4.364   3.329
   93SBC   C01Y65384   0.947   4.558   3.203
   93SBC   C00U65385   0.981   4.779   3.541
   93SBC   C00S65386   0.955   4.867   3.644
   93SBC   C00T65387   0.878   4.833   3.749
   93SBC   C00R65388   0.994   4.997   3.637
   93SBC   C00Q65389   0.949   5.095   3.726
   93SBC   C00V65390   0.875   5.054   3.836
   93SBC   C02465391   0.831   5.148   3.929
   93SBC   C00X65392   0.882   5.273   3.920
   93SBC   C00P65393   0.987   5.225   3.709
   93SBC   C00O65394   1.038   5.278   3.592
   93SBC   C00K65395   1.113   5.008   3.298
   93SBC   N00065396   1.060   5.298   3.098
   93SBC   C00L65397   1.094   4.940   3.183
   93SBC   H00465398   1.206   5.166   2.478
   93SBC   C02Q65399   1.081   4.939   2.711
   93SBC   C00E65400   1.032   4.819   2.952
   93SBC   C03065401   0.941   4.536   2.725
   93SBC   O00365402   0.901   4.405   2.725
   93SBC   C02S65403   0.972   4.618   3.080
   93SBC   C03865404   0.888   4.344   2.847
   93SBC   C03L65405   0.854   4.208   2.853
   93SBC   H00865406   0.855   4.157   2.758
   93SBC   C02V65407   0.897   4.425   3.211
   93SBC   C03K65408   0.815   4.145   2.972
   93SBC   C0BK65409   0.773   4.015   2.976
   93SBC   H00T65410   0.770   3.953   2.888
   93SBC   C03H65411   0.796   4.236   3.330
   93SBC   C0BL65412   0.726   3.951   3.088
   93SBC   C0GU65413   0.683   3.819   3.079
   93SBC   H01O65414   0.698   3.761   2.989
   93SBC   C0GT65415   0.621   3.746   3.185
   93SBC   H01P65416   0.596   3.642   3.169
   93SBC   C0GS65417   0.602   3.821   3.298
   93SBC   C0GV65418   0.524   3.788   3.409
   93SBC   C0GW65419   0.420   3.691   3.417
   93SBC   H01Q65420   0.401   3.631   3.329
   93SBC   C0GX65421   0.353   3.678   3.537
   93SBC   H01R65422   0.268   3.612   3.533
   93SBC   O00L65423   0.378   3.752   3.651
   93SBC   C0GQ65424   0.537   3.879   3.517
   93SBC   C03A65425   0.753   4.191   3.466
   93SBC   C05L65426   0.470   3.860   3.643
   93SBC   C04W65427   0.264   4.043   4.182
   93SBC   C05I65428   0.195   4.006   4.296
   93SBC   C05O65429   0.141   3.880   4.312
   93SBC   C05265430   0.177   4.097   4.403
   93SBC   C04V65431   0.319   4.168   4.182
   93SBC   C04U65432   0.297   4.265   4.283
   93SBC   N00965433   0.139   3.800   4.199
   93SBC   C0GP65434   0.078   3.843   4.431
   93SBC   C05W65435   0.065   3.930   4.537
   93SBC   C07D65436  -0.115   3.939   4.858
   93SBC   C06J65437  -0.013   4.200   4.846
   93SBC   C05P65438   0.107   4.064   4.523
   93SBC   C05R65439   0.109   4.363   4.727
   93SBC   C04Z65440   0.217   4.230   4.393
   93SBC   C04C65441   0.218   4.533   4.592
   93SBC   C04G65442   0.342   4.699   4.470
   93SBC   C04J65443   0.491   4.779   4.257
   93SBC   C04T65444   0.351   4.388   4.280
   93SBC   N00365445   0.423   4.200   4.088
   93SBC   C04P65446   0.540   4.153   3.878
   93SBC   C03D65447   0.698   4.243   3.683
   93SBC   C02165448   0.810   4.484   3.674
   93SBC   C03F65449   0.606   4.499   3.978
   93SBC   C02265450   0.839   4.699   3.765
   93SBC   C02A65451   0.613   4.725   4.062
   93SBC   C02365452   0.836   4.924   3.848
   93SBC   C02565453   0.745   5.112   4.030
   93SBC   C02D65454   0.715   5.207   4.125
   93SBC   C02E65455   0.757   5.340   4.118
   93SBC   C02N65456   0.719   5.438   4.203
   93SBC   C04N65457   0.577   4.821   4.155
   93SBC   C02P65458   0.629   5.176   4.234
   93SBC   C04I65459   0.459   4.873   4.354
   93SBC   C04465460   0.398   5.057   4.545
   93SBC   C04365461   0.592   5.272   4.325
   93SBC   C05N65462   0.638   5.405   4.315
   93SBC   C09U65463   0.471   5.686   4.572
   93SBC   C09V65464   0.393   5.777   4.646
   93SBC   C09X65465   0.404   5.908   4.632
   93SBC   C09Y65466   0.326   6.004   4.697
   93SBC   C0A165467   0.240   5.962   4.788
   93SBC   C0A265468   0.232   5.827   4.814
   93SBC   C0A465469   0.148   5.785   4.916
   93SBC   C07165470   0.137   5.647   4.943
   93SBC   C0A565471   0.057   5.609   5.052
   93SBC   C0A965472  -0.023   5.699   5.119
   93SBC   C0A865473  -0.019   5.831   5.083
   93SBC   C0AP65474  -0.101   5.918   5.144
   93SBC   C0BY65475  -0.098   6.052   5.098
   93SBC   C0BX65476  -0.016   6.103   5.001
   93SBC   C0C265477  -0.022   6.239   4.967
   93SBC   C0C365478   0.064   6.287   4.870
   93SBC   C0CT65479   0.154   6.195   4.815
   93SBC   C0C165480  -0.113   6.326   5.032
   93SBC   C0C065481  -0.180   6.275   5.154
   93SBC   C0A765482   0.066   6.013   4.945
   93SBC   C0BZ65483  -0.170   6.137   5.175
   93SBC   C0BO65484  -0.252   6.101   5.277
   93SBC   C0BN65485  -0.264   5.966   5.317
   93SBC   C0BM65486  -0.333   5.939   5.427
   93SBC   C0B965487  -0.330   5.805   5.470
   93SBC   C0B865488  -0.259   5.711   5.401
   93SBC   C0AD65489  -0.190   5.748   5.285
   93SBC   C0AF65490  -0.254   5.580   5.448
   93SBC   C0AG65491  -0.315   5.538   5.568
   93SBC   C0B765492  -0.385   5.636   5.630
   93SBC   C0AE65493  -0.185   5.495   5.369
   93SBC   C0AB65494  -0.106   5.528   5.258
   93SBC   C0AA65495  -0.020   5.439   5.197
   93SBC   C0AJ65496  -0.172   5.361   5.417
   93SBC   C0AK65497  -0.088   5.273   5.351
   93SBC   C06W65498  -0.106   5.158   5.417
   93SBC   C0AI65499  -0.236   5.306   5.528
   93SBC   C0BP65500  -0.312   6.208   5.341
   93SBC   C0BQ65501  -0.401   6.177   5.451
   93SBC   C0BW65502  -0.188   5.879   5.247
   93SBC   C0AC65503  -0.105   5.658   5.219
   93SBC   C0A665504   0.065   5.879   4.982
   93SBC   C0A365505   0.154   6.056   4.848
   93SBC   C09Z65506   0.340   6.139   4.675
   93SBC   C09W65507   0.306   5.736   4.744
   93SBC   C07265508   0.293   5.599   4.775
   93SBC   C09H65509   0.514   5.946   4.556
   93SBC   C09G65510   0.532   6.077   4.547
   93SBC   C09P65511   0.640   6.093   4.464
   93SBC   C02O65512   0.763   5.807   4.238
   93SBC   C02M65513   0.757   5.573   4.185
   93SBC   C02F65514   0.840   5.364   4.013
   93SBC   C00W65515   0.951   5.306   3.811
   93SBC   C01R65516   1.050   5.415   3.563
   93SBC   C01N65517   0.977   5.645   3.839
   93SBC   C01L65518   0.931   5.879   3.808
   93SBC   C01H65519   0.910   6.075   3.514
   93SBC   C01K65520   1.019   5.716   3.484
   93SBC   C01E65521   0.993   5.776   3.217
   93SBC   C01G65522   0.899   6.106   3.375
   93SBC   C01D65523   0.983   5.802   3.082
   93SBC   C01A65524   0.974   5.862   2.815
   93SBC   H00165525   0.960   5.887   2.711
   93SBC   C01F65526   0.888   6.156   3.093
   93SBC   C03P65527   0.804   6.408   2.986
   93SBC   C03T65528   0.768   6.490   3.199
   93SBC   C08I65529   0.668   6.666   3.392
   93SBC   C08J65530   0.618   6.746   3.490
   93SBC   C08L65531   0.583   6.796   3.729
   93SBC   C09365532   0.533   6.844   3.971
   93SBC   C08Z65533   0.655   6.595   4.018
   93SBC   C09T65534   0.421   6.736   4.411
   93SBC   C09S65535   0.664   6.492   4.304
   93SBC   C09Q65536   0.663   6.219   4.415
   93SBC   C09F65537   0.446   6.176   4.597
   93SBC   C09E65538   0.410   6.532   4.543
   93SBC   C0A065539   0.253   6.237   4.725
   93SBC   C0CU65540   0.060   6.421   4.823
   93SBC   C0CR65541  -0.051   6.499   4.873
   93SBC   C0CZ65542  -0.061   6.632   4.820
   93SBC   C0DA65543   0.347   6.658   4.517
   93SBC   C0D965544   0.218   6.945   4.678
   93SBC   H00V65545   0.320   6.964   4.707
   93SBC   C0CY65546   0.038   6.673   4.729
   93SBC   C0DF65547   0.103   7.009   4.728
   93SBC   C0DE65548   0.065   7.111   4.816
   93SBC   C0GI65549   0.110   7.240   4.831
   93SBC   H01K65550   0.197   7.272   4.777
   93SBC   C0GJ65551   0.043   7.317   4.921
   93SBC   H01J65552   0.068   7.421   4.922
   93SBC   O00I65553  -0.059   7.273   5.011
   93SBC   C0GH65554  -0.104   7.140   5.003
   93SBC   C0GG65555  -0.189   7.094   5.110
   93SBC   O00G65556  -0.198   7.186   5.211
   93SBC   C0G865557  -0.255   7.146   5.329
   93SBC   C0G965558  -0.245   7.244   5.429
   93SBC   H01G65559  -0.192   7.336   5.409
   93SBC   C0GA65560  -0.307   7.223   5.552
   93SBC   H01H65561  -0.307   7.301   5.627
   93SBC   C0GB65562  -0.388   7.109   5.580
   93SBC   C0EP65563  -0.382   7.004   5.481
   93SBC   C0E865564  -0.434   6.877   5.526
   93SBC   C0CK65565  -0.438   6.742   5.475
   93SBC   C0CL65566  -0.447   6.713   5.340
   93SBC   C0E965567  -0.389   6.800   5.238
   93SBC   C0GE65568  -0.330   6.934   5.236
   93SBC   C0E765569  -0.538   6.872   5.620
   93SBC   C0CJ65570  -0.597   6.748   5.633
   93SBC   C0E665571  -0.709   6.731   5.716
   93SBC   H00Y65572  -0.773   6.645   5.727
   93SBC   C0EO65573  -0.722   6.836   5.814
   93SBC   H01165574  -0.784   6.812   5.900
   93SBC   C0G665575  -0.636   6.956   5.820
   93SBC   C0G565576  -0.626   7.057   5.925
   93SBC   H01F65577  -0.687   7.042   6.012
   93SBC   C0GD65578  -0.530   7.156   5.916
   93SBC   H01I65579  -0.512   7.229   5.992
   93SBC   O00H65580  -0.457   7.181   5.803
   93SBC   C0EQ65581  -0.546   6.978   5.709
   93SBC   C0GC65582  -0.461   7.092   5.700
   93SBC   C0G765583  -0.324   7.022   5.349
   93SBC   C0DD65584  -0.055   7.067   4.890
   93SBC   C0GF65585  -0.266   6.973   5.111
   93SBC   C0CO65586  -0.400   6.724   5.124
   93SBC   C0D065587  -0.167   6.710   4.874
   93SBC   C0C465588  -0.137   6.452   4.977
   93SBC   C0CN65589  -0.449   6.596   5.146
   93SBC   C0CP65590  -0.271   6.318   5.259
   93SBC   C0CM65591  -0.489   6.587   5.285
   93SBC   C0CI65592  -0.509   6.656   5.564
   93SBC   C0CD65593  -0.606   6.305   5.868
   93SBC   C0BR65594  -0.458   6.277   5.525
   93SBC   C0CS65595  -0.402   6.038   5.495
   93SBC   C0B665596  -0.396   5.766   5.584
   93SBC   C0CG65597  -0.574   6.069   5.817
   93SBC   C0CF65598  -0.625   6.170   5.899
   93SBC   C0E565599  -0.700   6.367   6.082
   93SBC   C0DT65600  -0.832   6.306   6.313
   93SBC   C0DL65601  -0.735   5.968   6.194
   93SBC   C0DM65602  -0.721   5.840   6.240
   93SBC   C0DY65603  -0.840   5.908   6.441
   93SBC   C0DU65604  -0.901   6.261   6.421
   93SBC   C0F065605  -0.977   6.339   6.637
   93SBC   C0F465606  -1.004   6.287   6.906
   93SBC   C0FG65607  -1.002   5.958   6.756
   93SBC   O00B65608  -0.969   6.112   7.079
   93SBC   C0FN65609  -0.982   5.847   6.823
   93SBC   C0DZ65610  -0.886   5.879   6.567
   93SBC   O00C65611  -0.747   5.550   6.610
   93SBC   C0FR65612  -0.701   5.441   6.544
   93SBC   O00D65613  -0.696   5.338   6.608
   93SBC   C0E065614  -0.774   5.812   6.364
   93SBC   C0E365615  -0.670   5.466   6.402
   93SBC   C0AW65616  -0.610   5.364   6.325
   93SBC   C0AV65617  -0.583   5.229   6.366
   93SBC   H00Q65618  -0.619   5.186   6.459
   93SBC   C0AU65619  -0.514   5.134   6.280
   93SBC   H00R65620  -0.483   5.041   6.326
   93SBC   C0AT65621  -0.467   5.175   6.158
   93SBC   C0AS65622  -0.411   5.110   6.034
   93SBC   C0AR65623  -0.394   4.971   6.025
   93SBC   C0BE65624  -0.484   5.309   6.121
   93SBC   C0DN65625  -0.658   5.743   6.164
   93SBC   C0AX65626  -0.557   5.402   6.201
   93SBC   C0BB65627  -0.555   5.675   5.952
   93SBC   C0BD65628  -0.451   5.326   5.989
   93SBC   C0B265629  -0.451   5.603   5.747
   93SBC   C0AH65630  -0.311   5.404   5.609
   93SBC   C0BF65631  -0.401   5.213   5.924
   93SBC   C0AL65632  -0.185   5.174   5.529
   93SBC   C07U65633  -0.295   4.958   5.787
   93SBC   C0AQ65634  -0.327   4.910   5.915
   93SBC   C0BG65635  -0.387   4.864   6.131
   93SBC   C0FY65636  -0.332   4.520   6.090
   93SBC   C0BJ65637  -0.489   4.800   6.219
   93SBC   H00S65638  -0.581   4.841   6.258
   93SBC   C0FZ65639  -0.434   4.449   6.170
   93SBC   C07S65640  -0.287   4.469   5.964
   93SBC   C0G165641  -0.405   4.118   6.032
   93SBC   C07K65642  -0.227   4.071   5.707
   93SBC   C07H65643  -0.226   4.354   5.717
   93SBC   C06B65644  -0.296   4.265   5.364
   93SBC   C06N65645  -0.171   4.431   5.273
   93SBC   C06665646  -0.207   4.607   5.634
   93SBC   C06265647  -0.133   4.858   5.467
   93SBC   C05Y65648  -0.027   4.614   5.162
   93SBC   C06165649  -0.030   4.924   5.400
   93SBC   C05H65650   0.090   4.915   5.059
   93SBC   C06V65651  -0.040   5.054   5.353
   93SBC   C06Y65652  -0.022   5.307   5.237
   93SBC   C05C65653   0.166   5.156   4.960
   93SBC   C06Z65654   0.054   5.477   5.088
   93SBC   C07065655   0.209   5.555   4.869
   93SBC   C05B65656   0.241   5.198   4.849
   93SBC   C05765657   0.397   5.281   4.634
   93SBC   C05965658   0.359   5.507   4.690
   94SBC   C05865659   5.527   3.149  10.030
   94SBC   C05A65660   5.611   3.252   9.980
   94SBC   C06Q65661   5.733   3.222   9.929
   94SBC   C06R65662   5.812   3.326   9.875
   94SBC   C06S65663   5.770   3.462   9.870
   94SBC   C06T65664   5.853   3.558   9.807
   94SBC   C06U65665   5.821   3.693   9.755
   94SBC   C06X65666   5.714   3.773   9.777
   94SBC   C06065667   5.730   3.901   9.701
   94SBC   C05Z65668   5.693   4.041   9.725
   94SBC   C06865669   5.806   4.116   9.668
   94SBC   C06765670   5.826   4.259   9.665
   94SBC   C06965671   5.721   4.352   9.714
   94SBC   C06A65672   5.729   4.499   9.715
   94SBC   C07365673   5.830   4.590   9.751
   94SBC   C07P65674   5.812   4.688   9.852
   94SBC   C07O65675   5.688   4.710   9.926
   94SBC   H00D65676   5.596   4.654   9.913
   94SBC   C07N65677   5.677   4.804  10.031
   94SBC   H00E65678   5.589   4.811  10.093
   94SBC   C07M65679   5.786   4.883  10.052
   94SBC   H00F65680   5.784   4.951  10.136
   94SBC   C07L65681   5.909   4.872   9.981
   94SBC   C07Q65682   6.019   4.958  10.003
   94SBC   H00G65683   6.016   5.039  10.075
   94SBC   O00F65684   6.133   4.950   9.927
   94SBC   C07J65685   6.140   4.857   9.825
   94SBC   C07I65686   6.033   4.770   9.802
   94SBC   N00465687   6.044   4.674   9.700
   94SBC   C07R65688   6.152   4.684   9.608
   94SBC   C07T65689   6.253   4.776   9.635
   94SBC   C0FX65690   6.360   4.794   9.551
   94SBC   C0FW65691   6.472   4.868   9.580
   94SBC   C0G065692   6.463   4.949   9.696
   94SBC   C0G265693   6.570   5.030   9.738
   94SBC   H01E65694   6.555   5.082   9.832
   94SBC   C0G365695   6.694   5.015   9.669
   94SBC   H01C65696   6.784   5.064   9.703
   94SBC   C0G465697   6.700   4.938   9.552
   94SBC   H01D65698   6.790   4.939   9.493
   94SBC   O00E65699   6.351   4.944   9.777
   94SBC   C0FV65700   6.591   4.861   9.506
   94SBC   C0FU65701   6.598   4.767   9.398
   94SBC   H01B65702   6.687   4.731   9.348
   94SBC   C0FT65703   6.481   4.696   9.364
   94SBC   C0FS65704   6.448   4.581   9.278
   94SBC   C0BI65705   6.307   4.560   9.287
   94SBC   C0BH65706   6.270   4.429   9.257
   94SBC   C07F65707   6.210   4.335   9.349
   94SBC   C07E65708   6.108   4.363   9.440
   94SBC   C07G65709   6.086   4.487   9.506
   94SBC   C07465710   5.987   4.462   9.599
   94SBC   C06565711   6.041   4.265   9.512
   94SBC   C06465712   6.085   4.135   9.493
   94SBC   C06365713   6.043   4.028   9.565
   94SBC   C07565714   6.144   3.918   9.531
   94SBC   C0AM65715   6.244   3.963   9.434
   94SBC   C0AN65716   6.366   3.893   9.388
   94SBC   C0AO65717   6.415   3.747   9.409
   94SBC   C0B165718   6.533   3.699   9.344
   94SBC   C0B065719   6.606   3.773   9.263
   94SBC   C0AZ65720   6.725   3.734   9.196
   94SBC   C0AY65721   6.795   3.824   9.115
   94SBC   N00765722   6.927   3.796   9.068
   94SBC   C0E265723   6.995   3.895   8.989
   94SBC   C0E165724   7.124   3.864   8.957
   94SBC   C0E465725   7.197   3.958   8.886
   94SBC   C0FF65726   7.331   3.937   8.849
   94SBC   C0FJ65727   7.425   4.005   8.758
   94SBC   C0FK65728   7.412   4.086   8.639
   94SBC   H01665729   7.318   4.133   8.615
   94SBC   C0FL65730   7.543   4.086   8.574
   94SBC   H01765731   7.578   4.127   8.480
   94SBC   C0FM65732   7.629   4.000   8.645
   94SBC   C0FH65733   7.743   3.904   8.650
   94SBC   C0FI65734   7.725   3.835   8.774
   94SBC   C0F365735   7.776   3.708   8.795
   94SBC   C0F265736   7.713   3.638   8.891
   94SBC   C0DW65737   7.583   3.669   8.940
   94SBC   C0FE65738   7.526   3.788   8.906
   94SBC   C0DV65739   7.504   3.565   8.994
   94SBC   C0DX65740   7.368   3.592   9.008
   94SBC   C0DK65741   7.290   3.492   9.062
   94SBC   C0DJ65742   7.343   3.364   9.089
   94SBC   C0DI65743   7.265   3.267   9.142
   94SBC   C0DH65744   7.133   3.299   9.176
   94SBC   C0DG65745   7.085   3.425   9.153
   94SBC   C0BV65746   6.950   3.451   9.185
   94SBC   C0BC65747   6.900   3.580   9.166
   94SBC   C0BA65748   6.876   3.357   9.253
   94SBC   C0B465749   6.752   3.393   9.304
   94SBC   C0B365750   6.706   3.525   9.292
   94SBC   C0B565751   6.680   3.302   9.376
   94SBC   C0BU65752   6.717   3.168   9.373
   94SBC   C0BT65753   6.840   3.125   9.318
   94SBC   C0BS65754   6.880   2.992   9.308
   94SBC   C0CC65755   7.007   2.963   9.264
   94SBC   C0CB65756   7.045   2.825   9.251
   94SBC   C0CH65757   7.181   2.803   9.218
   94SBC   C0DO65758   7.273   2.907   9.187
   94SBC   C0DP65759   7.402   2.873   9.153
   94SBC   C0EA65760   7.455   2.737   9.172
   94SBC   H01265761   7.395   2.664   9.225
   94SBC   O00965762   7.584   2.698   9.130
   94SBC   C0EH65763   7.653   2.796   9.066
   94SBC   C0EG65764   7.770   2.757   9.004
   94SBC   C0EJ65765   7.835   2.632   8.987
   94SBC   H01065766   7.826   2.535   9.034
   94SBC   C0EK65767   7.958   2.652   8.909
   94SBC   H00Z65768   8.036   2.578   8.904
   94SBC   C0EL65769   7.950   2.787   8.864
   94SBC   C0EM65770   8.036   2.872   8.787
   94SBC   C0EW65771   8.160   2.835   8.720
   94SBC   H01365772   8.188   2.731   8.729
   94SBC   C0EX65773   8.230   2.930   8.640
   94SBC   H01465774   8.322   2.896   8.595
   94SBC   C0F165775   8.181   3.063   8.630
   94SBC   C0EU65776   8.052   3.096   8.680
   94SBC   C0ET65777   7.999   3.228   8.693
   94SBC   C0ES65778   7.881   3.211   8.771
   94SBC   C0EE65779   7.874   3.073   8.816
   94SBC   C0ED65780   7.808   2.988   8.911
   94SBC   C0EC65781   7.690   3.030   8.981
   94SBC   C0EB65782   7.645   3.164   8.988
   94SBC   C0EN65783   7.722   3.279   8.935
   94SBC   C0ER65784   7.686   3.407   8.978
   94SBC   C0DS65785   7.526   3.201   9.052
   94SBC   C0DR65786   7.445   3.104   9.103
   94SBC   C0EY65787   7.834   3.308   8.845
   94SBC   C0EZ65788   7.847   3.444   8.812
   94SBC   C0F565789   7.919   3.524   8.711
   94SBC   C0F665790   8.011   3.468   8.621
   94SBC   N00865791   8.067   3.565   8.524
   94SBC   C0F765792   8.005   3.694   8.501
   94SBC   C0FQ65793   8.042   3.765   8.384
   94SBC   H01865794   7.981   3.844   8.344
   94SBC   C0FP65795   8.154   3.724   8.311
   94SBC   H01965796   8.184   3.784   8.226
   94SBC   C0FO65797   8.231   3.616   8.351
   94SBC   H01A65798   8.324   3.593   8.300
   94SBC   C0F865799   7.905   3.733   8.586
   94SBC   C0F965800   8.180   3.525   8.447
   94SBC   C0FA65801   8.246   3.394   8.465
   94SBC   H01565802   8.332   3.367   8.406
   94SBC   C0FB65803   8.181   3.301   8.556
   94SBC   C0FD65804   8.064   3.334   8.621
   94SBC   C0FC65805   8.243   3.170   8.556
   94SBC   O00A65806   8.348   3.143   8.503
   94SBC   C0EV65807   7.986   3.004   8.760
   94SBC   C0EF65808   7.842   2.849   8.929
   94SBC   C0EI65809   7.612   2.937   9.055
   94SBC   C0DQ65810   7.485   2.970   9.106
   94SBC   C0CE65811   7.228   3.035   9.183
   94SBC   H00U65812   7.215   2.701   9.208
   94SBC   C0CA65813   6.950   2.724   9.278
   94SBC   C0C965814   6.842   2.752   9.359
   94SBC   C0C865815   6.802   2.640   9.437
   94SBC   C0C765816   6.676   2.619   9.506
   94SBC   C0C665817   6.672   2.497   9.576
   94SBC   C0C565818   6.571   2.408   9.636
   94SBC   C0CQ65819   6.610   2.274   9.653
   94SBC   C0D165820   6.721   2.233   9.585
   94SBC   C0D865821   6.708   2.107   9.527
   94SBC   C0D765822   6.588   2.063   9.590
   94SBC   C0D665823   6.517   1.947   9.556
   94SBC   C0D565824   6.392   1.901   9.611
   94SBC   C0D465825   6.301   1.956   9.703
   94SBC   C0D365826   6.178   1.895   9.669
   94SBC   C0CX65827   6.074   1.993   9.700
   94SBC   C0CW65828   6.140   2.125   9.712
   94SBC   C0CV65829   6.111   2.261   9.749
   94SBC   C0D265830   5.996   2.288   9.826
   94SBC   C09D65831   5.909   2.193   9.886
   94SBC   C09C65832   5.804   2.233   9.975
   94SBC   C09B65833   5.707   2.149  10.041
   94SBC   C09A65834   5.717   2.014  10.006
   94SBC   C09965835   5.823   1.969   9.934
   94SBC   C09865836   5.785   1.839   9.881
   94SBC   C08Y65837   5.648   1.811   9.915
   94SBC   C08X65838   5.556   1.711   9.853
   94SBC   C08W65839   5.600   1.614   9.758
   94SBC   C08U65840   5.737   1.605   9.701
   94SBC   C08V65841   5.858   1.688   9.705
   94SBC   C0DC65842   5.970   1.600   9.686
   94SBC   H00W65843   6.072   1.624   9.712
   94SBC   C0DB65844   5.911   1.478   9.634
   94SBC   H00X65845   5.973   1.404   9.585
   94SBC   C08T65846   5.773   1.482   9.648
   94SBC   C08S65847   5.677   1.395   9.597
   94SBC   H00N65848   5.701   1.312   9.533
   94SBC   C08R65849   5.539   1.415   9.610
   94SBC   C08Q65850   5.435   1.340   9.552
   94SBC   H00O65851   5.466   1.256   9.491
   94SBC   C08P65852   5.299   1.358   9.572
   94SBC   C08O65853   5.194   1.278   9.513
   94SBC   H00P65854   5.226   1.191   9.457
   94SBC   C08N65855   5.054   1.295   9.541
   94SBC   C08M65856   4.949   1.199   9.490
   94SBC   O00865857   4.973   1.111   9.405
   94SBC   O00765858   4.825   1.216   9.537
   94SBC   C08H65859   4.791   1.327   9.615
   94SBC   C08G65860   4.656   1.351   9.641
   94SBC   C03V65861   4.541   1.276   9.606
   94SBC   H00965862   4.557   1.191   9.541
   94SBC   C03U65863   4.411   1.307   9.635
   94SBC   C03W65864   4.291   1.242   9.581
   94SBC   H00A65865   4.297   1.162   9.508
   94SBC   C03X65866   4.168   1.284   9.616
   94SBC   H00B65867   4.083   1.229   9.581
   94SBC   O00565868   4.151   1.394   9.704
   94SBC   C03O65869   4.259   1.467   9.749
   94SBC   C03N65870   4.243   1.576   9.837
   94SBC   O00065871   4.118   1.608   9.870
   94SBC   C01965872   4.094   1.714   9.952
   94SBC   C01865873   4.202   1.794  10.000
   94SBC   C01765874   4.332   1.762   9.967
   94SBC   C01665875   4.439   1.836  10.016
   94SBC   C01565876   4.400   1.946  10.089
   94SBC   C01465877   4.503   2.030  10.126
   94SBC   C01365878   4.639   2.004  10.094
   94SBC   C01265879   4.708   2.126  10.133
   94SBC   C01165880   4.600   2.217  10.166
   94SBC   C01065881   4.613   2.348  10.170
   94SBC   C00Z65882   4.530   2.449  10.212
   94SBC   C00Y65883   4.615   2.555  10.220
   94SBC   C01O65884   4.738   2.530  10.176
   94SBC   C01P65885   4.850   2.601  10.211
   94SBC   C02L65886   4.973   2.550  10.180
   94SBC   C02K65887   4.974   2.411  10.157
   94SBC   C01M65888   4.862   2.328  10.148
   94SBC   C02J65889   5.110   2.367  10.161
   94SBC   C02I65890   5.154   2.235  10.161
   94SBC   C02H65891   5.081   2.115  10.146
   94SBC   C01Q65892   4.945   2.086  10.132
   94SBC   C02G65893   4.928   1.955  10.097
   94SBC   C08965894   5.058   1.898  10.099
   94SBC   C08865895   5.063   1.791  10.006
   94SBC   C08765896   4.916   1.769   9.977
   94SBC   C08665897   4.857   1.666   9.899
   94SBC   C03S65898   4.721   1.633   9.873
   94SBC   N00665899   4.728   1.532   9.781
   94SBC   C08F65900   4.854   1.506   9.743
   94SBC   C01J65901   4.593   1.680   9.902
   94SBC   C03R65902   4.482   1.614   9.844
   94SBC   C03Q65903   4.499   1.501   9.761
   94SBC   C08E65904   4.941   1.574   9.823
   94SBC   C08D65905   5.084   1.566   9.798
   94SBC   C08K65906   5.124   1.471   9.699
   94SBC   C08C65907   5.192   1.641   9.864
   94SBC   C09165908   5.328   1.618   9.825
   94SBC   C09265909   5.370   1.530   9.728
   94SBC   C08B65910   5.191   1.742   9.961
   94SBC   C09065911   5.331   1.783   9.986
   94SBC   C09465912   5.374   1.886  10.073
   94SBC   C09565913   5.494   1.958  10.066
   94SBC   C09R65914   5.491   2.089  10.118
   94SBC   C09765915   5.359   2.116  10.147
   94SBC   C09665916   5.290   1.996  10.114
   94SBC   C01I65917   4.825   1.871  10.035
   94SBC   C08A65918   5.154   1.997  10.125
   94SBC   C09L65919   5.293   2.237  10.176
   94SBC   C09K65920   5.336   2.372  10.182
   94SBC   C09J65921   5.467   2.419  10.164
   94SBC   C09I65922   5.496   2.548  10.116
   94SBC   C09O65923   5.436   2.682  10.101
   94SBC   C09N65924   5.306   2.706  10.149
   94SBC   C09M65925   5.208   2.603  10.167
   94SBC   C06O65926   5.271   2.843  10.163
   94SBC   C05M65927   5.357   2.948  10.123
   94SBC   C06P65928   5.477   2.917  10.063
   94SBC   C04265929   5.318   3.082  10.133
   94SBC   C04165930   5.188   3.114  10.183
   94SBC   C04065931   5.145   3.249  10.181
   94SBC   C03Z65932   5.017   3.281  10.223
   94SBC   C03Y65933   4.927   3.182  10.265
   94SBC   C02765934   4.800   3.211  10.292
   94SBC   C02665935   4.711   3.110  10.334
   94SBC   C02865936   4.578   3.140  10.359
   94SBC   C02965937   4.533   3.275  10.347
   94SBC   C02B65938   4.398   3.299  10.382
   94SBC   C02C65939   4.351   3.425  10.362
   94SBC   C02X65940   4.219   3.453  10.387
   94SBC   C03E65941   4.176   3.585  10.361
   94SBC   C03G65942   4.252   3.683  10.311
   94SBC   C04Q65943   4.387   3.655  10.287
   94SBC   C04R65944   4.466   3.755  10.231
   94SBC   C04S65945   4.599   3.728  10.213
   94SBC   C04L65946   4.654   3.600  10.238
   94SBC   C04M65947   4.571   3.503  10.290
   94SBC   C04K65948   4.788   3.571  10.219
   94SBC   C04F65949   4.870   3.668  10.161
   94SBC   C04E65950   4.822   3.792  10.126
   94SBC   C04D65951   4.905   3.889  10.070
   94SBC   C05065952   4.849   4.014  10.035
   94SBC   C05165953   4.936   4.111   9.976
   94SBC   C05Q65954   4.883   4.232   9.942
   94SBC   C05V65955   4.963   4.324   9.880
   94SBC   N00565956   4.906   4.447   9.835
   94SBC   C07V65957   4.772   4.477   9.863
   94SBC   C08265958   4.719   4.596   9.815
   94SBC   C08165959   4.790   4.687   9.733
   94SBC   C07C65960   4.928   4.657   9.712
   94SBC   C07B65961   5.006   4.746   9.636
   94SBC   C08065962   4.953   4.855   9.568
   94SBC   C07Z65963   5.036   4.942   9.501
   94SBC   H00L65964   4.977   5.015   9.448
   94SBC   C07965965   5.174   4.928   9.486
   94SBC   C07865966   5.228   4.815   9.554
   94SBC   C07765967   5.362   4.801   9.558
   94SBC   C07X65968   5.452   4.898   9.498
   94SBC   H00I65969   5.560   4.896   9.492
   94SBC   C07Y65970   5.399   5.005   9.427
   94SBC   H00H65971   5.467   5.074   9.380
   94SBC   C07665972   5.417   4.693   9.630
   94SBC   C06C65973   5.560   4.680   9.649
   94SBC   H00C65974   5.632   4.759   9.631
   94SBC   C06F65975   5.332   4.594   9.688
   94SBC   C06E65976   5.381   4.470   9.723
   94SBC   C06G65977   5.310   4.366   9.764
   94SBC   C06H65978   5.175   4.389   9.782
   94SBC   C06I65979   5.117   4.510   9.744
   94SBC   C06L65980   5.367   4.241   9.794
   94SBC   C06M65981   5.506   4.213   9.765
   94SBC   C06K65982   5.285   4.141   9.856
   94SBC   C05S65983   5.149   4.171   9.881
   94SBC   C05U65984   5.341   4.013   9.885
   94SBC   C05X65985   5.475   3.981   9.841
   94SBC   C05G65986   5.510   3.849   9.887
   94SBC   C05F65987   5.422   3.767   9.959
   94SBC   C05E65988   5.468   3.639   9.976
   94SBC   C04865989   5.388   3.535  10.030
   94SBC   C05665990   5.437   3.410  10.033
   94SBC   C04565991   5.358   3.310  10.078
   94SBC   C04765992   5.265   3.574  10.069
   94SBC   C04965993   5.215   3.704  10.051
   94SBC   C04B65994   5.084   3.738  10.082
   94SBC   C04665995   5.183   3.478  10.116
   94SBC   C04H65996   5.054   3.509  10.154
   94SBC   C05D65997   5.590   3.624   9.924
   94SBC   C04A65998   5.297   3.800   9.988
   94SBC   C05T65999   5.254   3.927   9.954
   94SBC   C05566000   5.123   3.959   9.982
   94SBC   C06D66001   5.517   4.447   9.704
   94SBC   C07W66002   5.193   4.607   9.677
   94SBC   C08566003   5.261   5.015   9.415
   94SBC   H00M66004   5.224   5.096   9.353
   94SBC   C08466005   4.813   4.874   9.576
   94SBC   H00J66006   4.760   4.952   9.523
   94SBC   C07A66007   5.139   4.724   9.621
   94SBC   C08366008   4.741   4.794   9.660
   94SBC   H00K66009   4.634   4.812   9.664
   94SBC   O00K66010   4.585   4.619   9.827
   94SBC   C0GO66011   4.508   4.532   9.897
   94SBC   C0GN66012   4.373   4.559   9.914
   94SBC   H01L66013   4.338   4.652   9.872
   94SBC   C0GM66014   4.289   4.475  10.000
   94SBC   C0GL66015   4.168   4.521  10.026
   94SBC   H01M66016   4.125   4.612   9.987
   94SBC   O00J66017   4.092   4.442  10.110
   94SBC   C0GK66018   4.140   4.320  10.142
   94SBC   H01N66019   4.076   4.266  10.210
   94SBC   C05K66020   4.264   4.271  10.113
   94SBC   C05J66021   4.305   4.135  10.132
   94SBC   C04Y66022   4.224   4.030  10.188
   94SBC   C04X66023   4.276   3.905  10.215
   94SBC   O00666024   4.094   4.050  10.220
   94SBC   C05366025   4.001   3.957  10.252
   94SBC   C04O66026   4.054   3.832  10.287
   94SBC   C03C66027   3.981   3.713  10.324
   94SBC   C03B66028   3.841   3.678  10.330
   94SBC   C05466029   3.736   3.766  10.302
   94SBC   C0GR66030   3.597   3.734  10.311
   94SBC   C03M66031   3.523   3.608  10.335
   94SBC   C03I66032   3.582   3.472  10.351
   94SBC   C03J66033   3.490   3.363  10.335
   94SBC   N00266034   3.537   3.228  10.351
   94SBC   C02U66035   3.446   3.112  10.337
   94SBC   C02T66036   3.493   2.983  10.344
   94SBC   C02Z66037   3.412   2.876  10.299
   94SBC   N00166038   3.460   2.740  10.292
   94SBC   C02R66039   3.377   2.639  10.243
   94SBC   C03266040   3.242   2.665  10.228
   94SBC   C03166041   3.192   2.796  10.266
   94SBC   H00766042   3.087   2.821  10.273
   94SBC   C03366043   3.160   2.552  10.200
   94SBC   H00366044   3.052   2.562  10.208
   94SBC   O00466045   3.208   2.433  10.159
   94SBC   C03466046   3.343   2.413  10.181
   94SBC   C03566047   3.392   2.291  10.143
   94SBC   C03666048   3.525   2.269  10.148
   94SBC   H00566049   3.573   2.181  10.109
   94SBC   C03766050   3.609   2.375  10.187
   94SBC   H00666051   3.716   2.362  10.173
   94SBC   C00D66052   3.561   2.490  10.241
   94SBC   C00C66053   3.647   2.582  10.298
   94SBC   C00B66054   3.791   2.556  10.337
   94SBC   C00A66055   3.902   2.447  10.335
   94SBC   C00966056   4.019   2.519  10.370
   94SBC   C00866057   4.153   2.492  10.329
   94SBC   C00766058   4.179   2.370  10.268
   94SBC   C00666059   4.311   2.345  10.236
   94SBC   C00566060   4.340   2.214  10.191
   94SBC   C00466061   4.237   2.121  10.165
   94SBC   C00366062   4.105   2.155  10.197
   94SBC   C00266063   4.008   2.056  10.180
   94SBC   C01C66064   4.035   1.946  10.103
   94SBC   C01B66065   3.934   1.860  10.064
   94SBC   H00066066   3.830   1.887  10.076
   94SBC   C00166067   3.884   2.083  10.236
   94SBC   C00066068   3.858   2.206  10.296
   94SBC   C01U66069   3.740   2.189  10.374
   94SBC   H00266070   3.685   2.255  10.439
   94SBC   C01T66071   3.700   2.045  10.362
   94SBC   O00266072   3.604   1.987  10.412
   94SBC   O00166073   3.791   1.990  10.275
   94SBC   C01S66074   4.076   2.283  10.244
   94SBC   C00N66075   4.240   2.596  10.353
   94SBC   C00M66076   4.208   2.724  10.389
   94SBC   C00J66077   4.078   2.757  10.415
   94SBC   C00I66078   4.030   2.884  10.427
   94SBC   C00H66079   3.890   2.911  10.415
   94SBC   C00G66080   3.801   2.810  10.386
   94SBC   C00F66081   3.671   2.824  10.366
   94SBC   C01X66082   3.847   3.039  10.411
   94SBC   C01W66083   3.944   3.139  10.421
   94SBC   C01V66084   4.079   3.115  10.436
   94SBC   C02066085   4.172   3.219  10.423
   94SBC   C01Z66086   3.898   3.271  10.410
   94SBC   C02Y66087   3.992   3.369  10.412
   94SBC   C03966088   3.951   3.496  10.376
   94SBC   C02W66089   3.759   3.305  10.387
   94SBC   C01Y66090   3.710   3.069  10.389
   94SBC   C00U66091   4.126   2.985  10.428
   94SBC   C00S66092   4.259   2.956  10.415
   94SBC   C00T66093   4.354   3.064  10.405
   94SBC   C00R66094   4.301   2.826  10.388
   94SBC   C00Q66095   4.432   2.803  10.369
   94SBC   C00V66096   4.527   2.905  10.361
   94SBC   C02466097   4.660   2.881  10.340
   94SBC   C00X66098   4.694   2.758  10.296
   94SBC   C00P66099   4.464   2.682  10.326
   94SBC   C00O66100   4.366   2.578  10.315
   94SBC   C00K66101   3.982   2.654  10.404
   94SBC   N00066102   3.939   2.313  10.282
   94SBC   C00L66103   3.850   2.677  10.387
   94SBC   H00466104   3.335   2.208  10.105
   94SBC   C02Q66105   3.430   2.516  10.223
   94SBC   C00E66106   3.596   2.714  10.327
   94SBC   C03066107   3.277   2.905  10.281
   94SBC   O00366108   3.224   3.032  10.295
   94SBC   C02S66109   3.621   2.961  10.370
   94SBC   C03866110   3.312   3.136  10.306
   94SBC   C03L66111   3.270   3.267  10.315
   94SBC   H00866112   3.166   3.294  10.315
   94SBC   C02V66113   3.671   3.196  10.375
   94SBC   C03K66114   3.354   3.380  10.325
   94SBC   C0BK66115   3.309   3.507  10.338
   94SBC   H00T66116   3.202   3.519  10.343
   94SBC   C03H66117   3.716   3.437  10.366
   94SBC   C0BL66118   3.383   3.623  10.333
   94SBC   C0GU66119   3.326   3.755  10.335
   94SBC   H01O66120   3.219   3.770  10.346
   94SBC   C0GT66121   3.391   3.875  10.331
   94SBC   H01P66122   3.333   3.965  10.319
   94SBC   C0GS66123   3.525   3.863  10.311
   94SBC   C0GV66124   3.622   3.967  10.280
   94SBC   C0GW66125   3.600   4.107  10.251
   94SBC   H01Q66126   3.503   4.155  10.253
   94SBC   C0GX66127   3.712   4.179  10.228
   94SBC   H01R66128   3.690   4.282  10.206
   94SBC   O00L66129   3.846   4.128  10.217
   94SBC   C0GQ66130   3.752   3.911  10.280
   94SBC   C03A66131   3.818   3.539  10.359
   94SBC   C05L66132   3.866   3.995  10.249
   94SBC   C04W66133   4.442   4.105  10.112
   94SBC   C05I66134   4.527   4.197  10.051
   94SBC   C05O66135   4.478   4.325  10.015
   94SBC   C05266136   4.664   4.170  10.029
   94SBC   C04V66137   4.495   3.979  10.143
   94SBC   C04U66138   4.630   3.950  10.120
   94SBC   N00966139   4.347   4.353  10.043
   94SBC   C0GP66140   4.561   4.413   9.947
   94SBC   C05W66141   4.696   4.380   9.925
   94SBC   C07D66142   4.981   4.542   9.764
   94SBC   C06J66143   5.095   4.294   9.845
   94SBC   C05P66144   4.751   4.264   9.970
   94SBC   C05R66145   5.071   4.082   9.955
   94SBC   C04Z66146   4.716   4.045  10.061
   94SBC   C04C66147   5.036   3.861  10.046
   94SBC   C04G66148   5.003   3.638  10.136
   94SBC   C04J66149   4.840   3.443  10.236
   94SBC   C04T66150   4.684   3.821  10.148
   94SBC   N00366151   4.416   3.881  10.203
   94SBC   C04P66152   4.196   3.808  10.279
   94SBC   C03D66153   4.042   3.600  10.368
   94SBC   C02166154   4.129   3.347  10.416
   94SBC   C03F66155   4.433   3.529  10.313
   94SBC   C02266156   4.308   3.194  10.411
   94SBC   C02A66157   4.623   3.374  10.306
   94SBC   C02366158   4.486   3.037  10.384
   94SBC   C02566159   4.753   2.979  10.329
   94SBC   C02D66160   4.883   2.947  10.286
   94SBC   C02E66161   4.920   2.814  10.263
   94SBC   C02N66162   5.048   2.778  10.221
   94SBC   C04N66163   4.755   3.343  10.278
   94SBC   C02P66164   4.974   3.048  10.261
   94SBC   C04I66165   4.971   3.413  10.205
   94SBC   C04466166   5.230   3.344  10.127
   94SBC   C04366167   5.106   3.012  10.229
   94SBC   C05N66168   5.144   2.879  10.208
   94SBC   C09U66169   5.519   2.785  10.053
   94SBC   C09V66170   5.647   2.760  10.005
   94SBC   C09X66171   5.695   2.633   9.998
   94SBC   C09Y66172   5.822   2.595   9.944
   94SBC   C0A166173   5.898   2.692   9.896
   94SBC   C0A266174   5.857   2.826   9.907
   94SBC   C0A466175   5.945   2.931   9.872
   94SBC   C07166176   5.904   3.065   9.882
   94SBC   C0A566177   5.987   3.164   9.837
   94SBC   C0A966178   6.109   3.128   9.783
   94SBC   C0A866179   6.149   2.996   9.775
   94SBC   C0AP66180   6.265   2.963   9.714
   94SBC   C0BY66181   6.298   2.834   9.703
   94SBC   C0BX66182   6.220   2.728   9.736
   94SBC   C0C266183   6.256   2.594   9.716
   94SBC   C0C366184   6.176   2.494   9.752
   94SBC   C0CT66185   6.052   2.528   9.811
   94SBC   C0C166186   6.381   2.562   9.653
   94SBC   C0C066187   6.453   2.675   9.582
   94SBC   C0A766188   6.100   2.763   9.793
   94SBC   C0BZ66189   6.412   2.799   9.624
   94SBC   C0BO66190   6.488   2.898   9.564
   94SBC   C0BN66191   6.456   3.030   9.587
   94SBC   C0BM66192   6.528   3.119   9.514
   94SBC   C0B966193   6.496   3.256   9.520
   94SBC   C0B866194   6.385   3.291   9.593
   94SBC   C0AD66195   6.308   3.195   9.660
   94SBC   C0AF66196   6.342   3.423   9.589
   94SBC   C0AG66197   6.402   3.517   9.503
   94SBC   C0B766198   6.514   3.476   9.432
   94SBC   C0AE66199   6.232   3.444   9.661
   94SBC   C0AB66200   6.151   3.357   9.734
   94SBC   C0AA66201   6.027   3.389   9.788
   94SBC   C0AJ66202   6.184   3.571   9.656
   94SBC   C0AK66203   6.067   3.612   9.712
   94SBC   C06W66204   6.038   3.736   9.669
   94SBC   C0AI66205   6.239   3.677   9.578
   94SBC   C0BP66206   6.587   2.843   9.480
   94SBC   C0BQ66207   6.676   2.936   9.421
   94SBC   C0BW66208   6.342   3.064   9.663
   94SBC   C0AC66209   6.188   3.225   9.730
   94SBC   C0A666210   6.068   2.897   9.822
   94SBC   C0A366211   6.020   2.660   9.834
   94SBC   C09Z66212   5.856   2.461   9.925
   94SBC   C09W66213   5.732   2.859   9.963
   94SBC   C07266214   5.694   2.992   9.971
   94SBC   C09H66215   5.622   2.532  10.053
   94SBC   C09G66216   5.670   2.408  10.064
   94SBC   C09P66217   5.573   2.330  10.121
   94SBC   C02O66218   5.224   2.458  10.169
   94SBC   C02M66219   5.078   2.644  10.189
   94SBC   C02F66220   4.824   2.724  10.260
   94SBC   C00W66221   4.592   2.667  10.292
   94SBC   C01R66222   4.399   2.452  10.259
   94SBC   C01N66223   4.742   2.398  10.157
   94SBC   C01L66224   4.843   2.181  10.134
   94SBC   C01H66225   4.681   1.882  10.039
   94SBC   C01K66226   4.478   2.157  10.173
   94SBC   C01E66227   4.268   1.997  10.108
   94SBC   C01G66228   4.574   1.795   9.986
   94SBC   C01D66229   4.167   1.908  10.076
   94SBC   C01A66230   3.962   1.749   9.987
   94SBC   H00166231   3.880   1.687   9.955
   94SBC   C01F66232   4.355   1.647   9.887
   94SBC   C03P66233   4.392   1.421   9.713
   94SBC   C03T66234   4.624   1.458   9.730
   94SBC   C08I66235   4.893   1.408   9.660
   94SBC   C08J66236   5.024   1.391   9.633
   94SBC   C08L66237   5.263   1.453   9.667
   94SBC   C09366238   5.507   1.520   9.701
   94SBC   C08Z66239   5.418   1.710   9.890
   94SBC   C09T66240   5.872   1.823   9.771
   94SBC   C09S66241   5.618   1.917  10.012
   94SBC   C09Q66242   5.589   2.190  10.103
   94SBC   C09F66243   5.789   2.365   9.994
   94SBC   C09E66244   5.897   2.054   9.851
   94SBC   C0A066245   5.968   2.423   9.848
   94SBC   C0CU66246   6.210   2.358   9.724
   94SBC   C0CR66247   6.342   2.333   9.681
   94SBC   C0CZ66248   6.383   2.200   9.674
   94SBC   C0DA66249   5.945   1.961   9.753
   94SBC   C0D966250   6.196   1.811   9.553
   94SBC   H00V66251   6.121   1.766   9.490
   94SBC   C0CY66252   6.281   2.098   9.697
   94SBC   C0DF66253   6.333   1.802   9.532
   94SBC   C0DE66254   6.439   1.766   9.442
   94SBC   C0GI66255   6.451   1.656   9.353
   94SBC   H01K66256   6.367   1.590   9.340
   94SBC   C0GJ66257   6.575   1.636   9.294
   94SBC   H01J66258   6.581   1.558   9.220
   94SBC   O00I66259   6.687   1.725   9.305
   94SBC   C0GH66260   6.670   1.839   9.379
   94SBC   C0GG66261   6.770   1.939   9.347
   94SBC   O00G66262   6.870   1.901   9.260
   94SBC   C0G866263   6.960   1.994   9.218
   94SBC   C0G966264   7.059   1.944   9.136
   94SBC   H01G66265   7.072   1.838   9.125
   94SBC   C0GA66266   7.131   2.029   9.051
   94SBC   H01H66267   7.193   1.976   8.980
   94SBC   C0GB66268   7.108   2.167   9.047
   94SBC   C0EP66269   7.013   2.213   9.146
   94SBC   C0E866270   6.999   2.357   9.147
   94SBC   C0CK66271   6.938   2.458   9.240
   94SBC   C0CL66272   6.908   2.425   9.371
   94SBC   C0E966273   6.871   2.296   9.409
   94SBC   C0GE66274   6.868   2.161   9.353
   94SBC   C0E766275   7.060   2.448   9.057
   94SBC   C0CJ66276   7.043   2.585   9.074
   94SBC   C0E666277   7.084   2.676   8.968
   94SBC   H00Y66278   7.068   2.782   8.979
   94SBC   C0EO66279   7.160   2.618   8.869
   94SBC   H01166280   7.202   2.686   8.795
   94SBC   C0G666281   7.198   2.483   8.866
   94SBC   C0G566282   7.288   2.424   8.768
   94SBC   H01F66283   7.343   2.483   8.696
   94SBC   C0GD66284   7.308   2.294   8.764
   94SBC   H01I66285   7.382   2.250   8.698
   94SBC   O00H66286   7.249   2.209   8.853
   94SBC   C0EQ66287   7.139   2.393   8.953
   94SBC   C0GC66288   7.162   2.254   8.945
   94SBC   C0G766289   6.947   2.128   9.238
   94SBC   C0DD66290   6.555   1.848   9.465
   94SBC   C0GF66291   6.781   2.062   9.413
   94SBC   C0CO66292   6.807   2.322   9.530
   94SBC   C0D066293   6.520   2.174   9.640
   94SBC   C0C466294   6.433   2.434   9.654
   94SBC   C0CN66295   6.800   2.454   9.563
   94SBC   C0CP66296   6.570   2.705   9.499
   94SBC   C0CM66297   6.879   2.524   9.476
   94SBC   C0CI66298   6.976   2.603   9.205
   94SBC   C0CD66299   7.095   3.064   9.223
   94SBC   C0BR66300   6.795   2.889   9.355
   94SBC   C0CS66301   6.636   3.075   9.431
   94SBC   C0B666302   6.562   3.349   9.440
   94SBC   C0CG66303   6.924   3.228   9.261
   94SBC   C0CF66304   7.050   3.196   9.218
   94SBC   C0E566305   7.315   3.134   9.143
   94SBC   C0DT66306   7.476   3.332   9.055
   94SBC   C0DL66307   7.161   3.519   9.095
   94SBC   C0DM66308   7.103   3.643   9.056
   94SBC   C0DY66309   7.312   3.721   8.972
   94SBC   C0DU66310   7.551   3.439   9.019
   94SBC   C0F066311   7.751   3.504   8.899
   94SBC   C0F466312   7.870   3.655   8.702
   94SBC   C0FG66313   7.604   3.875   8.830
   94SBC   O00B66314   7.835   3.856   8.559
   94SBC   C0FN66315   7.557   3.975   8.763
   94SBC   C0DZ66316   7.386   3.819   8.908
   94SBC   O00C66317   7.138   4.066   8.841
   94SBC   C0FR66318   7.020   4.113   8.889
   94SBC   O00D66319   7.000   4.226   8.850
   94SBC   C0E066320   7.179   3.741   8.992
   94SBC   C0E366321   6.943   4.022   8.966
   94SBC   C0AW66322   6.821   4.050   9.021
   94SBC   C0AV66323   6.753   4.178   8.999
   94SBC   H00Q66324   6.796   4.255   8.937
   94SBC   C0AU66325   6.631   4.211   9.066
   94SBC   H00R66326   6.576   4.302   9.048
   94SBC   C0AT66327   6.571   4.113   9.149
   94SBC   C0AS66328   6.452   4.097   9.231
   94SBC   C0AR66329   6.377   4.213   9.260
   94SBC   C0BE66330   6.631   3.983   9.157
   94SBC   C0DN66331   6.973   3.672   9.092
   94SBC   C0AX66332   6.756   3.950   9.094
   94SBC   C0BB66333   6.778   3.611   9.219
   94SBC   C0BD66334   6.561   3.900   9.245
   94SBC   C0B266335   6.583   3.565   9.353
   94SBC   C0AH66336   6.356   3.648   9.493
   94SBC   C0BF66337   6.451   3.963   9.296
   94SBC   C0AL66338   6.154   3.794   9.606
   94SBC   C07U66339   6.198   4.098   9.410
   94SBC   C0AQ66340   6.262   4.205   9.339
   94SBC   C0BG66341   6.394   4.355   9.219
   94SBC   C0FY66342   6.255   4.633   9.400
   94SBC   C0BJ66343   6.503   4.446   9.251
   94SBC   H00S66344   6.605   4.414   9.270
   94SBC   C0FZ66345   6.360   4.722   9.437
   94SBC   C07S66346   6.155   4.606   9.494
   94SBC   C0G166347   6.251   4.854   9.748
   94SBC   C07K66348   5.919   4.774   9.880
   94SBC   C07H66349   5.948   4.573   9.679
   94SBC   C06B66350   5.602   4.552   9.683
   94SBC   C06N66351   5.580   4.330   9.730
   94SBC   C06666352   5.938   4.323   9.594
   94SBC   C06266353   5.910   4.018   9.629
   94SBC   C05Y66354   5.562   4.083   9.786
   94SBC   C06166355   5.846   3.889   9.628
   94SBC   C05H66356   5.621   3.755   9.875
   94SBC   C06V66357   5.909   3.774   9.682
   94SBC   C06Y66358   5.982   3.518   9.772
   94SBC   C05C66359   5.647   3.489   9.924
   94SBC   C06Z66360   5.940   3.294   9.833
   94SBC   C07066361   5.779   3.089   9.937
   94SBC   C05B66362   5.565   3.386   9.980
   94SBC   C05766363   5.402   3.178  10.080
   94SBC   C05966364   5.565   3.020  10.021
   95SBC   C05866365   8.712   1.584  10.235
   95SBC   C05A66366   8.822   1.500  10.256
   95SBC   C06Q66367   8.927   1.496  10.169
   95SBC   C06R66368   9.041   1.421  10.203
   95SBC   C06S66369   9.051   1.346  10.320
   95SBC   C06T66370   9.180   1.285  10.350
   95SBC   C06U66371   9.222   1.218  10.476
   95SBC   C06X66372   9.155   1.162  10.590
   95SBC   C06066373   9.246   1.160  10.701
   95SBC   C05Z66374   9.255   1.057  10.809
   95SBC   C06866375   9.393   1.002  10.804
   95SBC   C06766376   9.455   0.900  10.886
   95SBC   C06966377   9.378   0.824  10.981
   95SBC   C06A66378   9.412   0.696  11.049
   95SBC   C07366379   9.515   0.607  11.029
   95SBC   C07P66380   9.481   0.469  11.047
   95SBC   C07O66381   9.354   0.422  11.019
   95SBC   H00D66382   9.268   0.483  10.997
   95SBC   C07N66383   9.320   0.280  11.023
   95SBC   H00E66384   9.218   0.247  11.009
   95SBC   C07M66385   9.423   0.199  11.068
   95SBC   H00F66386   9.397   0.095  11.081
   95SBC   C07L66387   9.557   0.243  11.090
   95SBC   C07Q66388   9.670   0.158  11.120
   95SBC   H00G66389   9.661   0.052  11.099
   95SBC   O00F66390   9.798   0.201  11.134
   95SBC   C07J66391   9.819   0.333  11.103
   95SBC   C07I66392   9.717   0.427  11.089
   95SBC   N00466393   9.749   0.561  11.054
   95SBC   C07R66394   9.887   0.602  11.057
   95SBC   C07T66395   9.983   0.503  11.067
   95SBC   C0FX66396  10.113   0.524  11.035
   95SBC   C0FW66397  10.218   0.438  11.018
   95SBC   C0G066398  10.177   0.306  11.034
   95SBC   C0G266399  10.271   0.203  11.027
   95SBC   H01E66400  10.240   0.102  11.047
   95SBC   C0G366401  10.404   0.239  10.994
   95SBC   H01C66402  10.482   0.164  10.986
   95SBC   C0G466403  10.443   0.372  10.973
   95SBC   H01D66404  10.548   0.390  10.957
   95SBC   O00E66405  10.052   0.275  11.076
   95SBC   C0FV66406  10.347   0.477  10.980
   95SBC   C0FU66407  10.374   0.617  10.952
   95SBC   H01B66408  10.472   0.620  10.909
   95SBC   C0FT66409  10.274   0.710  10.976
   95SBC   C0FS66410  10.250   0.846  10.934
   95SBC   C0BI66411  10.121   0.886  10.994
   95SBC   C0BH66412  10.072   0.994  10.922
   95SBC   C07F66413   9.948   0.985  10.852
   95SBC   C07E66414   9.830   0.925  10.894
   95SBC   C07G66415   9.818   0.812  10.982
   95SBC   C07466416   9.683   0.786  10.978
   95SBC   C06566417   9.708   0.946  10.831
   95SBC   C06466418   9.718   1.020  10.714
   95SBC   C06366419   9.605   1.064  10.641
   95SBC   C07566420   9.670   1.130  10.526
   95SBC   C0AM66421   9.816   1.131  10.531
   95SBC   C0AN66422   9.910   1.182  10.430
   95SBC   C0AO66423   9.890   1.246  10.290
   95SBC   C0B166424  10.000   1.285  10.209
   95SBC   C0B066425  10.132   1.264  10.243
   95SBC   C0AZ66426  10.249   1.301  10.174
   95SBC   C0AY66427  10.375   1.299  10.236
   95SBC   N00766428  10.491   1.342  10.170
   95SBC   C0E266429  10.617   1.345  10.238
   95SBC   C0E166430  10.724   1.387  10.168
   95SBC   C0E466431  10.850   1.376  10.229
   95SBC   C0FF66432  10.964   1.407  10.161
   95SBC   C0FJ66433  11.105   1.372  10.191
   95SBC   C0FK66434  11.148   1.246  10.249
   95SBC   H01666435  11.093   1.183  10.317
   95SBC   C0FL66436  11.281   1.223  10.187
   95SBC   H01766437  11.345   1.136  10.197
   95SBC   C0FM66438  11.306   1.327  10.097
   95SBC   C0FH66439  11.371   1.352   9.968
   95SBC   C0FI66440  11.288   1.455   9.913
   95SBC   C0F366441  11.272   1.464   9.775
   95SBC   C0F266442  11.155   1.524   9.737
   95SBC   C0DW66443  11.047   1.547   9.819
   95SBC   C0FE66444  11.058   1.512   9.950
   95SBC   C0DV66445  10.922   1.558   9.761
   95SBC   C0DX66446  10.809   1.521   9.839
   95SBC   C0DK66447  10.686   1.533   9.778
   95SBC   C0DJ66448  10.673   1.552   9.644
   95SBC   C0DI66449  10.545   1.555   9.583
   95SBC   C0DH66450  10.430   1.538   9.659
   95SBC   C0DG66451  10.448   1.490   9.790
   95SBC   C0BV66452  10.335   1.459   9.862
   95SBC   C0BC66453  10.349   1.408   9.991
   95SBC   C0BA66454  10.210   1.481   9.810
   95SBC   C0B466455  10.096   1.456   9.885
   95SBC   C0B366456  10.104   1.389  10.008
   95SBC   C0B566457   9.972   1.482   9.830
   95SBC   C0BU66458   9.959   1.556   9.707
   95SBC   C0BT66459  10.073   1.582   9.634
   95SBC   C0BS66460  10.068   1.658   9.515
   95SBC   C0CC66461  10.184   1.665   9.433
   95SBC   C0CB66462  10.180   1.719   9.306
   95SBC   C0CH66463  10.280   1.672   9.214
   95SBC   C0DO66464  10.404   1.630   9.260
   95SBC   C0DP66465  10.518   1.627   9.179
   95SBC   C0EA66466  10.509   1.648   9.035
   95SBC   H01266467  10.411   1.658   8.991
   95SBC   O00966468  10.617   1.655   8.953
   95SBC   C0EH66469  10.730   1.610   9.009
   95SBC   C0EG66470  10.831   1.573   8.926
   95SBC   C0EJ66471  10.840   1.537   8.785
   95SBC   H01066472  10.762   1.546   8.710
   95SBC   C0EK66473  10.971   1.484   8.752
   95SBC   H00Z66474  11.008   1.442   8.660
   95SBC   C0EL66475  11.035   1.477   8.881
   95SBC   C0EM66476  11.155   1.414   8.921
   95SBC   C0EW66477  11.251   1.356   8.840
   95SBC   H01366478  11.236   1.361   8.733
   95SBC   C0EX66479  11.380   1.308   8.888
   95SBC   H01466480  11.461   1.289   8.819
   95SBC   C0F166481  11.402   1.308   9.033
   95SBC   C0EU66482  11.302   1.362   9.111
   95SBC   C0ET66483  11.303   1.371   9.251
   95SBC   C0ES66484  11.170   1.424   9.275
   95SBC   C0EE66485  11.098   1.450   9.161
   95SBC   C0ED66486  10.983   1.520   9.122
   95SBC   C0EC66487  10.881   1.558   9.213
   95SBC   C0EB66488  10.889   1.566   9.348
   95SBC   C0EN66489  11.018   1.547   9.420
   95SBC   C0ER66490  11.020   1.584   9.555
   95SBC   C0DS66491  10.777   1.584   9.427
   95SBC   C0DR66492  10.650   1.600   9.371
   95SBC   C0EY66493  11.141   1.492   9.390
   95SBC   C0EZ66494  11.225   1.477   9.505
   95SBC   C0F566495  11.343   1.406   9.548
   95SBC   C0F666496  11.425   1.331   9.463
   95SBC   N00866497  11.531   1.256   9.528
   95SBC   C0F766498  11.535   1.232   9.670
   95SBC   C0FQ66499  11.642   1.151   9.720
   95SBC   H01866500  11.638   1.136   9.827
   95SBC   C0FP66501  11.742   1.106   9.639
   95SBC   H01966502  11.833   1.061   9.676
   95SBC   C0FO66503  11.741   1.131   9.506
   95SBC   H01A66504  11.824   1.100   9.446
   95SBC   C0F866505  11.448   1.310   9.746
   95SBC   C0F966506  11.629   1.196   9.448
   95SBC   C0FA66507  11.618   1.190   9.308
   95SBC   H01566508  11.699   1.150   9.248
   95SBC   C0FB66509  11.509   1.255   9.244
   95SBC   C0FD66510  11.413   1.319   9.323
   95SBC   C0FC66511  11.513   1.252   9.102
   95SBC   O00A66512  11.606   1.207   9.034
   95SBC   C0EV66513  11.181   1.408   9.059
   95SBC   C0EF66514  10.949   1.528   8.983
   95SBC   C0EI66515  10.754   1.597   9.155
   95SBC   C0DQ66516  10.641   1.608   9.234
   95SBC   C0CE66517  10.414   1.607   9.399
   95SBC   H00U66518  10.264   1.693   9.109
   95SBC   C0CA66519  10.080   1.820   9.284
   95SBC   C0C966520   9.955   1.821   9.367
   95SBC   C0C866521   9.864   1.932   9.346
   95SBC   C0C766522   9.727   1.948   9.392
   95SBC   C0C666523   9.670   2.072   9.353
   95SBC   C0C566524   9.532   2.123   9.333
   95SBC   C0CQ66525   9.519   2.231   9.239
   95SBC   C0D166526   9.621   2.246   9.146
   95SBC   C0D866527   9.581   2.258   9.015
   95SBC   C0D766528   9.448   2.290   9.029
   95SBC   C0D666529   9.354   2.303   8.922
   95SBC   C0D566530   9.225   2.343   8.941
   95SBC   C0D466531   9.148   2.359   9.056
   95SBC   C0D366532   9.012   2.365   9.020
   95SBC   C0CX66533   8.937   2.317   9.140
   95SBC   C0CW66534   9.033   2.240   9.223
   95SBC   C0CV66535   9.031   2.156   9.340
   95SBC   C0D266536   8.906   2.120   9.402
   95SBC   C09D66537   8.778   2.177   9.373
   95SBC   C09C66538   8.667   2.135   9.443
   95SBC   C09B66539   8.542   2.200   9.437
   95SBC   C09A66540   8.529   2.301   9.339
   95SBC   C09966541   8.619   2.327   9.246
   95SBC   C09866542   8.600   2.453   9.180
   95SBC   C08Y66543   8.506   2.522   9.269
   95SBC   C08X66544   8.474   2.662   9.281
   95SBC   C08W66545   8.551   2.762   9.211
   95SBC   C08U66546   8.677   2.745   9.134
   95SBC   C08V66547   8.752   2.631   9.097
   95SBC   C0DC66548   8.863   2.678   9.023
   95SBC   H00W66549   8.938   2.604   8.999
   95SBC   C0DB66550   8.845   2.821   8.992
   95SBC   H00X66551   8.910   2.880   8.928
   95SBC   C08T66552   8.729   2.860   9.056
   95SBC   C08S66553   8.674   2.982   9.064
   95SBC   H00N66554   8.708   3.065   9.003
   95SBC   C08R66555   8.567   3.008   9.151
   95SBC   C08Q66556   8.514   3.142   9.171
   95SBC   H00O66557   8.557   3.223   9.116
   95SBC   C08P66558   8.422   3.180   9.269
   95SBC   C08O66559   8.392   3.316   9.303
   95SBC   H00P66560   8.417   3.398   9.238
   95SBC   C08N66561   8.324   3.352   9.418
   95SBC   C08M66562   8.297   3.494   9.448
   95SBC   O00866563   8.344   3.588   9.386
   95SBC   O00766564   8.205   3.510   9.551
   95SBC   C08H66565   8.147   3.412   9.625
   95SBC   C08G66566   8.060   3.442   9.737
   95SBC   C03V66567   8.024   3.566   9.784
   95SBC   H00966568   8.057   3.650   9.724
   95SBC   C03U66569   7.953   3.584   9.899
   95SBC   C03W66570   7.928   3.714   9.963
   95SBC   H00A66571   7.967   3.802   9.914
   95SBC   C03X66572   7.861   3.715  10.084
   95SBC   H00B66573   7.855   3.810  10.134
   95SBC   O00566574   7.822   3.606  10.150
   95SBC   C03O66575   7.839   3.485  10.090
   95SBC   C03N66576   7.794   3.372  10.157
   95SBC   O00066577   7.713   3.395  10.266
   95SBC   C01966578   7.680   3.285  10.345
   95SBC   C01866579   7.703   3.152  10.299
   95SBC   C01766580   7.770   3.125  10.180
   95SBC   C01666581   7.806   3.000  10.134
   95SBC   C01566582   7.760   2.899  10.226
   95SBC   C01466583   7.795   2.769  10.188
   95SBC   C01366584   7.875   2.739  10.079
   95SBC   C01266585   7.896   2.596  10.094
   95SBC   C01166586   7.809   2.561  10.206
   95SBC   C01066587   7.787   2.426  10.231
   95SBC   C00Z66588   7.734   2.377  10.347
   95SBC   C00Y66589   7.780   2.242  10.347
   95SBC   C01O66590   7.861   2.214  10.234
   95SBC   C01P66591   7.968   2.124  10.243
   95SBC   C02L66592   8.071   2.141  10.159
   95SBC   C02K66593   8.066   2.255  10.075
   95SBC   C01M66594   7.973   2.363  10.085
   95SBC   C02J66595   8.150   2.244   9.961
   95SBC   C02I66596   8.163   2.326   9.852
   95SBC   C02H66597   8.101   2.442   9.829
   95SBC   C01Q66598   8.022   2.528   9.904
   95SBC   C02G66599   8.013   2.651   9.836
   95SBC   C08966600   8.055   2.632   9.701
   95SBC   C08866601   8.098   2.750   9.639
   95SBC   C08766602   8.051   2.847   9.746
   95SBC   C08666603   8.057   2.987   9.733
   95SBC   C03S66604   8.000   3.087   9.817
   95SBC   N00666605   8.041   3.206   9.763
   95SBC   C08F66606   8.117   3.185   9.657
   95SBC   C01J66607   7.926   3.094   9.941
   95SBC   C03R66608   7.891   3.226   9.993
   95SBC   C03Q66609   7.930   3.342   9.918
   95SBC   C08E66610   8.134   3.050   9.630
   95SBC   C08D66611   8.224   3.004   9.528
   95SBC   C08K66612   8.285   3.112   9.456
   95SBC   C08C66613   8.258   2.875   9.489
   95SBC   C09166614   8.352   2.847   9.387
   95SBC   C09266615   8.418   2.944   9.317
   95SBC   C08B66616   8.202   2.759   9.535
   95SBC   C09066617   8.273   2.648   9.457
   95SBC   C09466618   8.270   2.513   9.495
   95SBC   C09566619   8.355   2.414   9.451
   95SBC   C09R66620   8.352   2.302   9.529
   95SBC   C09766621   8.267   2.333   9.636
   95SBC   C09666622   8.212   2.452   9.606
   95SBC   C01I66623   7.992   2.787   9.869
   95SBC   C08A66624   8.129   2.509   9.704
   95SBC   C09L66625   8.251   2.269   9.758
   95SBC   C09K66626   8.303   2.150   9.820
   95SBC   C09J66627   8.383   2.058   9.755
   95SBC   C09I66628   8.460   1.958   9.821
   95SBC   C09O66629   8.472   1.902   9.954
   95SBC   C09N66630   8.365   1.928  10.051
   95SBC   C09M66631   8.262   2.031  10.052
   95SBC   C06O66632   8.377   1.851  10.171
   95SBC   C05M66633   8.488   1.763  10.189
   95SBC   C06P66634   8.590   1.745  10.095
   95SBC   C04266635   8.498   1.686  10.310
   95SBC   C04166636   8.401   1.696  10.410
   95SBC   C04066637   8.416   1.626  10.531
   95SBC   C03Z66638   8.322   1.638  10.630
   95SBC   C03Y66639   8.224   1.733  10.614
   95SBC   C02766640   8.127   1.751  10.715
   95SBC   C02666641   8.023   1.840  10.706
   95SBC   C02866642   7.944   1.868  10.811
   95SBC   C02966643   7.955   1.795  10.928
   95SBC   C02B66644   7.861   1.812  11.029
   95SBC   C02C66645   7.870   1.742  11.146
   95SBC   C02X66646   7.783   1.767  11.247
   95SBC   C03E66647   7.789   1.686  11.359
   95SBC   C03G66648   7.896   1.610  11.390
   95SBC   C04Q66649   7.988   1.585  11.287
   95SBC   C04R66650   8.102   1.513  11.307
   95SBC   C04S66651   8.196   1.491  11.208
   95SBC   C04L66652   8.171   1.545  11.082
   95SBC   C04M66653   8.060   1.625  11.058
   95SBC   C04K66654   8.264   1.529  10.980
   95SBC   C04F66655   8.381   1.456  11.003
   95SBC   C04E66656   8.406   1.395  11.126
   95SBC   C04D66657   8.513   1.308  11.147
   95SBC   C05066658   8.533   1.252  11.271
   95SBC   C05166659   8.642   1.172  11.290
   95SBC   C05Q66660   8.674   1.126  11.415
   95SBC   C05V66661   8.774   1.034  11.429
   95SBC   N00566662   8.808   0.989  11.556
   95SBC   C07V66663   8.729   1.028  11.663
   95SBC   C08266664   8.761   0.979  11.790
   95SBC   C08166665   8.863   0.891  11.814
   95SBC   C07C66666   8.937   0.854  11.701
   95SBC   C07B66667   9.045   0.763  11.719
   95SBC   C08066668   9.082   0.716  11.846
   95SBC   C07Z66669   9.182   0.618  11.857
   95SBC   H00L66670   9.211   0.580  11.954
   95SBC   C07966671   9.247   0.566  11.749
   95SBC   C07866672   9.218   0.616  11.623
   95SBC   C07766673   9.289   0.567  11.510
   95SBC   C07X66674   9.379   0.456  11.526
   95SBC   H00I66675   9.426   0.403  11.445
   95SBC   C07Y66676   9.402   0.402  11.651
   95SBC   H00H66677   9.475   0.322  11.656
   95SBC   C07666678   9.266   0.633  11.391
   95SBC   C06C66679   9.346   0.596  11.281
   95SBC   H00C66680   9.426   0.524  11.281
   95SBC   C06F66681   9.165   0.733  11.377
   95SBC   C06E66682   9.143   0.796  11.255
   95SBC   C06G66683   9.046   0.891  11.234
   95SBC   C06H66684   8.958   0.913  11.336
   95SBC   C06I66685   8.979   0.852  11.460
   95SBC   C06L66686   9.044   0.959  11.112
   95SBC   C06M66687   9.147   0.948  11.009
   95SBC   C06K66688   8.928   1.038  11.092
   95SBC   C05S66689   8.839   1.059  11.196
   95SBC   C05U66690   8.914   1.102  10.964
   95SBC   C05X66691   9.010   1.091  10.858
   95SBC   C05G66692   8.961   1.148  10.730
   95SBC   C05F66693   8.840   1.207  10.726
   95SBC   C05E66694   8.824   1.270  10.603
   95SBC   C04866695   8.723   1.370  10.581
   95SBC   C05666696   8.718   1.435  10.465
   95SBC   C04566697   8.612   1.522  10.446
   95SBC   C04766698   8.635   1.392  10.688
   95SBC   C04966699   8.662   1.332  10.815
   95SBC   C04B66700   8.577   1.352  10.920
   95SBC   C04666701   8.529   1.476  10.673
   95SBC   C04H66702   8.439   1.483  10.777
   95SBC   C05D66703   8.936   1.252  10.516
   95SBC   C04A66704   8.764   1.242  10.840
   95SBC   C05T66705   8.799   1.184  10.959
   95SBC   C05566706   8.710   1.206  11.061
   95SBC   C06D66707   9.236   0.773  11.154
   95SBC   C07W66708   9.086   0.764  11.481
   95SBC   C08566709   9.331   0.455  11.760
   95SBC   H00M66710   9.347   0.414  11.858
   95SBC   C08466711   9.012   0.760  11.956
   95SBC   H00J66712   9.035   0.728  12.056
   95SBC   C07A66713   9.119   0.714  11.610
   95SBC   C08366714   8.901   0.847  11.938
   95SBC   H00K66715   8.851   0.870  12.031
   95SBC   O00K66716   8.685   1.014  11.896
   95SBC   C0GO66717   8.580   1.094  11.878
   95SBC   C0GN66718   8.492   1.111  11.984
   95SBC   H01L66719   8.512   1.077  12.085
   95SBC   C0GM66720   8.366   1.182  11.967
   95SBC   C0GL66721   8.279   1.193  12.073
   95SBC   H01M66722   8.304   1.132  12.159
   95SBC   O00J66723   8.162   1.268  12.060
   95SBC   C0GK66724   8.129   1.307  11.931
   95SBC   H01N66725   8.026   1.340  11.933
   95SBC   C05K66726   8.215   1.302  11.830
   95SBC   C05J66727   8.174   1.354  11.698
   95SBC   C04Y66728   8.051   1.419  11.667
   95SBC   C04X66729   8.029   1.478  11.539
   95SBC   O00666730   7.950   1.448  11.764
   95SBC   C05366731   7.841   1.540  11.749
   95SBC   C04O66732   7.823   1.591  11.620
   95SBC   C03C66733   7.717   1.687  11.592
   95SBC   C03B66734   7.620   1.759  11.667
   95SBC   C05466735   7.606   1.760  11.803
   95SBC   C0GR66736   7.512   1.837  11.870
   95SBC   C03M66737   7.426   1.955  11.838
   95SBC   C03I66738   7.424   2.028  11.713
   95SBC   C03J66739   7.355   2.158  11.703
   95SBC   N00266740   7.341   2.231  11.580
   95SBC   C02U66741   7.278   2.358  11.572
   95SBC   C02T66742   7.275   2.433  11.451
   95SBC   C02Z66743   7.220   2.559  11.449
   95SBC   N00166744   7.206   2.634  11.326
   95SBC   C02R66745   7.136   2.757  11.326
   95SBC   C03266746   7.077   2.803  11.447
   95SBC   C03166747   7.090   2.723  11.562
   95SBC   H00766748   7.044   2.759  11.653
   95SBC   C03366749   7.010   2.932  11.426
   95SBC   H00366750   6.965   2.987  11.507
   95SBC   O00466751   6.993   3.001  11.308
   95SBC   C03466752   7.034   2.939  11.194
   95SBC   C03566753   7.002   3.001  11.072
   95SBC   C03666754   7.044   2.935  10.954
   95SBC   H00566755   7.031   2.982  10.857
   95SBC   C03766756   7.126   2.820  10.956
   95SBC   H00666757   7.166   2.774  10.867
   95SBC   C00D66758   7.170   2.768  11.084
   95SBC   C00C66759   7.251   2.657  11.085
   95SBC   C00B66760   7.336   2.606  10.967
   95SBC   C00A66761   7.382   2.641  10.825
   95SBC   C00966762   7.450   2.523  10.787
   95SBC   C00866763   7.530   2.494  10.673
   95SBC   C00766764   7.557   2.596  10.589
   95SBC   C00666765   7.638   2.566  10.475
   95SBC   C00566766   7.672   2.679  10.392
   95SBC   C00466767   7.647   2.813  10.433
   95SBC   C00366768   7.563   2.834  10.544
   95SBC   C00266769   7.523   2.963  10.576
   95SBC   C01C66770   7.584   3.070  10.499
   95SBC   C01B66771   7.573   3.207  10.544
   95SBC   H00066772   7.534   3.223  10.643
   95SBC   C00166773   7.439   2.976  10.685
   95SBC   C00066774   7.430   2.879  10.782
   95SBC   C01U66775   7.381   2.950  10.892
   95SBC   H00266776   7.358   2.904  10.987
   95SBC   C01T66777   7.333   3.084  10.847
   95SBC   O00266778   7.274   3.178  10.899
   95SBC   O00166779   7.372   3.085  10.713
   95SBC   C01S66780   7.512   2.724  10.624
   95SBC   C00N66781   7.584   2.368  10.668
   95SBC   C00M66782   7.588   2.277  10.779
   95SBC   C00J66783   7.514   2.305  10.888
   95SBC   C00I66784   7.506   2.232  11.004
   95SBC   C00H66785   7.446   2.280  11.117
   95SBC   C00G66786   7.386   2.407  11.115
   95SBC   C00F66787   7.328   2.460  11.224
   95SBC   C01X66788   7.452   2.212  11.238
   95SBC   C01W66789   7.522   2.092  11.237
   95SBC   C01V66790   7.595   2.049  11.121
   95SBC   C02066791   7.678   1.938  11.126
   95SBC   C01Z66792   7.536   2.019  11.352
   95SBC   C02Y66793   7.608   1.907  11.343
   95SBC   C03966794   7.620   1.836  11.460
   95SBC   C02W66795   7.483   2.065  11.475
   95SBC   C01Y66796   7.399   2.266  11.355
   95SBC   C00U66797   7.592   2.127  11.008
   95SBC   C00S66798   7.675   2.096  10.900
   95SBC   C00T66799   7.758   1.987  10.910
   95SBC   C00R66800   7.668   2.169  10.787
   95SBC   C00Q66801   7.740   2.136  10.677
   95SBC   C00V66802   7.826   2.029  10.683
   95SBC   C02466803   7.911   2.003  10.578
   95SBC   C00X66804   7.890   2.066  10.462
   95SBC   C00P66805   7.736   2.216  10.567
   95SBC   C00O66806   7.658   2.333  10.558
   95SBC   C00K66807   7.451   2.429  10.889
   95SBC   N00066808   7.442   2.747  10.751
   95SBC   C00L66809   7.384   2.475  10.993
   95SBC   H00466810   6.952   3.096  11.070
   95SBC   C02Q66811   7.113   2.818  11.201
   95SBC   C00E66812   7.260   2.583  11.206
   95SBC   C03066813   7.170   2.613  11.567
   95SBC   O00366814   7.174   2.538  11.688
   95SBC   C02S66815   7.335   2.386  11.342
   95SBC   C03866816   7.230   2.416  11.689
   95SBC   C03L66817   7.228   2.335  11.804
   95SBC   H00866818   7.185   2.377  11.894
   95SBC   C02V66819   7.407   2.184  11.469
   95SBC   C03K66820   7.291   2.207  11.816
   95SBC   C0BK66821   7.290   2.129  11.929
   95SBC   H00T66822   7.243   2.164  12.020
   95SBC   C03H66823   7.485   1.984  11.590
   95SBC   C0BL66824   7.354   2.007  11.948
   95SBC   C0GU66825   7.360   1.946  12.074
   95SBC   H01O66826   7.310   1.976  12.164
   95SBC   C0GT66827   7.431   1.826  12.100
   95SBC   H01P66828   7.433   1.778  12.197
   95SBC   C0GS66829   7.508   1.784  11.999
   95SBC   C0GV66830   7.596   1.673  12.008
   95SBC   C0GW66831   7.632   1.594  12.123
   95SBC   H01Q66832   7.581   1.598  12.218
   95SBC   C0GX66833   7.731   1.507  12.102
   95SBC   H01R66834   7.762   1.442  12.183
   95SBC   O00L66835   7.793   1.491  11.979
   95SBC   C0GQ66836   7.657   1.657  11.883
   95SBC   C03A66837   7.569   1.869  11.583
   95SBC   C05L66838   7.759   1.556  11.865
   95SBC   C04W66839   8.269   1.342  11.591
   95SBC   C05I66840   8.389   1.267  11.608
   95SBC   C05O66841   8.422   1.217  11.733
   95SBC   C05266842   8.477   1.233  11.502
   95SBC   C04V66843   8.244   1.383  11.463
   95SBC   C04U66844   8.336   1.361  11.357
   95SBC   N00966845   8.339   1.246  11.843
   95SBC   C0GP66846   8.541   1.146  11.754
   95SBC   C05W66847   8.627   1.116  11.646
   95SBC   C07D66848   8.911   0.895  11.571
   95SBC   C06J66849   8.859   1.003  11.323
   95SBC   C05P66850   8.602   1.172  11.523
   95SBC   C05R66851   8.730   1.143  11.186
   95SBC   C04Z66852   8.449   1.284  11.377
   95SBC   C04C66853   8.601   1.288  11.042
   95SBC   C04G66854   8.463   1.428  10.895
   95SBC   C04J66855   8.243   1.583  10.855
   95SBC   C04T66856   8.315   1.415  11.231
   95SBC   N00366857   8.124   1.455  11.435
   95SBC   C04P66858   7.911   1.561  11.517
   95SBC   C03D66859   7.707   1.724  11.460
   95SBC   C02166860   7.691   1.868  11.241
   95SBC   C03F66861   7.967   1.648  11.161
   95SBC   C02266862   7.758   1.906  11.022
   95SBC   C02A66863   8.052   1.696  10.943
   95SBC   C02366864   7.842   1.960  10.802
   95SBC   C02566865   8.009   1.905  10.586
   95SBC   C02D66866   8.098   1.886  10.481
   95SBC   C02E66867   8.088   1.964  10.369
   95SBC   C02N66868   8.179   1.956  10.265
   95SBC   C04N66869   8.139   1.676  10.835
   95SBC   C02P66870   8.206   1.798  10.497
   95SBC   C04I66871   8.327   1.566  10.751
   95SBC   C04466872   8.517   1.538  10.549
   95SBC   C04366873   8.297   1.787  10.392
   95SBC   C05N66874   8.279   1.861  10.272
   95SBC   C09U66875   8.583   1.817   9.980
   95SBC   C09V66876   8.692   1.810   9.892
   95SBC   C09X66877   8.695   1.877   9.770
   95SBC   C09Y66878   8.801   1.892   9.678
   95SBC   C0A166879   8.918   1.836   9.724
   95SBC   C0A266880   8.918   1.755   9.837
   95SBC   C0A466881   9.032   1.681   9.865
   95SBC   C07166882   9.029   1.583   9.964
   95SBC   C0A566883   9.148   1.517  10.001
   95SBC   C0A966884   9.259   1.537   9.925
   95SBC   C0A866885   9.253   1.627   9.818
   95SBC   C0AP66886   9.368   1.650   9.745
   95SBC   C0BY66887   9.360   1.747   9.641
   95SBC   C0BX66888   9.257   1.826   9.610
   95SBC   C0C266889   9.270   1.918   9.502
   95SBC   C0C366890   9.155   1.988   9.475
   95SBC   C0CT66891   9.033   1.963   9.542
   95SBC   C0C166892   9.394   1.956   9.448
   95SBC   C0C066893   9.504   1.869   9.472
   95SBC   C0A766894   9.144   1.806   9.688
   95SBC   C0BZ66895   9.478   1.764   9.565
   95SBC   C0BO66896   9.591   1.695   9.600
   95SBC   C0BN66897   9.601   1.605   9.707
   95SBC   C0BM66898   9.724   1.566   9.750
   95SBC   C0B966899   9.732   1.483   9.858
   95SBC   C0B866900   9.619   1.449   9.924
   95SBC   C0AD66901   9.496   1.502   9.890
   95SBC   C0AF66902   9.627   1.380  10.046
   95SBC   C0AG66903   9.752   1.342  10.099
   95SBC   C0B766904   9.864   1.380  10.027
   95SBC   C0AE66905   9.511   1.349  10.106
   95SBC   C0AB66906   9.387   1.396  10.065
   95SBC   C0AA66907   9.272   1.375  10.145
   95SBC   C0AJ66908   9.520   1.263  10.215
   95SBC   C0AK66909   9.405   1.243  10.290
   95SBC   C06W66910   9.453   1.201  10.409
   95SBC   C0AI66911   9.646   1.230  10.285
   95SBC   C0BP66912   9.704   1.742   9.528
   95SBC   C0BQ66913   9.834   1.692   9.558
   95SBC   C0BW66914   9.485   1.582   9.778
   95SBC   C0AC66915   9.378   1.477   9.956
   95SBC   C0A666916   9.144   1.706   9.789
   95SBC   C0A366917   9.032   1.869   9.653
   95SBC   C09Z66918   8.799   1.978   9.566
   95SBC   C09W66919   8.801   1.738   9.919
   95SBC   C07266920   8.808   1.659  10.030
   95SBC   C09H66921   8.577   1.938   9.739
   95SBC   C09G66922   8.568   2.005   9.616
   95SBC   C09P66923   8.452   2.084   9.628
   95SBC   C02O66924   8.243   2.132   9.946
   95SBC   C02M66925   8.170   2.044  10.156
   95SBC   C02F66926   7.974   2.046  10.353
   95SBC   C00W66927   7.795   2.167  10.461
   95SBC   C01R66928   7.668   2.430  10.460
   95SBC   C01N66929   7.870   2.334  10.172
   95SBC   C01L66930   7.973   2.498  10.027
   95SBC   C01H66931   7.925   2.838   9.985
   95SBC   C01K66932   7.757   2.663  10.275
   95SBC   C01E66933   7.693   2.920  10.352
   95SBC   C01G66934   7.890   2.976  10.014
   95SBC   C01D66935   7.656   3.048  10.382
   95SBC   C01A66936   7.624   3.314  10.473
   95SBC   H00166937   7.612   3.414  10.512
   95SBC   C01F66938   7.821   3.239  10.111
   95SBC   C03P66939   7.902   3.470   9.960
   95SBC   C03T66940   8.013   3.337   9.811
   95SBC   C08I66941   8.172   3.280   9.582
   95SBC   C08J66942   8.264   3.251   9.488
   95SBC   C08L66943   8.371   3.075   9.349
   95SBC   C09366944   8.514   2.900   9.229
   95SBC   C08Z66945   8.367   2.708   9.364
   95SBC   C09T66946   8.734   2.493   9.150
   95SBC   C09S66947   8.452   2.419   9.350
   95SBC   C09Q66948   8.438   2.192   9.532
   95SBC   C09F66949   8.680   2.035   9.536
   95SBC   C09E66950   8.751   2.290   9.287
   95SBC   C0A066951   8.913   2.021   9.502
   95SBC   C0CU66952   9.155   2.087   9.375
   95SBC   C0CR66953   9.282   2.120   9.314
   95SBC   C0CZ66954   9.282   2.218   9.213
   95SBC   C0DA66955   8.821   2.378   9.199
   95SBC   C0D966956   9.002   2.308   8.884
   95SBC   H00V66957   8.916   2.266   8.835
   95SBC   C0CY66958   9.157   2.261   9.158
   95SBC   C0DF66959   9.136   2.312   8.828
   95SBC   C0DE66960   9.233   2.255   8.731
   95SBC   C0GI66961   9.210   2.204   8.605
   95SBC   H01K66962   9.110   2.210   8.565
   95SBC   C0GJ66963   9.320   2.166   8.530
   95SBC   H01J66964   9.307   2.144   8.425
   95SBC   O00I66965   9.452   2.182   8.578
   95SBC   C0GH66966   9.474   2.218   8.714
   95SBC   C0GG66967   9.606   2.208   8.764
   95SBC   O00G66968   9.701   2.192   8.665
   95SBC   C0G866969   9.833   2.163   8.694
   95SBC   C0G966970   9.914   2.154   8.582
   95SBC   H01G66971   9.870   2.176   8.487
   95SBC   C0GA66972  10.051   2.128   8.605
   95SBC   H01H66973  10.114   2.136   8.518
   95SBC   C0GB66974  10.106   2.101   8.731
   95SBC   C0EP66975  10.011   2.094   8.840
   95SBC   C0E866976  10.056   2.017   8.960
   95SBC   C0CK66977   9.999   1.972   9.082
   95SBC   C0CL66978   9.907   2.050   9.143
   95SBC   C0E966979   9.816   2.136   9.068
   95SBC   C0GE66980   9.785   2.165   8.927
   95SBC   C0E766981  10.191   2.004   8.981
   95SBC   C0CJ66982  10.225   1.949   9.103
   95SBC   C0E666983  10.361   1.945   9.144
   95SBC   H00Y66984  10.386   1.899   9.238
   95SBC   C0EO66985  10.455   1.989   9.048
   95SBC   H01166986  10.555   1.961   9.075
   95SBC   C0G666987  10.422   2.030   8.915
   95SBC   C0G566988  10.514   2.074   8.810
   95SBC   H01F66989  10.621   2.072   8.824
   95SBC   C0GD66990  10.472   2.108   8.685
   95SBC   H01I66991  10.547   2.139   8.613
   95SBC   O00H66992  10.336   2.105   8.654
   95SBC   C0EQ66993  10.284   2.044   8.883
   95SBC   C0GC66994  10.247   2.086   8.758
   95SBC   C0G766995   9.879   2.135   8.825
   95SBC   C0DD66996   9.363   2.254   8.789
   95SBC   C0GF66997   9.654   2.221   8.895
   95SBC   C0CO66998   9.741   2.188   9.170
   95SBC   C0D066999   9.406   2.245   9.158
   95SBC   C0C467000   9.407   2.064   9.365
   95SBC   C0CN67001   9.777   2.144   9.301
   95SBC   C0CP67002   9.647   1.847   9.443
   95SBC   C0CM67003   9.888   2.059   9.287
   95SBC   C0CI67004  10.099   1.906   9.167
   95SBC   C0CD67005  10.302   1.607   9.476
   95SBC   C0BR67006   9.946   1.723   9.477
   95SBC   C0CS67007   9.836   1.602   9.670
   95SBC   C0B667008   9.859   1.444   9.901
   95SBC   C0CG67009  10.194   1.537   9.680
   95SBC   C0CF67010  10.309   1.557   9.604
   95SBC   C0E567011  10.539   1.589   9.450
   95SBC   C0DT67012  10.783   1.578   9.565
   95SBC   C0DL67013  10.575   1.490   9.849
   95SBC   C0DM67014  10.591   1.439   9.977
   95SBC   C0DY67015  10.823   1.491   9.976
   95SBC   C0DU67016  10.903   1.592   9.629
   95SBC   C0F067017  11.142   1.542   9.600
   95SBC   C0F467018  11.356   1.399   9.689
   95SBC   C0FG67019  11.186   1.490   9.999
   95SBC   O00B67020  11.450   1.274   9.881
   95SBC   C0FN67021  11.206   1.425  10.117
   95SBC   C0DZ67022  10.949   1.476  10.034
   95SBC   O00C67023  10.860   1.342  10.359
   95SBC   C0FR67024  10.763   1.297  10.435
   95SBC   O00D67025  10.789   1.268  10.555
   95SBC   C0E067026  10.714   1.439  10.040
   95SBC   C0E367027  10.631   1.292  10.368
   95SBC   C0AW67028  10.516   1.254  10.435
   95SBC   C0AV67029  10.506   1.209  10.572
   95SBC   H00Q67030  10.590   1.222  10.638
   95SBC   C0AU67031  10.387   1.172  10.633
   95SBC   H00R67032  10.392   1.148  10.738
   95SBC   C0AT67033  10.271   1.169  10.554
   95SBC   C0AS67034  10.129   1.142  10.586
   95SBC   C0AR67035  10.090   1.084  10.707
   95SBC   C0BE67036  10.281   1.203  10.425
   95SBC   C0DN67037  10.478   1.396  10.043
   95SBC   C0AX67038  10.396   1.249  10.361
   95SBC   C0BB67039  10.233   1.370  10.054
   95SBC   C0BD67040  10.153   1.210  10.372
   95SBC   C0B267041   9.986   1.349  10.083
   95SBC   C0AH67042   9.768   1.272  10.222
   95SBC   C0BF67043  10.055   1.182  10.467
   95SBC   C0AL67044   9.594   1.177  10.404
   95SBC   C07U67045   9.839   1.067  10.655
   95SBC   C0AQ67046   9.955   1.055  10.736
   95SBC   C0BG67047  10.171   1.033  10.820
   95SBC   C0FY67048  10.062   0.765  11.033
   95SBC   C0BJ67049  10.276   0.927  10.817
   95SBC   H00S67050  10.347   0.910  10.737
   95SBC   C0FZ67051  10.150   0.664  11.029
   95SBC   C07S67052   9.923   0.734  11.034
   95SBC   C0G167053   9.953   0.370  11.086
   95SBC   C07K67054   9.584   0.380  11.073
   95SBC   C07H67055   9.644   0.659  11.028
   95SBC   C06B67056   9.336   0.679  11.167
   95SBC   C06N67057   9.249   0.852  11.039
   95SBC   C06667058   9.601   0.876  10.897
   95SBC   C06267059   9.469   1.084  10.703
   95SBC   C05Y67060   9.142   1.034  10.896
   95SBC   C06167061   9.379   1.179  10.647
   95SBC   C05H67062   9.021   1.170  10.599
   95SBC   C06V67063   9.358   1.204  10.509
   95SBC   C06Y67064   9.278   1.293  10.257
   95SBC   C05C67065   8.935   1.339  10.402
   95SBC   C06Z67066   9.153   1.438  10.113
   95SBC   C07067067   8.921   1.579  10.052
   95SBC   C05B67068   8.826   1.422  10.372
   95SBC   C05767069   8.605   1.597  10.327
   95SBC   C05967070   8.700   1.662  10.120
   96SBC   C05867071   7.789   0.322  12.239
   96SBC   C05A67072   7.700   0.357  12.340
   96SBC   C06Q67073   7.579   0.414  12.309
   96SBC   C06R67074   7.488   0.450  12.411
   96SBC   C06S67075   7.515   0.424  12.551
   96SBC   C06T67076   7.413   0.455  12.642
   96SBC   C06U67077   7.407   0.430  12.789
   96SBC   C06X67078   7.493   0.362  12.883
   96SBC   C06067079   7.436   0.365  13.017
   96SBC   C05Z67080   7.496   0.383  13.146
   96SBC   C06867081   7.393   0.456  13.218
   96SBC   C06767082   7.383   0.496  13.359
   96SBC   C06967083   7.485   0.451  13.453
   96SBC   C06A67084   7.493   0.485  13.600
   96SBC   C07367085   7.447   0.594  13.680
   96SBC   C07P67086   7.532   0.662  13.775
   96SBC   C07O67087   7.672   0.644  13.783
   96SBC   H00D67088   7.719   0.570  13.720
   96SBC   C07N67089   7.750   0.716  13.875
   96SBC   H00E67090   7.856   0.700  13.884
   96SBC   C07M67091   7.686   0.797  13.968
   96SBC   H00F67092   7.746   0.849  14.041
   96SBC   C07L67093   7.546   0.808  13.971
   96SBC   C07Q67094   7.482   0.890  14.072
   96SBC   H00G67095   7.544   0.940  14.145
   96SBC   O00F67096   7.349   0.910  14.075
   96SBC   C07J67097   7.279   0.859  13.967
   96SBC   C07I67098   7.338   0.772  13.868
   96SBC   N00467099   7.255   0.708  13.766
   96SBC   C07R67100   7.110   0.722  13.782
   96SBC   C07T67101   7.059   0.812  13.885
   96SBC   C0FX67102   6.928   0.846  13.886
   96SBC   C0FW67103   6.870   0.943  13.966
   96SBC   C0G067104   6.954   1.009  14.057
   96SBC   C0G267105   6.907   1.109  14.140
   96SBC   H01E67106   6.977   1.153  14.210
   96SBC   C0G367107   6.773   1.146  14.135
   96SBC   H01C67108   6.736   1.228  14.194
   96SBC   C0G467109   6.691   1.090  14.033
   96SBC   H01D67110   6.588   1.122  14.022
   96SBC   O00E67111   7.083   0.965  14.067
   96SBC   C0FV67112   6.742   0.992  13.945
   96SBC   C0FU67113   6.664   0.933  13.840
   96SBC   H01B67114   6.568   0.968  13.805
   96SBC   C0FT67115   6.710   0.820  13.778
   96SBC   C0FS67116   6.667   0.740  13.666
   96SBC   C0BI67117   6.771   0.638  13.637
   96SBC   C0BH67118   6.781   0.624  13.500
   96SBC   C07F67119   6.903   0.629  13.422
   96SBC   C07E67120   7.025   0.580  13.457
   96SBC   C07G67121   7.085   0.599  13.579
   96SBC   C07467122   7.223   0.590  13.557
   96SBC   C06567123   7.135   0.581  13.366
   96SBC   C06467124   7.109   0.631  13.238
   96SBC   C06367125   7.187   0.616  13.124
   96SBC   C07567126   7.105   0.680  13.017
   96SBC   C0AM67127   6.985   0.744  13.070
   96SBC   C0AN67128   6.878   0.827  13.003
   96SBC   C0AO67129   6.863   0.859  12.855
   96SBC   C0B167130   6.762   0.944  12.806
   96SBC   C0B067131   6.683   1.017  12.892
   96SBC   C0AZ67132   6.603   1.125  12.862
   96SBC   C0AY67133   6.540   1.200  12.960
   96SBC   N00767134   6.456   1.310  12.931
   96SBC   C0E267135   6.400   1.387  13.034
   96SBC   C0E167136   6.312   1.485  12.999
   96SBC   C0E467137   6.263   1.567  13.101
   96SBC   C0FF67138   6.169   1.673  13.075
   96SBC   C0FJ67139   6.107   1.780  13.161
   96SBC   C0FK67140   6.185   1.854  13.257
   96SBC   H01667141   6.275   1.816  13.302
   96SBC   C0FL67142   6.123   1.984  13.257
   96SBC   H01767143   6.149   2.076  13.306
   96SBC   C0FM67144   6.007   1.990  13.170
   96SBC   C0FH67145   5.952   2.080  13.068
   96SBC   C0FI67146   5.934   1.995  12.958
   96SBC   C0F367147   5.939   2.039  12.826
   96SBC   C0F267148   5.958   1.939  12.734
   96SBC   C0DW67149   6.022   1.816  12.762
   96SBC   C0FE67150   6.037   1.781  12.892
   96SBC   C0DV67151   6.078   1.741  12.663
   96SBC   C0DX67152   6.161   1.633  12.701
   96SBC   C0DK67153   6.231   1.567  12.600
   96SBC   C0DJ67154   6.225   1.611  12.469
   96SBC   C0DI67155   6.286   1.542  12.370
   96SBC   C0DH67156   6.356   1.429  12.399
   96SBC   C0DG67157   6.371   1.388  12.530
   96SBC   C0BV67158   6.463   1.286  12.562
   96SBC   C0BC67159   6.492   1.260  12.697
   96SBC   C0BA67160   6.526   1.211  12.464
   96SBC   C0B467161   6.617   1.112  12.499
   96SBC   C0B367162   6.642   1.083  12.633
   96SBC   C0B567163   6.683   1.046  12.397
   96SBC   C0BU67164   6.652   1.071  12.263
   96SBC   C0BT67165   6.567   1.176  12.227
   96SBC   C0BS67166   6.545   1.202  12.091
   96SBC   C0CC67167   6.466   1.313  12.058
   96SBC   C0CB67168   6.460   1.363  11.929
   96SBC   C0CH67169   6.416   1.498  11.920
   96SBC   C0DO67170   6.360   1.576  12.017
   96SBC   C0DP67171   6.305   1.697  11.985
   96SBC   C0EA67172   6.300   1.744  11.846
   96SBC   H01267173   6.321   1.680  11.762
   96SBC   O00967174   6.248   1.870  11.812
   96SBC   C0EH67175   6.204   1.951  11.914
   96SBC   C0EG67176   6.155   2.078  11.880
   96SBC   C0EJ67177   6.162   2.160  11.763
   96SBC   H01067178   6.212   2.135  11.670
   96SBC   C0EK67179   6.102   2.289  11.793
   96SBC   H00Z67180   6.087   2.373  11.728
   96SBC   C0EL67181   6.072   2.282  11.932
   96SBC   C0EM67182   6.026   2.379  12.031
   96SBC   C0EW67183   5.973   2.514  12.010
   96SBC   H01367184   5.973   2.542  11.906
   96SBC   C0EX67185   5.947   2.612  12.119
   96SBC   H01467186   5.906   2.709  12.094
   96SBC   C0F167187   5.955   2.555  12.249
   96SBC   C0EU67188   5.992   2.419  12.272
   96SBC   C0ET67189   5.990   2.354  12.397
   96SBC   C0ES67190   6.031   2.222  12.359
   96SBC   C0EE67191   6.059   2.212  12.217
   96SBC   C0ED67192   6.099   2.116  12.124
   96SBC   C0EC67193   6.130   1.981  12.148
   96SBC   C0EB67194   6.117   1.923  12.278
   96SBC   C0EN67195   6.042   1.983  12.385
   96SBC   C0ER67196   6.028   1.907  12.503
   96SBC   C0DS67197   6.164   1.788  12.310
   96SBC   C0DR67198   6.232   1.721  12.214
   96SBC   C0EY67199   5.980   2.113  12.425
   96SBC   C0EZ67200   5.959   2.119  12.569
   96SBC   C0F567201   5.939   2.221  12.670
   96SBC   C0F667202   5.925   2.359  12.637
   96SBC   N00867203   5.890   2.443  12.751
   96SBC   C0F767204   5.909   2.405  12.890
   96SBC   C0FQ67205   5.900   2.501  12.996
   96SBC   H01867206   5.913   2.479  13.101
   96SBC   C0FP67207   5.853   2.628  12.962
   96SBC   H01967208   5.817   2.697  13.037
   96SBC   C0FO67209   5.817   2.658  12.837
   96SBC   H01A67210   5.769   2.754  12.827
   96SBC   C0F867211   5.933   2.266  12.911
   96SBC   C0F967212   5.853   2.578  12.723
   96SBC   C0FA67213   5.846   2.635  12.600
   96SBC   H01567214   5.811   2.736  12.583
   96SBC   C0FB67215   5.899   2.557  12.488
   96SBC   C0FD67216   5.934   2.420  12.511
   96SBC   C0FC67217   5.905   2.621  12.364
   96SBC   O00A67218   5.862   2.733  12.345
   96SBC   C0EV67219   6.039   2.342  12.167
   96SBC   C0EF67220   6.110   2.156  11.983
   96SBC   C0EI67221   6.194   1.905  12.051
   96SBC   C0DQ67222   6.244   1.779  12.082
   96SBC   C0CE67223   6.355   1.521  12.140
   96SBC   H00U67224   6.435   1.539  11.822
   96SBC   C0CA67225   6.500   1.285  11.816
   96SBC   C0C967226   6.577   1.161  11.843
   96SBC   C0C867227   6.604   1.078  11.728
   96SBC   C0C767228   6.703   0.981  11.707
   96SBC   C0C667229   6.698   0.914  11.582
   96SBC   C0C567230   6.799   0.850  11.492
   96SBC   C0CQ67231   6.768   0.857  11.357
   96SBC   C0D167232   6.675   0.949  11.314
   96SBC   C0D867233   6.716   1.003  11.195
   96SBC   C0D767234   6.813   0.920  11.145
   96SBC   C0D667235   6.868   0.922  11.015
   96SBC   C0D567236   6.955   0.819  10.970
   96SBC   C0D467237   7.017   0.711  11.039
   96SBC   C0D367238   7.134   0.679  10.969
   96SBC   C0CX67239   7.236   0.633  11.063
   96SBC   C0CW67240   7.185   0.662  11.197
   96SBC   C0CV67241   7.232   0.642  11.337
   96SBC   C0D267242   7.371   0.602  11.364
   96SBC   C09D67243   7.474   0.569  11.274
   96SBC   C09C67244   7.605   0.530  11.315
   96SBC   C09B67245   7.712   0.486  11.232
   96SBC   C09A67246   7.685   0.482  11.092
   96SBC   C09967247   7.571   0.535  11.047
   96SBC   C09867248   7.550   0.482  10.921
   96SBC   C08Y67249   7.645   0.375  10.895
   96SBC   C08X67250   7.643   0.258  10.813
   96SBC   C08W67251   7.521   0.228  10.735
   96SBC   C08U67252   7.386   0.295  10.742
   96SBC   C08V67253   7.331   0.397  10.826
   96SBC   C0DC67254   7.191   0.401  10.796
   96SBC   H00W67255   7.125   0.472  10.844
   96SBC   C0DB67256   7.162   0.314  10.687
   96SBC   H00X67257   7.063   0.291  10.652
   96SBC   C08T67258   7.284   0.253  10.652
   96SBC   C08S67259   7.301   0.165  10.544
   96SBC   H00N67260   7.221   0.151  10.474
   96SBC   C08R67261   7.423   0.090  10.546
   96SBC   C08Q67262   7.448  -0.011  10.449
   96SBC   H00O67263   7.370  -0.022  10.375
   96SBC   C08P67264   7.552  -0.106  10.455
   96SBC   C08O67265   7.558  -0.224  10.368
   96SBC   H00P67266   7.484  -0.238  10.290
   96SBC   C08N67267   7.664  -0.311  10.386
   96SBC   C08M67268   7.674  -0.423  10.293
   96SBC   O00867269   7.594  -0.458  10.207
   96SBC   O00767270   7.776  -0.520  10.325
   96SBC   C08H67271   7.863  -0.504  10.428
   96SBC   C08G67272   7.961  -0.601  10.452
   96SBC   C03V67273   7.994  -0.714  10.377
   96SBC   H00967274   7.942  -0.735  10.285
   96SBC   C03U67275   8.094  -0.810  10.419
   96SBC   C03W67276   8.138  -0.923  10.347
   96SBC   H00A67277   8.096  -0.946  10.250
   96SBC   C03X67278   8.235  -1.006  10.398
   96SBC   H00B67279   8.264  -1.091  10.339
   96SBC   O00567280   8.291  -0.986  10.526
   96SBC   C03O67281   8.263  -0.868  10.586
   96SBC   C03N67282   8.331  -0.844  10.704
   96SBC   O00067283   8.420  -0.935  10.739
   96SBC   C01967284   8.467  -0.934  10.864
   96SBC   C01867285   8.455  -0.813  10.941
   96SBC   C01767286   8.376  -0.707  10.892
   96SBC   C01667287   8.363  -0.588  10.964
   96SBC   C01567288   8.432  -0.588  11.087
   96SBC   C01467289   8.429  -0.472  11.161
   96SBC   C01367290   8.336  -0.365  11.123
   96SBC   C01267291   8.351  -0.276  11.238
   96SBC   C01167292   8.452  -0.337  11.321
   96SBC   C01067293   8.497  -0.277  11.428
   96SBC   C00Z67294   8.581  -0.327  11.526
   96SBC   C00Y67295   8.571  -0.228  11.627
   96SBC   C01O67296   8.495  -0.116  11.590
   96SBC   C01P67297   8.407  -0.060  11.681
   96SBC   C02L67298   8.300   0.014  11.636
   96SBC   C02K67299   8.272  -0.005  11.499
   96SBC   C01M67300   8.331  -0.100  11.407
   96SBC   C02J67301   8.171   0.091  11.453
   96SBC   C02I67302   8.139   0.117  11.318
   96SBC   C02H67303   8.166   0.048  11.203
   96SBC   C01Q67304   8.224  -0.074  11.183
   96SBC   C02G67305   8.200  -0.114  11.047
   96SBC   C08967306   8.137  -0.002  10.983
   96SBC   C08867307   8.054  -0.056  10.883
   96SBC   C08767308   8.097  -0.201  10.872
   96SBC   C08667309   8.056  -0.292  10.772
   96SBC   C03S67310   8.108  -0.422  10.741
   96SBC   N00667311   8.035  -0.467  10.631
   96SBC   C08F67312   7.937  -0.379  10.603
   96SBC   C01J67313   8.205  -0.509  10.796
   96SBC   C03R67314   8.217  -0.630  10.724
   96SBC   C03Q67315   8.150  -0.661  10.601
   96SBC   C08E67316   7.948  -0.267  10.680
   96SBC   C08D67317   7.848  -0.167  10.675
   96SBC   C08K67318   7.749  -0.180  10.572
   96SBC   C08C67319   7.844  -0.043  10.745
   96SBC   C09167320   7.742   0.050  10.728
   96SBC   C09267321   7.632   0.020  10.641
   96SBC   C08B67322   7.936   0.015  10.839
   96SBC   C09067323   7.880   0.150  10.876
   96SBC   C09467324   7.932   0.234  10.978
   96SBC   C09567325   7.855   0.330  11.043
   96SBC   C09R67326   7.900   0.350  11.174
   96SBC   C09767327   7.998   0.256  11.200
   96SBC   C09667328   8.018   0.191  11.082
   96SBC   C01I67329   8.198  -0.237  10.970
   96SBC   C08A67330   8.101   0.082  11.086
   96SBC   C09L67331   8.057   0.227  11.323
   96SBC   C09K67332   8.044   0.279  11.457
   96SBC   C09J67333   7.941   0.360  11.506
   96SBC   C09I67334   7.883   0.354  11.638
   96SBC   C09O67335   7.913   0.297  11.767
   96SBC   C09N67336   8.029   0.223  11.790
   96SBC   C09M67337   8.112   0.164  11.689
   96SBC   C06O67338   8.057   0.196  11.928
   96SBC   C05M67339   7.970   0.239  12.031
   96SBC   C06P67340   7.849   0.302  12.001
   96SBC   C04267341   7.992   0.208  12.169
   96SBC   C04167342   8.111   0.140  12.203
   96SBC   C04067343   8.139   0.118  12.340
   96SBC   C03Z67344   8.252   0.049  12.375
   96SBC   C03Y67345   8.330  -0.005  12.274
   96SBC   C02767346   8.433  -0.091  12.310
   96SBC   C02667347   8.514  -0.149  12.212
   96SBC   C02867348   8.611  -0.243  12.249
   96SBC   C02967349   8.629  -0.279  12.383
   96SBC   C02B67350   8.718  -0.377  12.413
   96SBC   C02C67351   8.745  -0.407  12.539
   96SBC   C02X67352   8.829  -0.511  12.570
   96SBC   C03E67353   8.849  -0.544  12.701
   96SBC   C03G67354   8.773  -0.493  12.804
   96SBC   C04Q67355   8.689  -0.387  12.776
   96SBC   C04R67356   8.616  -0.326  12.878
   96SBC   C04S67357   8.517  -0.234  12.847
   96SBC   C04L67358   8.497  -0.197  12.714
   96SBC   C04M67359   8.580  -0.249  12.611
   96SBC   C04K67360   8.401  -0.102  12.679
   96SBC   C04F67361   8.316  -0.055  12.776
   96SBC   C04E67362   8.337  -0.090  12.908
   96SBC   C04D67363   8.254  -0.042  13.007
   96SBC   C05067364   8.274  -0.077  13.140
   96SBC   C05167365   8.189  -0.021  13.241
   96SBC   C05Q67366   8.209  -0.061  13.370
   96SBC   C05V67367   8.118  -0.009  13.467
   96SBC   N00567368   8.140  -0.042  13.604
   96SBC   C07V67369   8.248  -0.123  13.628
   96SBC   C08267370   8.278  -0.146  13.762
   96SBC   C08167371   8.197  -0.111  13.871
   96SBC   C07C67372   8.083  -0.035  13.838
   96SBC   C07B67373   7.998   0.011  13.938
   96SBC   C08067374   8.025  -0.011  14.073
   96SBC   C07Z67375   7.938   0.032  14.171
   96SBC   H00L67376   7.975  -0.007  14.265
   96SBC   C07967377   7.829   0.110  14.147
   96SBC   C07867378   7.806   0.145  14.008
   96SBC   C07767379   7.698   0.222  13.974
   96SBC   C07X67380   7.604   0.265  14.075
   96SBC   H00I67381   7.509   0.315  14.061
   96SBC   C07Y67382   7.634   0.240  14.209
   96SBC   H00H67383   7.560   0.274  14.280
   96SBC   C07667384   7.671   0.257  13.838
   96SBC   C06C67385   7.577   0.357  13.804
   96SBC   H00C67386   7.515   0.404  13.878
   96SBC   C06F67387   7.754   0.201  13.740
   96SBC   C06E67388   7.737   0.231  13.605
   96SBC   C06G67389   7.814   0.197  13.494
   96SBC   C06H67390   7.917   0.114  13.530
   96SBC   C06I67391   7.944   0.080  13.668
   96SBC   C06L67392   7.782   0.229  13.360
   96SBC   C06M67393   7.667   0.303  13.325
   96SBC   C06K67394   7.870   0.182  13.260
   96SBC   C05S67395   7.986   0.108  13.300
   96SBC   C05U67396   7.848   0.213  13.123
   96SBC   C05X67397   7.725   0.277  13.083
   96SBC   C05G67398   7.720   0.289  12.937
   96SBC   C05F67399   7.826   0.256  12.861
   96SBC   C05E67400   7.803   0.281  12.730
   96SBC   C04867401   7.898   0.254  12.628
   96SBC   C05667402   7.852   0.273  12.501
   96SBC   C04567403   7.940   0.227  12.401
   96SBC   C04767404   8.013   0.193  12.672
   96SBC   C04967405   8.038   0.168  12.807
   96SBC   C04B67406   8.140   0.087  12.843
   96SBC   C04667407   8.094   0.147  12.572
   96SBC   C04H67408   8.199   0.068  12.612
   96SBC   C05D67409   7.674   0.328  12.710
   96SBC   C04A67410   7.941   0.200  12.903
   96SBC   C05T67411   7.952   0.172  13.036
   96SBC   C05567412   8.060   0.098  13.072
   96SBC   C06D67413   7.640   0.324  13.565
   96SBC   C07W67414   7.862   0.123  13.772
   96SBC   C08567415   7.747   0.165  14.246
   96SBC   H00M67416   7.772   0.153  14.351
   96SBC   C08467417   8.141  -0.083  14.104
   96SBC   H00J67418   8.163  -0.102  14.208
   96SBC   C07A67419   7.886   0.092  13.903
   96SBC   C08367420   8.220  -0.130  14.013
   96SBC   H00K67421   8.314  -0.177  14.038
   96SBC   O00K67422   8.391  -0.207  13.794
   96SBC   C0GO67423   8.466  -0.278  13.703
   96SBC   C0GN67424   8.558  -0.372  13.736
   96SBC   H01L67425   8.572  -0.389  13.841
   96SBC   C0GM67426   8.639  -0.444  13.644
   96SBC   C0GL67427   8.728  -0.534  13.689
   96SBC   H01M67428   8.748  -0.544  13.794
   96SBC   O00J67429   8.811  -0.595  13.597
   96SBC   C0GK67430   8.780  -0.573  13.467
   96SBC   H01N67431   8.849  -0.626  13.403
   96SBC   C05K67432   8.683  -0.488  13.422
   96SBC   C05J67433   8.665  -0.460  13.281
   96SBC   C04Y67434   8.734  -0.517  13.174
   96SBC   C04X67435   8.721  -0.475  13.038
   96SBC   O00667436   8.801  -0.635  13.192
   96SBC   C05367437   8.862  -0.704  13.095
   96SBC   C04O67438   8.864  -0.656  12.963
   96SBC   C03C67439   8.919  -0.726  12.848
   96SBC   C03B67440   8.975  -0.857  12.827
   96SBC   C05467441   8.948  -0.960  12.917
   96SBC   C0GR67442   8.998  -1.090  12.882
   96SBC   C03M67443   9.037  -1.167  12.760
   96SBC   C03I67444   9.034  -1.114  12.628
   96SBC   C03J67445   9.055  -1.214  12.521
   96SBC   N00267446   9.054  -1.175  12.380
   96SBC   C02U67447   9.074  -1.267  12.278
   96SBC   C02T67448   9.045  -1.231  12.143
   96SBC   C02Z67449   9.069  -1.325  12.044
   96SBC   N00167450   9.055  -1.291  11.908
   96SBC   C02R67451   9.071  -1.392  11.807
   96SBC   C03267452   9.119  -1.519  11.842
   96SBC   C03167453   9.135  -1.546  11.979
   96SBC   H00767454   9.176  -1.641  12.011
   96SBC   C03367455   9.140  -1.610  11.736
   96SBC   H00367456   9.170  -1.710  11.762
   96SBC   O00467457   9.123  -1.578  11.603
   96SBC   C03467458   9.089  -1.446  11.578
   96SBC   C03567459   9.079  -1.412  11.439
   96SBC   C03667460   9.055  -1.277  11.402
   96SBC   H00567461   9.057  -1.251  11.297
   96SBC   C03767462   9.035  -1.179  11.500
   96SBC   H00667463   9.029  -1.076  11.468
   96SBC   C00D67464   9.024  -1.221  11.640
   96SBC   C00C67465   8.989  -1.127  11.738
   96SBC   C00B67466   8.931  -0.988  11.714
   96SBC   C00A67467   8.876  -0.904  11.603
   96SBC   C00967468   8.867  -0.772  11.663
   96SBC   C00867469   8.786  -0.664  11.625
   96SBC   C00767470   8.710  -0.671  11.515
   96SBC   C00667471   8.637  -0.562  11.471
   96SBC   C00567472   8.569  -0.571  11.348
   96SBC   C00467473   8.574  -0.687  11.269
   96SBC   C00367474   8.638  -0.803  11.321
   96SBC   C00267475   8.636  -0.919  11.246
   96SBC   C01C67476   8.579  -0.926  11.118
   96SBC   C01B67477   8.585  -1.047  11.039
   96SBC   H00067478   8.641  -1.137  11.061
   96SBC   C00167479   8.682  -1.032  11.313
   96SBC   C00067480   8.736  -1.024  11.442
   96SBC   C01U67481   8.749  -1.163  11.475
   96SBC   H00267482   8.792  -1.203  11.565
   96SBC   C01T67483   8.701  -1.247  11.366
   96SBC   O00267484   8.696  -1.366  11.345
   96SBC   O00167485   8.660  -1.158  11.268
   96SBC   C01S67486   8.704  -0.793  11.447
   96SBC   C00N67487   8.777  -0.557  11.717
   96SBC   C00M67488   8.822  -0.570  11.849
   96SBC   C00J67489   8.892  -0.678  11.888
   96SBC   C00I67490   8.916  -0.713  12.016
   96SBC   C00H67491   8.961  -0.840  12.051
   96SBC   C00G67492   8.971  -0.943  11.956
   96SBC   C00F67493   8.994  -1.074  11.986
   96SBC   C01X67494   8.978  -0.876  12.181
   96SBC   C01W67495   8.945  -0.783  12.279
   96SBC   C01V67496   8.893  -0.659  12.247
   96SBC   C02067497   8.851  -0.570  12.346
   96SBC   C01Z67498   8.963  -0.818  12.411
   96SBC   C02Y67499   8.937  -0.721  12.500
   96SBC   C03967500   8.963  -0.749  12.632
   96SBC   C02W67501   9.000  -0.945  12.449
   96SBC   C01Y67502   9.015  -1.005  12.214
   96SBC   C00U67503   8.876  -0.622  12.115
   96SBC   C00S67504   8.807  -0.507  12.080
   96SBC   C00T67505   8.758  -0.423  12.181
   96SBC   C00R67506   8.782  -0.481  11.949
   96SBC   C00Q67507   8.698  -0.379  11.917
   96SBC   C00V67508   8.651  -0.294  12.017
   96SBC   C02467509   8.564  -0.187  11.982
   96SBC   C00X67510   8.538  -0.166  11.851
   96SBC   C00P67511   8.662  -0.359  11.784
   96SBC   C00O67512   8.696  -0.448  11.686
   96SBC   C00K67513   8.921  -0.774  11.791
   96SBC   N00067514   8.776  -0.911  11.503
   96SBC   C00L67515   8.946  -0.905  11.823
   96SBC   H00467516   9.106  -1.484  11.363
   96SBC   C02Q67517   9.066  -1.349  11.674
   96SBC   C00E67518   9.010  -1.160  11.877
   96SBC   C03067519   9.114  -1.453  12.079
   96SBC   O00367520   9.126  -1.491  12.214
   96SBC   C02S67521   9.018  -1.102  12.118
   96SBC   C03867522   9.102  -1.400  12.314
   96SBC   C03L67523   9.104  -1.439  12.443
   96SBC   H00867524   9.118  -1.543  12.469
   96SBC   C02V67525   9.022  -1.040  12.347
   96SBC   C03K67526   9.084  -1.349  12.550
   96SBC   C0BK67527   9.096  -1.386  12.680
   96SBC   H00T67528   9.132  -1.487  12.696
   96SBC   C03H67529   9.012  -0.986  12.584
   96SBC   C0BL67530   9.077  -1.302  12.787
   96SBC   C0GU67531   9.085  -1.355  12.917
   96SBC   H01O67532   9.105  -1.458  12.940
   96SBC   C0GT67533   9.064  -1.283  13.030
   96SBC   H01P67534   9.078  -1.330  13.126
   96SBC   C0GS67535   9.018  -1.156  13.009
   96SBC   C0GV67536   8.973  -1.064  13.109
   96SBC   C0GW67537   8.965  -1.087  13.248
   96SBC   H01Q67538   8.988  -1.185  13.287
   96SBC   C0GX67539   8.921  -0.983  13.317
   96SBC   H01R67540   8.912  -0.984  13.425
   96SBC   O00L67541   8.898  -0.857  13.271
   96SBC   C0GQ67542   8.943  -0.939  13.051
   96SBC   C03A67543   8.994  -0.877  12.682
   96SBC   C05L67544   8.910  -0.831  13.139
   96SBC   C04W67545   8.572  -0.358  13.244
   96SBC   C05I67546   8.489  -0.305  13.338
   96SBC   C05O67547   8.505  -0.329  13.476
   96SBC   C05267548   8.389  -0.206  13.299
   96SBC   C04V67549   8.553  -0.317  13.114
   96SBC   C04U67550   8.456  -0.220  13.076
   96SBC   N00967551   8.608  -0.415  13.512
   96SBC   C0GP67552   8.430  -0.269  13.570
   96SBC   C05W67553   8.325  -0.187  13.529
   96SBC   C07D67554   8.053   0.002  13.706
   96SBC   C06J67555   8.008   0.069  13.431
   96SBC   C05P67556   8.305  -0.151  13.398
   96SBC   C05R67557   8.078   0.056  13.206
   96SBC   C04Z67558   8.377  -0.161  13.172
   96SBC   C04C67559   8.148   0.045  12.976
   96SBC   C04G67560   8.217   0.031  12.743
   96SBC   C04J67561   8.380  -0.065  12.541
   96SBC   C04T67562   8.441  -0.178  12.946
   96SBC   N00367563   8.635  -0.369  13.007
   96SBC   C04P67564   8.795  -0.537  12.933
   96SBC   C03D67565   8.915  -0.664  12.729
   96SBC   C02167566   8.877  -0.601  12.475
   96SBC   C03F67567   8.674  -0.343  12.643
   96SBC   C02267568   8.774  -0.458  12.311
   96SBC   C02A67569   8.558  -0.215  12.478
   96SBC   C02367570   8.678  -0.319  12.150
   96SBC   C02567571   8.491  -0.119  12.078
   96SBC   C02D67572   8.391  -0.030  12.040
   96SBC   C02E67573   8.356  -0.011  11.904
   96SBC   C02N67574   8.246   0.064  11.867
   96SBC   C04N67575   8.455  -0.123  12.442
   96SBC   C02P67576   8.306   0.022  12.135
   96SBC   C04I67577   8.277   0.024  12.509
   96SBC   C04467578   8.057   0.160  12.436
   96SBC   C04367579   8.198   0.097  12.100
   96SBC   C05N67580   8.169   0.121  11.965
   96SBC   C09U67581   7.820   0.331  11.870
   96SBC   C09V67582   7.706   0.409  11.846
   96SBC   C09X67583   7.669   0.441  11.717
   96SBC   C09Y67584   7.547   0.498  11.674
   96SBC   C0A167585   7.457   0.529  11.772
   96SBC   C0A267586   7.486   0.498  11.904
   96SBC   C0A467587   7.396   0.523  12.007
   96SBC   C07167588   7.430   0.502  12.142
   96SBC   C0A567589   7.341   0.544  12.242
   96SBC   C0A967590   7.228   0.615  12.205
   96SBC   C0A867591   7.198   0.636  12.075
   96SBC   C0AP67592   7.085   0.709  12.044
   96SBC   C0BY67593   7.057   0.732  11.911
   96SBC   C0BX67594   7.129   0.684  11.805
   96SBC   C0C267595   7.101   0.725  11.673
   96SBC   C0C367596   7.185   0.683  11.572
   96SBC   C0CT67597   7.307   0.621  11.603
   96SBC   C0C167598   6.985   0.795  11.645
   96SBC   C0C067599   6.917   0.861  11.757
   96SBC   C0A767600   7.247   0.615  11.839
   96SBC   C0BZ67601   6.962   0.820  11.878
   96SBC   C0BO67602   6.890   0.884  11.981
   96SBC   C0BN67603   6.902   0.849  12.111
   96SBC   C0BM67604   6.825   0.916  12.201
   96SBC   C0B967605   6.852   0.889  12.334
   96SBC   C0B867606   6.950   0.796  12.367
   96SBC   C0AD67607   7.033   0.742  12.269
   96SBC   C0AF67608   6.979   0.773  12.504
   96SBC   C0AG67609   6.908   0.831  12.608
   96SBC   C0B767610   6.807   0.920  12.570
   96SBC   C0AE67611   7.086   0.692  12.529
   96SBC   C0AB67612   7.169   0.633  12.434
   96SBC   C0AA67613   7.282   0.555  12.470
   96SBC   C0AJ67614   7.106   0.656  12.662
   96SBC   C0AK67615   7.214   0.574  12.692
   96SBC   C06W67616   7.211   0.559  12.824
   96SBC   C0AI67617   7.045   0.705  12.772
   96SBC   C0BP67618   6.789   0.969  11.928
   96SBC   C0BQ67619   6.702   1.029  12.025
   96SBC   C0BW67620   7.005   0.772  12.142
   96SBC   C0AC67621   7.141   0.662  12.300
   96SBC   C0A667622   7.280   0.596  11.976
   96SBC   C0A367623   7.335   0.591  11.738
   96SBC   C09Z67624   7.524   0.533  11.542
   96SBC   C09W67625   7.608   0.438  11.939
   96SBC   C07267626   7.640   0.408  12.072
   96SBC   C09H67627   7.761   0.423  11.622
   96SBC   C09G67628   7.740   0.454  11.493
   96SBC   C09P67629   7.845   0.423  11.411
   96SBC   C02O67630   8.100   0.177  11.540
   96SBC   C02M67631   8.221   0.087  11.730
   96SBC   C02F67632   8.440  -0.071  11.811
   96SBC   C00W67633   8.597  -0.248  11.755
   96SBC   C01R67634   8.647  -0.448  11.553
   96SBC   C01N67635   8.439  -0.161  11.474
   96SBC   C01L67636   8.290  -0.148  11.278
   96SBC   C01H67637   8.266  -0.361  11.000
   96SBC   C01K67638   8.489  -0.464  11.284
   96SBC   C01E67639   8.509  -0.693  11.139
   96SBC   C01G67640   8.275  -0.485  10.921
   96SBC   C01D67641   8.513  -0.810  11.066
   96SBC   C01A67642   8.525  -1.053  10.912
   96SBC   H00167643   8.538  -1.140  10.849
   96SBC   C01F67644   8.308  -0.723  10.773
   96SBC   C03P67645   8.168  -0.780  10.531
   96SBC   C03T67646   8.051  -0.581  10.562
   96SBC   C08I67647   7.854  -0.389  10.505
   96SBC   C08J67648   7.756  -0.294  10.490
   96SBC   C08L67649   7.646  -0.089  10.555
   96SBC   C09367650   7.527   0.114  10.644
   96SBC   C08Z67651   7.751   0.166  10.809
   96SBC   C09T67652   7.404   0.491  10.908
   96SBC   C09S67653   7.743   0.398  10.998
   96SBC   C09Q67654   7.833   0.428  11.276
   96SBC   C09F67655   7.622   0.507  11.449
   96SBC   C09E67656   7.459   0.560  11.132
   96SBC   C0A067657   7.401   0.587  11.501
   96SBC   C0CU67658   7.145   0.696  11.437
   96SBC   C0CR67659   7.019   0.754  11.409
   96SBC   C0CZ67660   6.979   0.774  11.279
   96SBC   C0DA67661   7.356   0.558  11.035
   96SBC   C0D967662   7.156   0.791  10.872
   96SBC   H00V67663   7.247   0.810  10.818
   96SBC   C0CY67664   7.052   0.712  11.172
   96SBC   C0DF67665   7.032   0.872  10.867
   96SBC   C0DE67666   6.971   1.001  10.830
   96SBC   C0GI67667   7.002   1.098  10.728
   96SBC   H01K67668   7.085   1.082  10.661
   96SBC   C0GJ67669   6.930   1.211  10.734
   96SBC   H01J67670   6.954   1.290  10.665
   96SBC   O00I67671   6.822   1.237  10.822
   96SBC   C0GH67672   6.797   1.151  10.926
   96SBC   C0GG67673   6.714   1.204  11.034
   96SBC   O00G67674   6.683   1.330  11.017
   96SBC   C0G867675   6.583   1.380  11.089
   96SBC   C0G967676   6.524   1.495  11.041
   96SBC   H01G67677   6.557   1.540  10.949
   96SBC   C0GA67678   6.429   1.558  11.117
   96SBC   H01H67679   6.367   1.636  11.074
   96SBC   C0GB67680   6.388   1.517  11.245
   96SBC   C0EP67681   6.466   1.412  11.304
   96SBC   C0E867682   6.461   1.397  11.449
   96SBC   C0CK67683   6.522   1.323  11.554
   96SBC   C0CL67684   6.549   1.193  11.512
   96SBC   C0E967685   6.579   1.144  11.379
   96SBC   C0GE67686   6.610   1.215  11.252
   96SBC   C0E767687   6.356   1.457  11.521
   96SBC   C0CJ67688   6.344   1.411  11.654
   96SBC   C0E667689   6.226   1.448  11.727
   96SBC   H00Y67690   6.205   1.435  11.832
   96SBC   C0EO67691   6.128   1.521  11.653
   96SBC   H01167692   6.040   1.552  11.708
   96SBC   C0G667693   6.142   1.568  11.519
   96SBC   C0G567694   6.052   1.654  11.440
   96SBC   H01F67695   5.959   1.687  11.485
   96SBC   C0GD67696   6.087   1.691  11.317
   96SBC   H01I67697   6.020   1.755  11.261
   96SBC   O00H67698   6.198   1.650  11.246
   96SBC   C0EQ67699   6.259   1.528  11.451
   96SBC   C0GC67700   6.279   1.570  11.318
   96SBC   C0G767701   6.555   1.337  11.224
   96SBC   C0DD67702   6.864   1.027  10.922
   96SBC   C0GF67703   6.678   1.137  11.153
   96SBC   C0CO67704   6.591   1.007  11.397
   96SBC   C0D067705   6.867   0.854  11.256
   96SBC   C0C467706   6.932   0.805  11.518
   96SBC   C0CN67707   6.575   0.965  11.527
   96SBC   C0CP67708   6.803   0.950  11.792
   96SBC   C0CM67709   6.535   1.077  11.602
   96SBC   C0CI67710   6.467   1.341  11.687
   96SBC   C0CD67711   6.411   1.391  12.163
   96SBC   C0BR67712   6.610   1.134  11.983
   96SBC   C0CS67713   6.723   1.005  12.161
   96SBC   C0B667714   6.778   0.948  12.432
   96SBC   C0CG67715   6.505   1.247  12.330
   96SBC   C0CF67716   6.420   1.351  12.299
   96SBC   C0E567717   6.290   1.592  12.243
   96SBC   C0DT67718   6.157   1.728  12.437
   96SBC   C0DL67719   6.313   1.459  12.630
   96SBC   C0DM67720   6.335   1.433  12.766
   96SBC   C0DY67721   6.185   1.606  12.838
   96SBC   C0DU67722   6.079   1.784  12.530
   96SBC   C0F067723   5.975   1.983  12.606
   96SBC   C0F467724   5.937   2.176  12.799
   96SBC   C0FG67725   5.973   1.862  12.989
   96SBC   O00B67726   5.952   2.216  13.048
   96SBC   C0FN67727   5.994   1.856  13.128
   96SBC   C0DZ67728   6.129   1.684  12.938
   96SBC   O00C67729   6.295   1.543  13.228
   96SBC   C0FR67730   6.368   1.441  13.273
   96SBC   O00D67731   6.388   1.431  13.397
   96SBC   C0E067732   6.274   1.504  12.867
   96SBC   C0E367733   6.428   1.360  13.168
   96SBC   C0AW67734   6.511   1.249  13.203
   96SBC   C0AV67735   6.547   1.206  13.336
   96SBC   H00Q67736   6.523   1.260  13.427
   96SBC   C0AU67737   6.620   1.087  13.356
   96SBC   H00R67738   6.650   1.057  13.456
   96SBC   C0AT67739   6.659   1.014  13.243
   96SBC   C0AS67740   6.743   0.894  13.222
   96SBC   C0AR67741   6.772   0.786  13.319
   96SBC   C0BE67742   6.634   1.062  13.116
   96SBC   C0DN67743   6.432   1.339  12.795
   96SBC   C0AX67744   6.554   1.176  13.094
   96SBC   C0BB67745   6.575   1.155  12.730
   96SBC   C0BD67746   6.694   0.987  13.025
   96SBC   C0B267747   6.739   0.984  12.671
   96SBC   C0AH67748   6.941   0.805  12.746
   96SBC   C0BF67749   6.781   0.889  13.083
   96SBC   C0AL67750   7.109   0.640  12.883
   96SBC   C07U67751   6.991   0.704  13.207
   96SBC   C0AQ67752   6.889   0.710  13.306
   96SBC   C0BG67753   6.697   0.721  13.439
   96SBC   C0FY67754   6.887   0.674  13.715
   96SBC   C0BJ67755   6.626   0.794  13.539
   96SBC   H00S67756   6.578   0.890  13.524
   96SBC   C0FZ67757   6.842   0.776  13.803
   96SBC   C07S67758   7.024   0.652  13.695
   96SBC   C0G167759   7.139   0.874  13.975
   96SBC   C07K67760   7.469   0.743  13.872
   96SBC   C07H67761   7.312   0.627  13.666
   96SBC   C06B67762   7.565   0.387  13.665
   96SBC   C06N67763   7.595   0.355  13.436
   96SBC   C06667764   7.264   0.556  13.423
   96SBC   C06267765   7.288   0.504  13.120
   96SBC   C05Y67766   7.631   0.327  13.186
   96SBC   C06167767   7.312   0.429  13.004
   96SBC   C05H67768   7.621   0.329  12.841
   96SBC   C06V67769   7.304   0.478  12.871
   96SBC   C06Y67770   7.307   0.523  12.600
   96SBC   C05C67771   7.636   0.361  12.574
   96SBC   C06Z67772   7.370   0.515  12.376
   96SBC   C07067773   7.546   0.437  12.173
   96SBC   C05B67774   7.729   0.331  12.474
   96SBC   C05767775   7.904   0.252  12.267
   96SBC   C05967776   7.759   0.343  12.105
   97SBC   C05867777   3.498   8.167  11.789
   97SBC   C05A67778   3.492   8.025  11.802
   97SBC   C06Q67779   3.417   7.964  11.911
   97SBC   C06R67780   3.415   7.824  11.929
   97SBC   C06S67781   3.487   7.739  11.840
   97SBC   C06T67782   3.473   7.600  11.864
   97SBC   C06U67783   3.532   7.480  11.793
   97SBC   C06X67784   3.606   7.468  11.671
   97SBC   C06067785   3.660   7.337  11.648
   97SBC   C05Z67786   3.676   7.260  11.523
   97SBC   C06867787   3.653   7.125  11.578
   97SBC   C06767788   3.693   6.995  11.519
   97SBC   C06967789   3.765   6.984  11.396
   97SBC   C06A67790   3.857   6.873  11.351
   97SBC   C07367791   3.919   6.770  11.426
   97SBC   C07P67792   4.052   6.741  11.411
   97SBC   C07O67793   4.140   6.822  11.339
   97SBC   H00D67794   4.102   6.914  11.297
   97SBC   C07N67795   4.276   6.801  11.330
   97SBC   H00E67796   4.339   6.859  11.264
   97SBC   C07M67797   4.325   6.686  11.399
   97SBC   H00F67798   4.430   6.664  11.394
   97SBC   C07L67799   4.241   6.601  11.475
   97SBC   C07Q67800   4.289   6.500  11.553
   97SBC   H00G67801   4.396   6.488  11.567
   97SBC   O00F67802   4.215   6.412  11.626
   97SBC   C07J67803   4.078   6.438  11.618
   97SBC   C07I67804   4.028   6.548  11.550
   97SBC   N00467805   3.893   6.577  11.558
   97SBC   C07R67806   3.807   6.480  11.617
   97SBC   C07T67807   3.861   6.373  11.686
   97SBC   C0FX67808   3.789   6.272  11.746
   97SBC   C0FW67809   3.838   6.174  11.837
   97SBC   C0G067810   3.978   6.151  11.820
   97SBC   C0G267811   4.047   6.060  11.903
   97SBC   H01E67812   4.153   6.040  11.890
   97SBC   C0G367813   3.972   5.987  12.000
   97SBC   H01C67814   4.008   5.910  12.066
   97SBC   C0G467815   3.831   6.011  12.008
   97SBC   H01D67816   3.777   5.963  12.088
   97SBC   O00E67817   4.056   6.233  11.736
   97SBC   C0FV67818   3.760   6.104  11.925
   97SBC   C0FU67819   3.622   6.134  11.927
   97SBC   H01B67820   3.561   6.091  12.005
   97SBC   C0FT67821   3.566   6.228  11.837
   97SBC   C0FS67822   3.449   6.310  11.835
   97SBC   C0BI67823   3.457   6.389  11.713
   97SBC   C0BH67824   3.369   6.502  11.719
   97SBC   C07F67825   3.410   6.642  11.720
   97SBC   C07E67826   3.519   6.700  11.658
   97SBC   C07G67827   3.630   6.633  11.614
   97SBC   C07467828   3.716   6.736  11.577
   97SBC   C06567829   3.544   6.837  11.664
   97SBC   C06467830   3.455   6.908  11.744
   97SBC   C06367831   3.467   7.044  11.768
   97SBC   C07567832   3.367   7.067  11.884
   97SBC   C0AM67833   3.300   6.946  11.928
   97SBC   C0AN67834   3.195   6.922  12.031
   97SBC   C0AO67835   3.139   7.020  12.133
   97SBC   C0B167836   3.033   6.978  12.229
   97SBC   C0B067837   2.991   6.850  12.238
   97SBC   C0AZ67838   2.902   6.796  12.336
   97SBC   C0AY67839   2.867   6.664  12.337
   97SBC   N00767840   2.776   6.611  12.431
   97SBC   C0E267841   2.752   6.469  12.432
   97SBC   C0E167842   2.665   6.422  12.533
   97SBC   C0E467843   2.657   6.285  12.546
   97SBC   C0FF67844   2.562   6.231  12.636
   97SBC   C0FJ67845   2.540   6.093  12.678
   97SBC   C0FK67846   2.642   5.994  12.690
   97SBC   H01667847   2.735   5.991  12.635
   97SBC   C0FL67848   2.595   5.911  12.796
   97SBC   H01767849   2.650   5.832  12.845
   97SBC   C0FM67850   2.473   5.960  12.849
   97SBC   C0FH67851   2.395   5.969  12.967
   97SBC   C0FI67852   2.321   6.089  12.947
   97SBC   C0F367853   2.304   6.173  13.057
   97SBC   C0F267854   2.295   6.303  13.023
   97SBC   C0DW67855   2.346   6.361  12.907
   97SBC   C0FE67856   2.393   6.280  12.804
   97SBC   C0DV67857   2.378   6.493  12.907
   97SBC   C0DX67858   2.453   6.543  12.803
   97SBC   C0DK67859   2.487   6.680  12.808
   97SBC   C0DJ67860   2.453   6.761  12.916
   97SBC   C0DI67861   2.486   6.891  12.915
   97SBC   C0DH67862   2.548   6.949  12.799
   97SBC   C0DG67863   2.593   6.866  12.701
   97SBC   C0BV67864   2.677   6.918  12.602
   97SBC   C0BC67865   2.748   6.835  12.513
   97SBC   C0BA67866   2.707   7.053  12.601
   97SBC   C0B467867   2.799   7.102  12.504
   97SBC   C0B367868   2.874   7.021  12.417
   97SBC   C0B567869   2.827   7.240  12.497
   97SBC   C0BU67870   2.763   7.322  12.592
   97SBC   C0BT67871   2.670   7.273  12.688
   97SBC   C0BS67872   2.607   7.363  12.777
   97SBC   C0CC67873   2.549   7.305  12.894
   97SBC   C0CB67874   2.499   7.387  12.997
   97SBC   C0CH67875   2.481   7.323  13.119
   97SBC   C0DO67876   2.463   7.184  13.132
   97SBC   C0DP67877   2.415   7.121  13.250
   97SBC   C0EA67878   2.373   7.201  13.364
   97SBC   H01267879   2.361   7.309  13.364
   97SBC   O00967880   2.340   7.142  13.486
   97SBC   C0EH67881   2.338   7.013  13.488
   97SBC   C0EG67882   2.341   6.950  13.610
   97SBC   C0EJ67883   2.351   7.003  13.746
   97SBC   H01067884   2.365   7.103  13.785
   97SBC   C0EK67885   2.337   6.891  13.841
   97SBC   H00Z67886   2.326   6.881  13.947
   97SBC   C0EL67887   2.319   6.782  13.751
   97SBC   C0EM67888   2.296   6.639  13.783
   97SBC   C0EW67889   2.290   6.578  13.909
   97SBC   H01367890   2.298   6.640  13.996
   97SBC   C0EX67891   2.270   6.434  13.927
   97SBC   H01467892   2.257   6.407  14.031
   97SBC   C0F167893   2.270   6.347  13.815
   97SBC   C0EU67894   2.264   6.409  13.692
   97SBC   C0ET67895   2.262   6.350  13.565
   97SBC   C0ES67896   2.267   6.462  13.470
   97SBC   C0EE67897   2.285   6.584  13.536
   97SBC   C0ED67898   2.306   6.725  13.510
   97SBC   C0EC67899   2.328   6.786  13.383
   97SBC   C0EB67900   2.325   6.715  13.262
   97SBC   C0EN67901   2.279   6.575  13.255
   97SBC   C0ER67902   2.287   6.523  13.130
   97SBC   C0DS67903   2.372   6.778  13.138
   97SBC   C0DR67904   2.405   6.914  13.140
   97SBC   C0EY67905   2.241   6.457  13.341
   97SBC   C0EZ67906   2.246   6.333  13.266
   97SBC   C0F567907   2.268   6.193  13.297
   97SBC   C0F667908   2.272   6.137  13.432
   97SBC   N00867909   2.293   5.992  13.443
   97SBC   C0F767910   2.321   5.912  13.322
   97SBC   C0FQ67911   2.317   5.772  13.345
   97SBC   H01867912   2.332   5.705  13.261
   97SBC   C0FP67913   2.297   5.704  13.460
   97SBC   H01967914   2.301   5.596  13.461
   97SBC   C0FO67915   2.279   5.782  13.577
   97SBC   H01A67916   2.263   5.723  13.666
   97SBC   C0F867917   2.342   5.978  13.202
   97SBC   C0F967918   2.281   5.925  13.572
   97SBC   C0FA67919   2.266   5.999  13.688
   97SBC   H01567920   2.253   5.942  13.779
   97SBC   C0FB67921   2.259   6.137  13.689
   97SBC   C0FD67922   2.259   6.206  13.561
   97SBC   C0FC67923   2.259   6.201  13.822
   97SBC   O00A67924   2.247   6.137  13.927
   97SBC   C0EV67925   2.276   6.547  13.675
   97SBC   C0EF67926   2.322   6.814  13.620
   97SBC   C0EI67927   2.351   6.925  13.376
   97SBC   C0DQ67928   2.394   6.986  13.256
   97SBC   C0CE67929   2.486   7.110  13.019
   97SBC   H00U67930   2.474   7.390  13.204
   97SBC   C0CA67931   2.473   7.528  12.968
   97SBC   C0C967932   2.537   7.591  12.850
   97SBC   C0C867933   2.511   7.730  12.822
   97SBC   C0C767934   2.567   7.830  12.737
   97SBC   C0C667935   2.507   7.963  12.743
   97SBC   C0C567936   2.540   8.100  12.719
   97SBC   C0CQ67937   2.466   8.192  12.795
   97SBC   C0D167938   2.390   8.156  12.897
   97SBC   C0D867939   2.389   8.241  13.007
   97SBC   C0D767940   2.442   8.357  12.954
   97SBC   C0D667941   2.480   8.472  13.026
   97SBC   C0D567942   2.525   8.594  12.967
   97SBC   C0D467943   2.566   8.621  12.839
   97SBC   C0D367944   2.651   8.731  12.851
   97SBC   C0CX67945   2.744   8.722  12.740
   97SBC   C0CW67946   2.751   8.585  12.690
   97SBC   C0CV67947   2.829   8.503  12.603
   97SBC   C0D267948   2.943   8.564  12.534
   97SBC   C09D67949   2.989   8.704  12.537
   97SBC   C09C67950   3.097   8.742  12.449
   97SBC   C09B67951   3.129   8.875  12.424
   97SBC   C09A67952   3.060   8.976  12.496
   97SBC   C09967953   2.986   8.941  12.606
   97SBC   C09867954   2.894   9.048  12.626
   97SBC   C08Y67955   2.910   9.142  12.517
   97SBC   C08X67956   2.817   9.243  12.467
   97SBC   C08W67957   2.685   9.258  12.533
   97SBC   C08U67958   2.619   9.178  12.638
   97SBC   C08V67959   2.652   9.053  12.695
   97SBC   C0DC67960   2.559   9.032  12.801
   97SBC   H00W67961   2.570   8.951  12.873
   97SBC   C0DB67962   2.459   9.134  12.800
   97SBC   H00X67963   2.376   9.148  12.867
   97SBC   C08T67964   2.497   9.221  12.694
   97SBC   C08S67965   2.424   9.331  12.660
   97SBC   H00N67966   2.331   9.367  12.701
   97SBC   C08R67967   2.478   9.405  12.552
   97SBC   C08Q67968   2.412   9.522  12.501
   97SBC   H00O67969   2.333   9.561  12.563
   97SBC   C08P67970   2.443   9.593  12.388
   97SBC   C08O67971   2.362   9.700  12.338
   97SBC   H00P67972   2.273   9.732  12.391
   97SBC   C08N67973   2.400   9.764  12.214
   97SBC   C08M67974   2.327   9.879  12.167
   97SBC   O00867975   2.221   9.923  12.210
   97SBC   O00767976   2.371   9.944  12.059
   97SBC   C08H67977   2.466   9.885  11.981
   97SBC   C08G67978   2.507   9.949  11.860
   97SBC   C03V67979   2.453  10.065  11.803
   97SBC   H00967980   2.370  10.114  11.852
   97SBC   C03U67981   2.506  10.129  11.686
   97SBC   C03W67982   2.453  10.244  11.618
   97SBC   H00A67983   2.362  10.290  11.654
   97SBC   C03X67984   2.516  10.299  11.510
   97SBC   H00B67985   2.479  10.394  11.474
   97SBC   O00567986   2.634  10.250  11.464
   97SBC   C03O67987   2.672  10.130  11.515
   97SBC   C03N67988   2.779  10.066  11.453
   97SBC   O00067989   2.827  10.124  11.338
   97SBC   C01967990   2.918  10.057  11.263
   97SBC   C01867991   2.976   9.937  11.314
   97SBC   C01767992   2.943   9.888  11.441
   97SBC   C01667993   3.009   9.777  11.493
   97SBC   C01567994   3.110   9.725  11.412
   97SBC   C01467995   3.185   9.619  11.465
   97SBC   C01367996   3.155   9.558  11.591
   97SBC   C01267997   3.263   9.457  11.609
   97SBC   C01167998   3.332   9.457  11.490
   97SBC   C01067999   3.439   9.372  11.469
   97SBC   C00Z68000   3.499   9.348  11.348
   97SBC   C00Y68001   3.567   9.223  11.374
   97SBC   C01O68002   3.542   9.172  11.494
   97SBC   C01P68003   3.529   9.034  11.526
   97SBC   C02L68004   3.464   8.999  11.636
   97SBC   C02K68005   3.400   9.107  11.707
   97SBC   C01M68006   3.380   9.240  11.664
   97SBC   C02J68007   3.358   9.063  11.836
   97SBC   C02I68008   3.300   9.135  11.935
   97SBC   C02H68009   3.245   9.264  11.931
   97SBC   C01Q68010   3.225   9.353  11.824
   97SBC   C02G68011   3.148   9.461  11.869
   97SBC   C08968012   3.122   9.443  12.008
   97SBC   C08868013   2.998   9.498  12.045
   97SBC   C08768014   2.958   9.571  11.924
   97SBC   C08668015   2.833   9.634  11.903
   97SBC   C03S68016   2.802   9.729  11.797
   97SBC   N00668017   2.686   9.791  11.840
   97SBC   C08F68018   2.639   9.731  11.956
   97SBC   C01J68019   2.862   9.783  11.684
   97SBC   C03R68020   2.791   9.894  11.625
   97SBC   C03Q68021   2.674   9.954  11.678
   97SBC   C08E68022   2.728   9.634  12.001
   97SBC   C08D68023   2.710   9.574  12.132
   97SBC   C08K68024   2.592   9.611  12.200
   97SBC   C08C68025   2.800   9.491  12.207
   97SBC   C09168026   2.754   9.419  12.316
   97SBC   C09268027   2.634   9.445  12.382
   97SBC   C08B68028   2.934   9.464  12.176
   97SBC   C09068029   2.971   9.355  12.274
   97SBC   C09468030   3.090   9.275  12.279
   97SBC   C09568031   3.102   9.153  12.345
   97SBC   C09R68032   3.192   9.063  12.285
   97SBC   C09768033   3.225   9.116  12.162
   97SBC   C09668034   3.174   9.247  12.167
   97SBC   C01I68035   3.049   9.550  11.811
   97SBC   C08A68036   3.178   9.316  12.044
   97SBC   C09L68037   3.287   9.061  12.052
   97SBC   C09K68038   3.336   8.933  12.020
   97SBC   C09J68039   3.344   8.822  12.113
   97SBC   C09I68040   3.353   8.687  12.071
   97SBC   C09O68041   3.399   8.615  11.952
   97SBC   C09N68042   3.433   8.674  11.829
   97SBC   C09M68043   3.428   8.816  11.796
   97SBC   C06O68044   3.499   8.589  11.738
   97SBC   C05M68045   3.513   8.445  11.759
   97SBC   C06P68046   3.442   8.388  11.865
   97SBC   C04268047   3.557   8.366  11.661
   97SBC   C04168048   3.606   8.419  11.538
   97SBC   C04068049   3.649   8.332  11.436
   97SBC   C03Z68050   3.671   8.377  11.304
   97SBC   C03Y68051   3.658   8.509  11.277
   97SBC   C02768052   3.666   8.556  11.150
   97SBC   C02668053   3.654   8.692  11.123
   97SBC   C02868054   3.654   8.732  10.992
   97SBC   C02968055   3.656   8.642  10.887
   97SBC   C02B68056   3.621   8.683  10.759
   97SBC   C02C68057   3.605   8.593  10.659
   97SBC   C02X68058   3.568   8.633  10.533
   97SBC   C03E68059   3.562   8.537  10.434
   97SBC   C03G68060   3.600   8.411  10.447
   97SBC   C04Q68061   3.632   8.372  10.578
   97SBC   C04R68062   3.664   8.237  10.601
   97SBC   C04S68063   3.688   8.193  10.727
   97SBC   C04L68064   3.679   8.283  10.834
   97SBC   C04M68065   3.656   8.415  10.811
   97SBC   C04K68066   3.700   8.238  10.964
   97SBC   C04F68067   3.712   8.101  10.988
   97SBC   C04E68068   3.723   8.011  10.882
   97SBC   C04D68069   3.732   7.876  10.910
   97SBC   C05068070   3.748   7.787  10.803
   97SBC   C05168071   3.759   7.652  10.830
   97SBC   C05Q68072   3.772   7.561  10.726
   97SBC   C05V68073   3.785   7.427  10.757
   97SBC   N00568074   3.811   7.345  10.645
   97SBC   C07V68075   3.820   7.391  10.516
   97SBC   C08268076   3.859   7.310  10.412
   97SBC   C08168077   3.873   7.170  10.430
   97SBC   C07C68078   3.873   7.124  10.560
   97SBC   C07B68079   3.925   6.994  10.590
   97SBC   C08068080   3.973   6.917  10.485
   97SBC   C07Z68081   4.045   6.802  10.521
   97SBC   H00L68082   4.084   6.736  10.446
   97SBC   C07968083   4.055   6.754  10.654
   97SBC   C07868084   3.998   6.833  10.752
   97SBC   C07768085   3.999   6.788  10.884
   97SBC   C07X68086   4.071   6.670  10.921
   97SBC   H00I68087   4.080   6.624  11.019
   97SBC   C07Y68088   4.134   6.591  10.822
   97SBC   H00H68089   4.198   6.507  10.846
   97SBC   C07668090   3.941   6.861  10.986
   97SBC   C06C68091   3.932   6.814  11.115
   97SBC   H00C68092   3.964   6.716  11.149
   97SBC   C06F68093   3.886   6.986  10.956
   97SBC   C06E68094   3.835   7.066  11.057
   97SBC   C06G68095   3.800   7.198  11.040
   97SBC   C06H68096   3.798   7.244  10.909
   97SBC   C06I68097   3.833   7.160  10.801
   97SBC   C06L68098   3.767   7.281  11.150
   97SBC   C06M68099   3.750   7.226  11.286
   97SBC   C06K68100   3.753   7.416  11.128
   97SBC   C05S68101   3.759   7.468  10.992
   97SBC   C05U68102   3.725   7.506  11.234
   97SBC   C05X68103   3.704   7.456  11.367
   97SBC   C05G68104   3.675   7.563  11.458
   97SBC   C05F68105   3.699   7.693  11.424
   97SBC   C05E68106   3.658   7.786  11.518
   97SBC   C04868107   3.655   7.927  11.497
   97SBC   C05668108   3.601   8.004  11.593
   97SBC   C04568109   3.604   8.144  11.576
   97SBC   C04768110   3.694   7.969  11.377
   97SBC   C04968111   3.718   7.879  11.275
   97SBC   C04B68112   3.722   7.926  11.147
   97SBC   C04668113   3.686   8.107  11.350
   97SBC   C04H68114   3.713   8.152  11.225
   97SBC   C05D68115   3.608   7.716  11.625
   97SBC   C04A68116   3.713   7.741  11.295
   97SBC   C05T68117   3.728   7.645  11.201
   97SBC   C05568118   3.735   7.693  11.068
   97SBC   C06D68119   3.835   7.015  11.187
   97SBC   C07W68120   3.885   7.033  10.826
   97SBC   C08568121   4.128   6.638  10.694
   97SBC   H00M68122   4.178   6.580  10.617
   97SBC   C08468123   3.948   6.957  10.357
   97SBC   H00J68124   3.979   6.887  10.281
   97SBC   C07A68125   3.933   6.953  10.725
   97SBC   C08368126   3.895   7.077  10.327
   97SBC   H00K68127   3.874   7.096  10.223
   97SBC   O00K68128   3.880   7.358  10.282
   97SBC   C0GO68129   3.871   7.491  10.252
   97SBC   C0GN68130   3.909   7.548  10.127
   97SBC   H01L68131   3.937   7.491  10.040
   97SBC   C0GM68132   3.897   7.687  10.105
   97SBC   C0GL68133   3.920   7.734   9.980
   97SBC   H01M68134   3.951   7.672   9.897
   97SBC   O00J68135   3.902   7.864   9.949
   97SBC   C0GK68136   3.849   7.939  10.046
   97SBC   H01N68137   3.834   8.043  10.023
   97SBC   C05K68138   3.824   7.894  10.174
   97SBC   C05J68139   3.770   7.984  10.271
   97SBC   C04Y68140   3.719   8.118  10.248
   97SBC   C04X68141   3.670   8.198  10.358
   97SBC   O00668142   3.698   8.173  10.125
   97SBC   C05368143   3.662   8.306  10.097
   97SBC   C04O68144   3.623   8.388  10.202
   97SBC   C03C68145   3.578   8.522  10.193
   97SBC   C03B68146   3.567   8.622  10.088
   97SBC   C05468147   3.607   8.603   9.959
   97SBC   C0GR68148   3.612   8.703   9.858
   97SBC   C03M68149   3.587   8.847   9.856
   97SBC   C03I68150   3.550   8.931   9.968
   97SBC   C03J68151   3.530   9.074   9.944
   97SBC   N00268152   3.508   9.164  10.056
   97SBC   C02U68153   3.490   9.307  10.038
   97SBC   C02T68154   3.464   9.395  10.146
   97SBC   C02Z68155   3.470   9.532  10.126
   97SBC   N00168156   3.464   9.622  10.238
   97SBC   C02R68157   3.494   9.759  10.220
   97SBC   C03268158   3.522   9.806  10.091
   97SBC   C03168159   3.524   9.720   9.981
   97SBC   H00768160   3.542   9.762   9.883
   97SBC   C03368161   3.551   9.950  10.078
   97SBC   H00368162   3.593   9.975   9.982
   97SBC   O00468163   3.561  10.037  10.182
   97SBC   C03468164   3.520   9.986  10.302
   97SBC   C03568165   3.529  10.076  10.406
   97SBC   C03668166   3.498  10.038  10.537
   97SBC   H00568167   3.483  10.115  10.612
   97SBC   C03768168   3.478   9.905  10.565
   97SBC   H00668169   3.452   9.879  10.666
   97SBC   C00D68170   3.467   9.804  10.460
   97SBC   C00C68171   3.444   9.667  10.481
   97SBC   C00B68172   3.427   9.610  10.616
   97SBC   C00A68173   3.447   9.652  10.762
   97SBC   C00968174   3.504   9.533  10.817
   97SBC   C00868175   3.507   9.491  10.960
   97SBC   C00768176   3.431   9.564  11.048
   97SBC   C00668177   3.418   9.523  11.181
   97SBC   C00568178   3.324   9.596  11.260
   97SBC   C00468179   3.246   9.702  11.210
   97SBC   C00368180   3.253   9.733  11.073
   97SBC   C00268181   3.183   9.845  11.023
   97SBC   C01C68182   3.104   9.920  11.110
   97SBC   C01B68183   3.051  10.042  11.070
   97SBC   H00068184   3.075  10.088  10.975
   97SBC   C00168185   3.191   9.869  10.886
   97SBC   C00068186   3.245   9.769  10.800
   97SBC   C01U68187   3.211   9.818  10.667
   97SBC   H00268188   3.237   9.771  10.573
   97SBC   C01T68189   3.154   9.954  10.678
   97SBC   O00268190   3.113  10.027  10.585
   97SBC   O00168191   3.134   9.968  10.809
   97SBC   C01S68192   3.341   9.661  10.994
   97SBC   C00N68193   3.561   9.362  10.989
   97SBC   C00M68194   3.579   9.267  10.885
   97SBC   C00J68195   3.546   9.304  10.756
   97SBC   C00I68196   3.537   9.214  10.650
   97SBC   C00H68197   3.489   9.245  10.525
   97SBC   C00G68198   3.453   9.378  10.503
   97SBC   C00F68199   3.443   9.433  10.378
   97SBC   C01X68200   3.498   9.160  10.421
   97SBC   C01W68201   3.527   9.030  10.445
   97SBC   C01V68202   3.557   8.993  10.575
   97SBC   C02068203   3.574   8.859  10.606
   97SBC   C01Z68204   3.520   8.943  10.345
   97SBC   C02Y68205   3.524   8.812  10.382
   97SBC   C03968206   3.513   8.720  10.279
   97SBC   C02W68207   3.517   8.982  10.210
   97SBC   C01Y68208   3.480   9.205  10.290
   97SBC   C00U68209   3.571   9.083  10.679
   97SBC   C00S68210   3.601   9.047  10.808
   97SBC   C00T68211   3.624   8.914  10.836
   97SBC   C00R68212   3.600   9.136  10.909
   97SBC   C00Q68213   3.613   9.094  11.040
   97SBC   C00V68214   3.633   8.957  11.067
   97SBC   C02468215   3.637   8.910  11.200
   97SBC   C00X68216   3.611   9.000  11.304
   97SBC   C00P68217   3.595   9.187  11.144
   97SBC   C00O68218   3.555   9.323  11.121
   97SBC   C00K68219   3.514   9.433  10.728
   97SBC   N00068220   3.344   9.687  10.851
   97SBC   C00L68221   3.458   9.472  10.611
   97SBC   H00468222   3.540  10.182  10.385
   97SBC   C02Q68223   3.492   9.847  10.327
   97SBC   C00E68224   3.441   9.573  10.369
   97SBC   C03068225   3.506   9.583   9.997
   97SBC   O00368226   3.518   9.498   9.893
   97SBC   C02S68227   3.459   9.345  10.272
   97SBC   C03868228   3.510   9.358   9.912
   97SBC   C03L68229   3.521   9.273   9.804
   97SBC   H00868230   3.546   9.313   9.707
   97SBC   C02V68231   3.493   9.115  10.189
   97SBC   C03K68232   3.537   9.133   9.817
   97SBC   C0BK68233   3.571   9.042   9.716
   97SBC   H00T68234   3.581   9.084   9.617
   97SBC   C03H68235   3.538   8.891  10.104
   97SBC   C0BL68236   3.608   8.906   9.729
   97SBC   C0GU68237   3.647   8.829   9.617
   97SBC   H01O68238   3.644   8.883   9.524
   97SBC   C0GT68239   3.666   8.694   9.617
   97SBC   H01P68240   3.673   8.636   9.526
   97SBC   C0GS68241   3.657   8.632   9.741
   97SBC   C0GV68242   3.672   8.492   9.767
   97SBC   C0GW68243   3.700   8.385   9.682
   97SBC   H01Q68244   3.699   8.392   9.574
   97SBC   C0GX68245   3.717   8.265   9.743
   97SBC   H01R68246   3.729   8.174   9.686
   97SBC   O00L68247   3.717   8.252   9.882
   97SBC   C0GQ68248   3.652   8.476   9.907
   97SBC   C03A68249   3.538   8.752  10.143
   97SBC   C05L68250   3.678   8.350   9.967
   97SBC   C04W68251   3.757   7.934  10.406
   97SBC   C05I68252   3.784   7.797  10.432
   97SBC   C05O68253   3.823   7.710  10.333
   97SBC   C05268254   3.766   7.745  10.563
   97SBC   C04V68255   3.730   8.014  10.517
   97SBC   C04U68256   3.736   7.967  10.647
   97SBC   N00968257   3.856   7.763  10.206
   97SBC   C0GP68258   3.835   7.577  10.356
   97SBC   C05W68259   3.806   7.522  10.488
   97SBC   C07D68260   3.830   7.208  10.667
   97SBC   C06J68261   3.784   7.377  10.886
   97SBC   C05P68262   3.783   7.608  10.593
   97SBC   C05R68263   3.750   7.606  10.962
   97SBC   C04Z68264   3.753   7.832  10.673
   97SBC   C04C68265   3.726   7.831  11.045
   97SBC   C04G68266   3.718   8.061  11.121
   97SBC   C04J68267   3.691   8.329  11.068
   97SBC   C04T68268   3.717   8.055  10.751
   97SBC   N00368269   3.682   8.144  10.490
   97SBC   C04P68270   3.625   8.329  10.336
   97SBC   C03D68271   3.531   8.584  10.308
   97SBC   C02168272   3.551   8.766  10.509
   97SBC   C03F68273   3.629   8.458  10.684
   97SBC   C02268274   3.607   8.822  10.734
   97SBC   C02A68275   3.663   8.507  10.910
   97SBC   C02368276   3.635   8.867  10.964
   97SBC   C02568277   3.646   8.778  11.227
   97SBC   C02D68278   3.619   8.732  11.356
   97SBC   C02E68279   3.577   8.812  11.459
   97SBC   C02N68280   3.532   8.772  11.584
   97SBC   C04N68281   3.678   8.464  11.042
   97SBC   C02P68282   3.628   8.598  11.383
   97SBC   C04I68283   3.696   8.286  11.196
   97SBC   C04468284   3.645   8.191  11.455
   97SBC   C04368285   3.601   8.554  11.515
   97SBC   C05N68286   3.543   8.639  11.615
   97SBC   C09U68287   3.391   8.471  11.966
   97SBC   C09V68288   3.325   8.405  12.073
   97SBC   C09X68289   3.271   8.479  12.177
   97SBC   C09Y68290   3.185   8.435  12.272
   97SBC   C0A168291   3.159   8.301  12.277
   97SBC   C0A268292   3.218   8.217  12.179
   97SBC   C0A468293   3.199   8.079  12.184
   97SBC   C07168294   3.272   7.993  12.099
   97SBC   C0A568295   3.262   7.859  12.114
   97SBC   C0A968296   3.178   7.805  12.212
   97SBC   C0A868297   3.107   7.889  12.300
   97SBC   C0AP68298   3.018   7.838  12.387
   97SBC   C0BY68299   2.953   7.924  12.471
   97SBC   C0BX68300   2.955   8.059  12.459
   97SBC   C0C268301   2.867   8.138  12.534
   97SBC   C0C368302   2.880   8.277  12.529
   97SBC   C0CT68303   2.988   8.331  12.455
   97SBC   C0C168304   2.764   8.081  12.614
   97SBC   C0C068305   2.764   7.932  12.630
   97SBC   C0A768306   3.044   8.111  12.368
   97SBC   C0BZ68307   2.865   7.867  12.564
   97SBC   C0BO68308   2.848   7.730  12.572
   97SBC   C0BN68309   2.921   7.642  12.493
   97SBC   C0BM68310   2.884   7.508  12.498
   97SBC   C0B968311   2.958   7.419  12.418
   97SBC   C0B868312   3.050   7.470  12.330
   97SBC   C0AD68313   3.061   7.612  12.318
   97SBC   C0AF68314   3.126   7.386  12.252
   97SBC   C0AG68315   3.103   7.247  12.241
   97SBC   C0B768316   3.001   7.201  12.324
   97SBC   C0AE68317   3.215   7.445  12.168
   97SBC   C0AB68318   3.238   7.585  12.157
   97SBC   C0AA68319   3.328   7.640  12.064
   97SBC   C0AJ68320   3.287   7.364  12.082
   97SBC   C0AK68321   3.376   7.415  11.989
   97SBC   C06W68322   3.424   7.310  11.922
   97SBC   C0AI68323   3.276   7.225  12.075
   97SBC   C0BP68324   2.746   7.693  12.656
   97SBC   C0BQ68325   2.713   7.550  12.669
   97SBC   C0BW68326   2.994   7.699  12.398
   97SBC   C0AC68327   3.164   7.669  12.235
   97SBC   C0A668328   3.116   8.025  12.283
   97SBC   C0A368329   3.065   8.250  12.370
   97SBC   C09Z68330   3.123   8.515  12.371
   97SBC   C09W68331   3.300   8.270  12.077
   97SBC   C07268332   3.370   8.187  11.987
   97SBC   C09H68333   3.289   8.615  12.172
   97SBC   C09G68334   3.249   8.693  12.278
   97SBC   C09P68335   3.279   8.822  12.243
   97SBC   C02O68336   3.376   8.928  11.882
   97SBC   C02M68337   3.473   8.861  11.673
   97SBC   C02F68338   3.578   8.949  11.433
   97SBC   C00W68339   3.591   9.133  11.266
   97SBC   C01R68340   3.488   9.405  11.212
   97SBC   C01N68341   3.456   9.262  11.549
   97SBC   C01L68342   3.283   9.345  11.704
   97SBC   C01H68343   3.050   9.605  11.676
   97SBC   C01K68344   3.288   9.549  11.396
   97SBC   C01E68345   3.145   9.766  11.284
   97SBC   C01G68346   2.975   9.723  11.617
   97SBC   C01D68347   3.073   9.875  11.236
   97SBC   C01A68348   2.953  10.113  11.143
   97SBC   H00168349   2.910  10.207  11.111
   97SBC   C01F68350   2.842   9.948  11.509
   97SBC   C03P68351   2.616  10.075  11.631
   97SBC   C03T68352   2.621   9.901  11.791
   97SBC   C08I68353   2.540   9.779  12.032
   97SBC   C08J68354   2.513   9.718  12.151
   97SBC   C08L68355   2.557   9.551  12.325
   97SBC   C09368356   2.603   9.369  12.491
   97SBC   C08Z68357   2.850   9.329  12.362
   97SBC   C09T68358   2.774   8.983  12.670
   97SBC   C09S68359   3.036   9.104  12.455
   97SBC   C09Q68360   3.211   8.925  12.318
   97SBC   C09F68361   3.161   8.646  12.378
   97SBC   C09E68362   2.925   8.814  12.605
   97SBC   C0A068363   3.019   8.469  12.454
   97SBC   C0CU68364   2.800   8.362  12.602
   97SBC   C0CR68365   2.687   8.303  12.674
   97SBC   C0CZ68366   2.607   8.384  12.751
   97SBC   C0DA68367   2.804   8.835  12.674
   97SBC   C0D968368   2.689   8.752  12.990
   97SBC   H00V68369   2.781   8.794  13.028
   97SBC   C0CY68370   2.640   8.521  12.762
   97SBC   C0DF68371   2.593   8.671  13.064
   97SBC   C0DE68372   2.573   8.606  13.191
   97SBC   C0GI68373   2.610   8.643  13.322
   97SBC   H01K68374   2.666   8.732  13.346
   97SBC   C0GJ68375   2.560   8.556  13.417
   97SBC   H01J68376   2.575   8.583  13.521
   97SBC   O00I68377   2.496   8.438  13.404
   97SBC   C0GH68378   2.468   8.394  13.277
   97SBC   C0GG68379   2.400   8.269  13.265
   97SBC   O00G68380   2.374   8.205  13.385
   97SBC   C0G868381   2.301   8.092  13.386
   97SBC   C0G968382   2.242   8.054  13.512
   97SBC   H01G68383   2.244   8.115  13.601
   97SBC   C0GA68384   2.170   7.939  13.519
   97SBC   H01H68385   2.136   7.923  13.620
   97SBC   C0GB68386   2.197   7.832  13.430
   97SBC   C0EP68387   2.271   7.866  13.310
   97SBC   C0E868388   2.307   7.751  13.223
   97SBC   C0CK68389   2.389   7.734  13.112
   97SBC   C0CL68390   2.385   7.837  13.011
   97SBC   C0E968391   2.358   7.975  13.034
   97SBC   C0GE68392   2.349   8.055  13.156
   97SBC   C0E768393   2.254   7.623  13.245
   97SBC   C0CJ68394   2.289   7.534  13.147
   97SBC   C0E668395   2.206   7.421  13.132
   97SBC   H00Y68396   2.219   7.351  13.050
   97SBC   C0EO68397   2.120   7.395  13.249
   97SBC   H01168398   2.069   7.299  13.246
   97SBC   C0G668399   2.109   7.481  13.362
   97SBC   C0G568400   2.033   7.457  13.482
   97SBC   H01F68401   1.979   7.365  13.501
   97SBC   C0GD68402   2.033   7.551  13.577
   97SBC   H01I68403   1.980   7.524  13.667
   97SBC   O00H68404   2.091   7.676  13.573
   97SBC   C0EQ68405   2.172   7.603  13.358
   97SBC   C0GC68406   2.153   7.700  13.454
   97SBC   C0G768407   2.304   7.999  13.281
   97SBC   C0DD68408   2.503   8.479  13.172
   97SBC   C0GF68409   2.367   8.200  13.144
   97SBC   C0CO68410   2.360   8.027  12.910
   97SBC   C0D068411   2.505   8.318  12.826
   97SBC   C0C468412   2.663   8.159  12.671
   97SBC   C0CN68413   2.390   7.930  12.811
   97SBC   C0CP68414   2.697   7.821  12.694
   97SBC   C0CM68415   2.399   7.799  12.872
   97SBC   C0CI68416   2.394   7.595  13.070
   97SBC   C0CD68417   2.536   7.166  12.904
   97SBC   C0BR68418   2.616   7.504  12.766
   97SBC   C0CS68419   2.786   7.462  12.585
   97SBC   C0B668420   2.931   7.283  12.411
   97SBC   C0CG68421   2.646   7.138  12.695
   97SBC   C0CF68422   2.571   7.085  12.798
   97SBC   C0E568423   2.454   6.974  13.025
   97SBC   C0DT68424   2.384   6.709  13.021
   97SBC   C0DL68425   2.565   6.732  12.712
   97SBC   C0DM68426   2.628   6.646  12.615
   97SBC   C0DY68427   2.508   6.457  12.710
   97SBC   C0DU68428   2.351   6.573  13.014
   97SBC   C0F068429   2.266   6.383  13.136
   97SBC   C0F468430   2.306   6.116  13.184
   97SBC   C0FG68431   2.365   6.145  12.822
   97SBC   O00B68432   2.389   5.907  13.089
   97SBC   C0FN68433   2.438   6.056  12.758
   97SBC   C0DZ68434   2.484   6.321  12.711
   97SBC   O00C68435   2.719   6.198  12.462
   97SBC   C0FR68436   2.806   6.238  12.366
   97SBC   O00D68437   2.862   6.145  12.307
   97SBC   C0E068438   2.598   6.510  12.618
   97SBC   C0E368439   2.816   6.382  12.347
   97SBC   C0AW68440   2.903   6.433  12.251
   97SBC   C0AV68441   2.978   6.363  12.158
   97SBC   H00Q68442   2.992   6.257  12.153
   97SBC   C0AU68443   3.054   6.426  12.056
   97SBC   H00R68444   3.100   6.366  11.979
   97SBC   C0AT68445   3.075   6.559  12.057
   97SBC   C0AS68446   3.157   6.657  11.984
   97SBC   C0AR68447   3.250   6.617  11.880
   97SBC   C0BE68448   3.002   6.629  12.146
   97SBC   C0DN68449   2.720   6.697  12.523
   97SBC   C0AX68450   2.923   6.568  12.251
   97SBC   C0BB68451   2.846   6.882  12.426
   97SBC   C0BD68452   3.048   6.761  12.152
   97SBC   C0B268453   2.971   7.067  12.320
   97SBC   C0AH68454   3.171   7.161  12.152
   97SBC   C0BF68455   3.143   6.790  12.046
   97SBC   C0AL68456   3.366   7.186  11.968
   97SBC   C07U68457   3.351   6.847  11.831
   97SBC   C0AQ68458   3.326   6.712  11.809
   97SBC   C0BG68459   3.287   6.483  11.835
   97SBC   C0FY68460   3.589   6.386  11.670
   97SBC   C0BJ68461   3.341   6.366  11.915
   97SBC   H00S68462   3.327   6.354  12.021
   97SBC   C0FZ68463   3.653   6.290  11.747
   97SBC   C07S68464   3.670   6.496  11.629
   97SBC   C0G168465   3.994   6.345  11.681
   97SBC   C07K68466   4.108   6.628  11.476
   97SBC   C07H68467   3.835   6.698  11.512
   97SBC   C06B68468   3.879   6.891  11.212
   97SBC   C06N68469   3.784   7.084  11.294
   97SBC   C06668470   3.655   6.866  11.578
   97SBC   C06268471   3.568   7.130  11.700
   97SBC   C05Y68472   3.711   7.308  11.391
   97SBC   C06168473   3.604   7.261  11.750
   97SBC   C05H68474   3.638   7.580  11.595
   97SBC   C06V68475   3.523   7.342  11.834
   97SBC   C06Y68476   3.394   7.556  11.976
   97SBC   C05C68477   3.548   7.799  11.730
   97SBC   C06Z68478   3.331   7.771  12.037
   97SBC   C07068479   3.349   8.046  11.995
   97SBC   C05B68480   3.547   7.942  11.704
   97SBC   C05768481   3.550   8.226  11.677
   97SBC   C05968482   3.437   8.247  11.882
   98SBC   C05868483   3.883   1.849   4.521
   98SBC   C05A68484   3.881   1.715   4.563
   98SBC   C06Q68485   3.912   1.613   4.476
   98SBC   C06R68486   3.919   1.481   4.523
   98SBC   C06S68487   3.882   1.444   4.653
   98SBC   C06T68488   3.884   1.306   4.682
   98SBC   C06U68489   3.842   1.237   4.807
   98SBC   C06X68490   3.803   1.282   4.935
   98SBC   C06068491   3.772   1.166   5.022
   98SBC   C05Z68492   3.796   1.139   5.162
   98SBC   C06868493   3.826   0.994   5.164
   98SBC   C06768494   3.833   0.900   5.278
   98SBC   C06968495   3.796   0.952   5.410
   98SBC   C06A68496   3.750   0.871   5.526
   98SBC   C07368497   3.731   0.730   5.548
   98SBC   C07P68498   3.632   0.697   5.645
   98SBC   C07O68499   3.515   0.773   5.677
   98SBC   H00D68500   3.504   0.863   5.619
   98SBC   C07N68501   3.427   0.733   5.777
   98SBC   H00E68502   3.346   0.799   5.803
   98SBC   C07M68503   3.456   0.625   5.852
   98SBC   H00F68504   3.392   0.617   5.938
   98SBC   C07L68505   3.578   0.552   5.831
   98SBC   C07Q68506   3.616   0.437   5.914
   98SBC   H00G68507   3.557   0.427   6.004
   98SBC   O00F68508   3.722   0.358   5.877
   98SBC   C07J68509   3.779   0.382   5.757
   98SBC   C07I68510   3.760   0.498   5.683
   98SBC   N00468511   3.835   0.515   5.557
   98SBC   C07R68512   3.922   0.413   5.516
   98SBC   C07T68513   3.914   0.289   5.588
   98SBC   C0FX68514   3.957   0.175   5.531
   98SBC   C0FW68515   3.947   0.048   5.582
   98SBC   C0G068516   3.897   0.037   5.715
   98SBC   C0G268517   3.895  -0.077   5.791
   98SBC   H01E68518   3.858  -0.081   5.892
   98SBC   C0G368519   3.943  -0.193   5.719
   98SBC   H01C68520   3.941  -0.292   5.762
   98SBC   C0G468521   3.979  -0.186   5.585
   98SBC   H01D68522   4.003  -0.286   5.550
   98SBC   O00E68523   3.860   0.157   5.778
   98SBC   C0FV68524   3.987  -0.069   5.504
   98SBC   C0FU68525   4.024  -0.058   5.365
   98SBC   H01B68526   4.041  -0.139   5.296
   98SBC   C0FT68527   4.050   0.069   5.325
   98SBC   C0FS68528   4.086   0.140   5.203
   98SBC   C0BI68529   4.131   0.274   5.232
   98SBC   C0BH68530   4.116   0.351   5.113
   98SBC   C07F68531   4.044   0.470   5.100
   98SBC   C07E68532   4.002   0.570   5.192
   98SBC   C07G68533   3.994   0.552   5.328
   98SBC   C07468534   3.903   0.653   5.370
   98SBC   C06568535   3.940   0.684   5.156
   98SBC   C06468536   3.919   0.702   5.018
   98SBC   C06368537   3.863   0.815   4.957
   98SBC   C07568538   3.875   0.785   4.814
   98SBC   C0AM68539   3.912   0.649   4.790
   98SBC   C0AN68540   3.924   0.571   4.668
   98SBC   C0AO68541   3.936   0.615   4.529
   98SBC   C0B168542   3.941   0.518   4.416
   98SBC   C0B068543   3.919   0.384   4.439
   98SBC   C0AZ68544   3.913   0.287   4.347
   98SBC   C0AY68545   3.894   0.154   4.380
   98SBC   N00768546   3.876   0.056   4.281
   98SBC   C0E268547   3.846  -0.076   4.316
   98SBC   C0E168548   3.840  -0.167   4.216
   98SBC   C0E468549   3.801  -0.298   4.249
   98SBC   C0FF68550   3.805  -0.402   4.156
   98SBC   C0FJ68551   3.770  -0.546   4.163
   98SBC   C0FK68552   3.669  -0.604   4.245
   98SBC   H01668553   3.630  -0.555   4.333
   98SBC   C0FL68554   3.619  -0.721   4.168
   98SBC   H01768555   3.531  -0.780   4.188
   98SBC   C0FM68556   3.687  -0.730   4.048
   98SBC   C0FH68557   3.675  -0.767   3.907
   98SBC   C0FI68558   3.769  -0.685   3.844
   98SBC   C0F368559   3.742  -0.633   3.718
   98SBC   C0F268560   3.804  -0.513   3.691
   98SBC   C0DW68561   3.839  -0.416   3.785
   98SBC   C0FE68562   3.847  -0.456   3.912
   98SBC   C0DV68563   3.855  -0.283   3.756
   98SBC   C0DX68564   3.867  -0.193   3.855
   98SBC   C0DK68565   3.877  -0.057   3.822
   98SBC   C0DJ68566   3.874  -0.018   3.688
   98SBC   C0DI68567   3.887   0.115   3.653
   98SBC   C0DH68568   3.916   0.210   3.749
   98SBC   C0DG68569   3.916   0.172   3.883
   98SBC   C0BV68570   3.943   0.259   3.987
   98SBC   C0BC68571   3.924   0.225   4.117
   98SBC   C0BA68572   3.977   0.391   3.953
   98SBC   C0B468573   3.984   0.490   4.056
   98SBC   C0B368574   3.972   0.453   4.184
   98SBC   C0B568575   4.018   0.618   4.019
   98SBC   C0BU68576   4.031   0.653   3.882
   98SBC   C0BT68577   4.008   0.562   3.779
   98SBC   C0BS68578   4.025   0.606   3.648
   98SBC   C0CC68579   3.999   0.505   3.549
   98SBC   C0CB68580   4.002   0.541   3.411
   98SBC   C0CH68581   3.922   0.461   3.328
   98SBC   C0DO68582   3.887   0.328   3.357
   98SBC   C0DP68583   3.846   0.238   3.260
   98SBC   C0EA68584   3.815   0.279   3.126
   98SBC   H01268585   3.820   0.382   3.095
   98SBC   O00968586   3.761   0.193   3.030
   98SBC   C0EH68587   3.740   0.062   3.070
   98SBC   C0EG68588   3.686  -0.025   2.975
   98SBC   C0EJ68589   3.638  -0.000   2.840
   98SBC   H01068590   3.644   0.097   2.793
   98SBC   C0EK68591   3.560  -0.124   2.799
   98SBC   H00Z68592   3.490  -0.126   2.717
   98SBC   C0EL68593   3.572  -0.214   2.907
   98SBC   C0EM68594   3.500  -0.334   2.938
   98SBC   C0EW68595   3.416  -0.410   2.851
   98SBC   H01368596   3.387  -0.366   2.757
   98SBC   C0EX68597   3.352  -0.538   2.892
   98SBC   H01468598   3.290  -0.585   2.817
   98SBC   C0F168599   3.376  -0.584   3.027
   98SBC   C0EU68600   3.459  -0.508   3.111
   98SBC   C0ET68601   3.504  -0.536   3.244
   98SBC   C0ES68602   3.576  -0.414   3.280
   98SBC   C0EE68603   3.592  -0.323   3.173
   98SBC   C0ED68604   3.661  -0.204   3.141
   98SBC   C0EC68605   3.733  -0.121   3.234
   98SBC   C0EB68606   3.767  -0.159   3.365
   98SBC   C0EN68607   3.752  -0.298   3.412
   98SBC   C0ER68608   3.807  -0.335   3.531
   98SBC   C0DS68609   3.817  -0.069   3.457
   98SBC   C0DR68610   3.839   0.062   3.424
   98SBC   C0EY68611   3.668  -0.417   3.380
   98SBC   C0EZ68612   3.685  -0.522   3.473
   98SBC   C0F568613   3.615  -0.649   3.509
   98SBC   C0F668614   3.514  -0.709   3.427
   98SBC   N00868615   3.450  -0.825   3.490
   98SBC   C0F768616   3.484  -0.873   3.616
   98SBC   C0FQ68617   3.411  -0.987   3.664
   98SBC   H01868618   3.440  -1.031   3.758
   98SBC   C0FP68619   3.326  -1.064   3.578
   98SBC   H01968620   3.279  -1.147   3.629
   98SBC   C0FO68621   3.311  -1.019   3.451
   98SBC   H01A68622   3.252  -1.077   3.382
   98SBC   C0F868623   3.572  -0.801   3.695
   98SBC   C0F968624   3.363  -0.897   3.406
   98SBC   C0FA68625   3.336  -0.866   3.271
   98SBC   H01568626   3.278  -0.930   3.207
   98SBC   C0FB68627   3.384  -0.740   3.219
   98SBC   C0FD68628   3.470  -0.666   3.299
   98SBC   C0FC68629   3.322  -0.700   3.091
   98SBC   O00A68630   3.240  -0.777   3.036
   98SBC   C0EV68631   3.520  -0.388   3.067
   98SBC   C0EF68632   3.645  -0.149   3.011
   98SBC   C0EI68633   3.768   0.012   3.199
   98SBC   C0DQ68634   3.816   0.105   3.293
   98SBC   C0CE68635   3.907   0.284   3.490
   98SBC   H00U68636   3.913   0.489   3.224
   98SBC   C0CA68637   4.077   0.656   3.368
   98SBC   C0C968638   4.104   0.759   3.466
   98SBC   C0C868639   4.174   0.883   3.422
   98SBC   C0C768640   4.182   1.019   3.473
   98SBC   C0C668641   4.258   1.113   3.404
   98SBC   C0C568642   4.266   1.260   3.381
   98SBC   C0CQ68643   4.314   1.292   3.254
   98SBC   C0D168644   4.320   1.201   3.148
   98SBC   C0D868645   4.278   1.254   3.032
   98SBC   C0D768646   4.291   1.397   3.049
   98SBC   C0D668647   4.237   1.492   2.962
   98SBC   C0D568648   4.229   1.629   2.998
   98SBC   C0D468649   4.274   1.709   3.108
   98SBC   C0D368650   4.205   1.836   3.090
   98SBC   C0CX68651   4.166   1.880   3.225
   98SBC   C0CW68652   4.176   1.767   3.311
   98SBC   C0CV68653   4.139   1.736   3.451
   98SBC   C0D268654   4.078   1.837   3.540
   98SBC   C09D68655   4.037   1.971   3.505
   98SBC   C09C68656   3.973   2.057   3.593
   98SBC   C09B68657   3.932   2.192   3.571
   98SBC   C09A68658   3.975   2.247   3.447
   98SBC   C09968659   4.024   2.171   3.349
   98SBC   C09868660   4.105   2.239   3.261
   98SBC   C08Y68661   4.126   2.375   3.323
   98SBC   C08X68662   4.230   2.475   3.299
   98SBC   C08W68663   4.346   2.442   3.219
   98SBC   C08U68664   4.380   2.313   3.154
   98SBC   C08V68665   4.319   2.182   3.146
   98SBC   C0DC68666   4.404   2.097   3.067
   98SBC   H00W68667   4.386   1.995   3.035
   98SBC   C0DB68668   4.513   2.170   3.021
   98SBC   H00X68669   4.592   2.139   2.954
   98SBC   C08T68670   4.503   2.299   3.081
   98SBC   C08S68671   4.585   2.406   3.047
   98SBC   H00N68672   4.670   2.397   2.981
   98SBC   C08R68673   4.557   2.528   3.107
   98SBC   C08Q68674   4.644   2.640   3.093
   98SBC   H00O68675   4.723   2.626   3.022
   98SBC   C08P68676   4.645   2.758   3.174
   98SBC   C08O68677   4.738   2.867   3.160
   98SBC   H00P68678   4.819   2.852   3.090
   98SBC   C08N68679   4.734   2.974   3.251
   98SBC   C08M68680   4.838   3.071   3.242
   98SBC   O00868681   4.923   3.080   3.154
   98SBC   O00768682   4.831   3.178   3.330
   98SBC   C08H68683   4.730   3.194   3.415
   98SBC   C08G68684   4.712   3.313   3.494
   98SBC   C03V68685   4.789   3.432   3.483
   98SBC   H00968686   4.860   3.430   3.402
   98SBC   C03U68687   4.770   3.539   3.576
   98SBC   C03W68688   4.853   3.659   3.577
   98SBC   H00A68689   4.928   3.681   3.503
   98SBC   C03X68690   4.836   3.749   3.676
   98SBC   H00B68691   4.898   3.837   3.681
   98SBC   O00568692   4.730   3.745   3.767
   98SBC   C03O68693   4.653   3.630   3.770
   98SBC   C03N68694   4.563   3.610   3.876
   98SBC   O00068695   4.562   3.700   3.975
   98SBC   C01968696   4.489   3.682   4.086
   98SBC   C01868697   4.399   3.574   4.093
   98SBC   C01768698   4.391   3.479   3.989
   98SBC   C01668699   4.309   3.365   3.996
   98SBC   C01568700   4.239   3.356   4.112
   98SBC   C01468701   4.151   3.246   4.131
   98SBC   C01368702   4.136   3.150   4.022
   98SBC   C01268703   4.039   3.059   4.088
   98SBC   C01168704   4.000   3.120   4.207
   98SBC   C01068705   3.906   3.066   4.289
   98SBC   C00Z68706   3.866   3.104   4.416
   98SBC   C00Y68707   3.797   2.986   4.461
   98SBC   C01O68708   3.796   2.886   4.362
   98SBC   C01P68709   3.802   2.750   4.393
   98SBC   C02L68710   3.842   2.662   4.298
   98SBC   C02K68711   3.893   2.718   4.179
   98SBC   C01M68712   3.915   2.859   4.157
   98SBC   C02J68713   3.892   2.627   4.066
   98SBC   C02I68714   3.919   2.650   3.931
   98SBC   C02H68715   3.969   2.762   3.874
   98SBC   C01Q68716   4.005   2.887   3.923
   98SBC   C02G68717   4.079   2.950   3.817
   98SBC   C08968718   4.053   2.880   3.697
   98SBC   C08868719   4.172   2.889   3.620
   98SBC   C08768720   4.241   3.006   3.679
   98SBC   C08668721   4.357   3.069   3.631
   98SBC   C03S68722   4.418   3.189   3.682
   98SBC   N00668723   4.527   3.209   3.599
   98SBC   C08F68724   4.533   3.110   3.510
   98SBC   C01J68725   4.398   3.284   3.784
   98SBC   C03R68726   4.484   3.399   3.779
   98SBC   C03Q68727   4.589   3.419   3.681
   98SBC   C08E68728   4.434   3.016   3.527
   98SBC   C08D68729   4.435   2.893   3.452
   98SBC   C08K68730   4.540   2.876   3.358
   98SBC   C08C68731   4.333   2.790   3.449
   98SBC   C09168732   4.342   2.684   3.358
   98SBC   C09268733   4.449   2.666   3.266
   98SBC   C08B68734   4.219   2.780   3.526
   98SBC   C09068735   4.158   2.653   3.481
   98SBC   C09468736   4.038   2.597   3.538
   98SBC   C09568737   3.994   2.466   3.524
   98SBC   C09R68738   3.931   2.419   3.637
   98SBC   C09768739   3.934   2.529   3.728
   98SBC   C09668740   3.993   2.639   3.661
   98SBC   C01I68741   4.178   3.057   3.802
   98SBC   C08A68742   3.998   2.757   3.738
   98SBC   C09L68743   3.900   2.531   3.864
   98SBC   C09K68744   3.860   2.428   3.954
   98SBC   C09J68745   3.892   2.293   3.933
   98SBC   C09I68746   3.903   2.193   4.029
   98SBC   C09O68747   3.903   2.180   4.173
   98SBC   C09N68748   3.868   2.286   4.257
   98SBC   C09M68749   3.865   2.428   4.223
   98SBC   C06O68750   3.845   2.249   4.393
   98SBC   C05M68751   3.851   2.116   4.436
   98SBC   C06P68752   3.892   2.018   4.348
   98SBC   C04268753   3.830   2.082   4.570
   98SBC   C04168754   3.800   2.181   4.664
   98SBC   C04068755   3.786   2.149   4.800
   98SBC   C03Z68756   3.763   2.243   4.900
   98SBC   C03Y68757   3.759   2.375   4.859
   98SBC   C02768758   3.751   2.474   4.956
   98SBC   C02668759   3.771   2.604   4.917
   98SBC   C02868760   3.761   2.704   5.020
   98SBC   C02968761   3.766   2.669   5.152
   98SBC   C02B68762   3.787   2.768   5.245
   98SBC   C02C68763   3.804   2.729   5.379
   98SBC   C02X68764   3.826   2.823   5.476
   98SBC   C03E68765   3.844   2.783   5.604
   98SBC   C03G68766   3.831   2.660   5.647
   98SBC   C04Q68767   3.807   2.566   5.558
   98SBC   C04R68768   3.797   2.435   5.598
   98SBC   C04S68769   3.772   2.338   5.499
   98SBC   C04L68770   3.752   2.374   5.366
   98SBC   C04M68771   3.763   2.504   5.323
   98SBC   C04K68772   3.736   2.275   5.272
   98SBC   C04F68773   3.735   2.142   5.305
   98SBC   C04E68774   3.758   2.106   5.439
   98SBC   C04D68775   3.764   1.970   5.468
   98SBC   C05068776   3.783   1.933   5.599
   98SBC   C05168777   3.807   1.795   5.634
   98SBC   C05Q68778   3.840   1.763   5.763
   98SBC   C05V68779   3.854   1.628   5.795
   98SBC   N00568780   3.908   1.593   5.922
   98SBC   C07V68781   3.935   1.692   6.015
   98SBC   C08268782   3.996   1.656   6.134
   98SBC   C08168783   4.033   1.521   6.167
   98SBC   C07C68784   3.984   1.426   6.082
   98SBC   C07B68785   4.000   1.291   6.118
   98SBC   C08068786   4.080   1.248   6.225
   98SBC   C07Z68787   4.087   1.110   6.255
   98SBC   H00L68788   4.155   1.080   6.334
   98SBC   C07968789   4.001   1.017   6.194
   98SBC   C07868790   3.937   1.061   6.079
   98SBC   C07768791   3.869   0.970   5.998
   98SBC   C07X68792   3.852   0.838   6.045
   98SBC   H00I68793   3.786   0.770   5.993
   98SBC   C07Y68794   3.908   0.795   6.159
   98SBC   H00H68795   3.884   0.693   6.187
   98SBC   C07668796   3.824   1.007   5.869
   98SBC   C06C68797   3.785   0.911   5.778
   98SBC   H00C68798   3.793   0.806   5.802
   98SBC   C06F68799   3.839   1.136   5.824
   98SBC   C06E68800   3.818   1.170   5.692
   98SBC   C06G68801   3.825   1.295   5.642
   98SBC   C06H68802   3.844   1.395   5.741
   98SBC   C06I68803   3.887   1.359   5.874
   98SBC   C06L68804   3.812   1.322   5.505
   98SBC   C06M68805   3.800   1.217   5.405
   98SBC   C06K68806   3.802   1.457   5.471
   98SBC   C05S68807   3.805   1.556   5.570
   98SBC   C05U68808   3.783   1.499   5.335
   98SBC   C05X68809   3.794   1.397   5.232
   98SBC   C05G68810   3.798   1.464   5.105
   98SBC   C05F68811   3.769   1.594   5.086
   98SBC   C05E68812   3.786   1.630   4.953
   98SBC   C04868813   3.773   1.760   4.908
   98SBC   C05668814   3.808   1.786   4.780
   98SBC   C04568815   3.815   1.920   4.743
   98SBC   C04768816   3.755   1.854   5.007
   98SBC   C04968817   3.742   1.817   5.142
   98SBC   C04B68818   3.735   1.910   5.241
   98SBC   C04668819   3.763   1.984   4.973
   98SBC   C04H68820   3.748   2.082   5.072
   98SBC   C05D68821   3.818   1.521   4.872
   98SBC   C04A68822   3.753   1.686   5.183
   98SBC   C05T68823   3.765   1.640   5.310
   98SBC   C05568824   3.765   1.739   5.405
   98SBC   C06D68825   3.782   1.072   5.608
   98SBC   C07W68826   3.887   1.226   5.918
   98SBC   C08568827   3.984   0.881   6.231
   98SBC   H00M68828   4.021   0.837   6.323
   98SBC   C08468829   4.147   1.351   6.296
   98SBC   H00J68830   4.220   1.326   6.372
   98SBC   C07A68831   3.943   1.193   6.037
   98SBC   C08368832   4.118   1.483   6.274
   98SBC   H00K68833   4.164   1.563   6.330
   98SBC   O00K68834   4.024   1.755   6.228
   98SBC   C0GO68835   3.986   1.883   6.207
   98SBC   C0GN68836   3.997   1.983   6.306
   98SBC   H01L68837   4.042   1.959   6.401
   98SBC   C0GM68838   3.937   2.110   6.287
   98SBC   C0GL68839   3.930   2.201   6.387
   98SBC   H01M68840   3.976   2.178   6.482
   98SBC   O00J68841   3.870   2.328   6.371
   98SBC   C0GK68842   3.840   2.363   6.242
   98SBC   H01N68843   3.823   2.468   6.221
   98SBC   C05K68844   3.864   2.279   6.137
   98SBC   C05J68845   3.861   2.319   5.998
   98SBC   C04Y68846   3.879   2.459   5.955
   98SBC   C04X68847   3.853   2.497   5.821
   98SBC   O00668848   3.921   2.554   6.044
   98SBC   C05368849   3.953   2.681   6.003
   98SBC   C04O68850   3.917   2.727   5.874
   98SBC   C03C68851   3.930   2.863   5.821
   98SBC   C03B68852   3.985   2.985   5.869
   98SBC   C05468853   4.054   2.992   5.990
   98SBC   C0GR68854   4.122   3.113   6.028
   98SBC   C03M68855   4.152   3.243   5.956
   98SBC   C03I68856   4.119   3.279   5.819
   98SBC   C03J68857   4.172   3.402   5.770
   98SBC   N00268858   4.154   3.436   5.634
   98SBC   C02U68859   4.209   3.561   5.582
   98SBC   C02T68860   4.190   3.603   5.452
   98SBC   C02Z68861   4.252   3.714   5.399
   98SBC   N00168862   4.234   3.761   5.266
   98SBC   C02R68863   4.290   3.882   5.222
   98SBC   C03268864   4.372   3.956   5.306
   98SBC   C03168865   4.392   3.911   5.437
   98SBC   H00768866   4.449   3.971   5.507
   98SBC   C03368867   4.421   4.076   5.249
   98SBC   H00368868   4.481   4.132   5.319
   98SBC   O00468869   4.397   4.124   5.120
   98SBC   C03468870   4.322   4.045   5.033
   98SBC   C03568871   4.291   4.092   4.904
   98SBC   C03668872   4.195   4.022   4.828
   98SBC   H00568873   4.163   4.049   4.728
   98SBC   C03768874   4.154   3.893   4.874
   98SBC   H00668875   4.089   3.838   4.808
   98SBC   C00D68876   4.196   3.845   5.000
   98SBC   C00C68877   4.158   3.716   5.041
   98SBC   C00B68878   4.090   3.620   4.951
   98SBC   C00A68879   4.069   3.592   4.807
   98SBC   C00968880   3.986   3.483   4.810
   98SBC   C00868881   3.959   3.386   4.706
   98SBC   C00768882   4.024   3.400   4.588
   98SBC   C00668883   4.004   3.307   4.481
   98SBC   C00568884   4.079   3.323   4.359
   98SBC   C00468885   4.168   3.434   4.345
   98SBC   C00368886   4.190   3.518   4.454
   98SBC   C00268887   4.285   3.618   4.447
   98SBC   C01C68888   4.336   3.650   4.318
   98SBC   C01B68889   4.424   3.759   4.302
   98SBC   H00068890   4.450   3.828   4.382
   98SBC   C00168891   4.340   3.674   4.567
   98SBC   C00068892   4.276   3.651   4.692
   98SBC   C01U68893   4.371   3.688   4.785
   98SBC   H00268894   4.367   3.680   4.892
   98SBC   C01T68895   4.489   3.752   4.711
   98SBC   O00268896   4.588   3.802   4.758
   98SBC   O00168897   4.465   3.731   4.587
   98SBC   C01S68898   4.118   3.504   4.574
   98SBC   C00N68899   3.883   3.271   4.743
   98SBC   C00M68900   3.860   3.236   4.877
   98SBC   C00J68901   3.892   3.322   4.978
   98SBC   C00I68902   3.904   3.282   5.107
   98SBC   C00H68903   3.962   3.367   5.194
   98SBC   C00G68904   4.018   3.489   5.160
   98SBC   C00F68905   4.100   3.568   5.235
   98SBC   C01X68906   3.983   3.332   5.327
   98SBC   C01W68907   3.941   3.205   5.367
   98SBC   C01V68908   3.879   3.119   5.275
   98SBC   C02068909   3.842   2.994   5.307
   98SBC   C01Z68910   3.956   3.170   5.497
   98SBC   C02Y68911   3.908   3.048   5.522
   98SBC   C03968912   3.928   3.009   5.652
   98SBC   C02W68913   4.026   3.243   5.590
   98SBC   C01Y68914   4.057   3.410   5.416
   98SBC   C00U68915   3.860   3.158   5.146
   98SBC   C00S68916   3.824   3.070   5.048
   98SBC   C00T68917   3.792   2.942   5.080
   98SBC   C00R68918   3.825   3.108   4.914
   98SBC   C00Q68919   3.809   3.013   4.817
   98SBC   C00V68920   3.787   2.877   4.853
   98SBC   C02468921   3.777   2.778   4.758
   98SBC   C00X68922   3.776   2.813   4.624
   98SBC   C00P68923   3.817   3.049   4.688
   98SBC   C00O68924   3.858   3.177   4.644
   98SBC   C00K68925   3.943   3.450   4.939
   98SBC   N00068926   4.154   3.585   4.693
   98SBC   C00L68927   4.011   3.527   5.027
   98SBC   H00468928   4.335   4.180   4.860
   98SBC   C02Q68929   4.270   3.924   5.084
   98SBC   C00E68930   4.163   3.683   5.179
   98SBC   C03068931   4.336   3.788   5.482
   98SBC   O00368932   4.345   3.758   5.617
   98SBC   C02S68933   4.112   3.529   5.370
   98SBC   C03868934   4.280   3.648   5.671
   98SBC   C03L68935   4.294   3.615   5.803
   98SBC   H00868936   4.364   3.670   5.863
   98SBC   C02V68937   4.077   3.363   5.544
   98SBC   C03K68938   4.242   3.493   5.848
   98SBC   C0BK68939   4.267   3.448   5.974
   98SBC   H00T68940   4.325   3.523   6.025
   98SBC   C03H68941   4.046   3.205   5.725
   98SBC   C0BL68942   4.228   3.329   6.037
   98SBC   C0GU68943   4.270   3.298   6.170
   98SBC   H01O68944   4.331   3.361   6.234
   98SBC   C0GT68945   4.243   3.177   6.239
   98SBC   H01P68946   4.271   3.157   6.341
   98SBC   C0GS68947   4.175   3.087   6.158
   98SBC   C0GV68948   4.135   2.956   6.198
   98SBC   C0GW68949   4.170   2.880   6.316
   98SBC   H01Q68950   4.225   2.921   6.399
   98SBC   C0GX68951   4.125   2.754   6.319
   98SBC   H01R68952   4.133   2.702   6.413
   98SBC   O00L68953   4.048   2.690   6.217
   98SBC   C0GQ68954   4.061   2.896   6.090
   98SBC   C03A68955   3.992   3.073   5.759
   98SBC   C05L68956   4.013   2.762   6.102
   98SBC   C04W68957   3.841   2.226   5.894
   98SBC   C05I68958   3.852   2.091   5.926
   98SBC   C05O68959   3.886   2.046   6.057
   98SBC   C05268960   3.847   1.998   5.825
   98SBC   C04V68961   3.817   2.264   5.763
   98SBC   C04U68962   3.800   2.167   5.662
   98SBC   N00968963   3.896   2.142   6.159
   98SBC   C0GP68964   3.926   1.917   6.081
   98SBC   C05W68965   3.909   1.820   5.985
   98SBC   C07D68966   3.929   1.459   5.959
   98SBC   C06J68967   3.832   1.527   5.700
   98SBC   C05P68968   3.864   1.862   5.857
   98SBC   C05R68969   3.793   1.697   5.534
   98SBC   C04Z68970   3.811   2.032   5.698
   98SBC   C04C68971   3.749   1.871   5.371
   98SBC   C04G68972   3.734   2.044   5.205
   98SBC   C04J68973   3.742   2.311   5.134
   98SBC   C04T68974   3.776   2.205   5.530
   98SBC   N00368975   3.817   2.397   5.727
   98SBC   C04P68976   3.859   2.631   5.780
   98SBC   C03D68977   3.890   2.883   5.688
   98SBC   C02168978   3.854   2.956   5.436
   98SBC   C03F68979   3.794   2.597   5.418
   98SBC   C02268980   3.801   2.904   5.212
   98SBC   C02A68981   3.752   2.541   5.189
   98SBC   C02368982   3.778   2.840   4.986
   98SBC   C02568983   3.785   2.641   4.785
   98SBC   C02D68984   3.782   2.544   4.687
   98SBC   C02E68985   3.785   2.579   4.551
   98SBC   C02N68986   3.808   2.484   4.453
   98SBC   C04N68987   3.745   2.446   5.093
   98SBC   C02P68988   3.777   2.410   4.726
   98SBC   C04I68989   3.748   2.216   5.034
   98SBC   C04468990   3.784   2.014   4.839
   98SBC   C04368991   3.802   2.315   4.625
   98SBC   C05N68992   3.819   2.349   4.488
   98SBC   C09U68993   3.914   2.046   4.218
   98SBC   C09V68994   3.952   1.936   4.129
   98SBC   C09X68995   3.965   1.948   3.995
   98SBC   C09Y68996   3.997   1.855   3.900
   98SBC   C0A168997   4.020   1.729   3.945
   98SBC   C0A268998   4.006   1.705   4.081
   98SBC   C0A468999   4.012   1.575   4.122
   98SBC   C07169000   3.983   1.545   4.254
   98SBC   C0A569001   3.979   1.413   4.298
   98SBC   C0A969002   4.020   1.314   4.202
   98SBC   C0A869003   4.046   1.346   4.070
   98SBC   C0AP69004   4.075   1.243   3.983
   98SBC   C0BY69005   4.105   1.280   3.856
   98SBC   C0BX69006   4.099   1.410   3.803
   98SBC   C0C269007   4.115   1.437   3.670
   98SBC   C0C369008   4.108   1.568   3.626
   98SBC   C0CT69009   4.072   1.668   3.715
   98SBC   C0C169010   4.148   1.331   3.580
   98SBC   C0C069011   4.109   1.196   3.628
   98SBC   C0A769012   4.067   1.507   3.896
   98SBC   C0BZ69013   4.098   1.180   3.765
   98SBC   C0BO69014   4.086   1.048   3.792
   98SBC   C0BN69015   4.082   1.009   3.929
   98SBC   C0BM69016   4.051   0.880   3.952
   98SBC   C0B969017   4.037   0.844   4.082
   98SBC   C0B869018   4.035   0.941   4.183
   98SBC   C0AD69019   4.047   1.077   4.150
   98SBC   C0AF69020   4.009   0.909   4.312
   98SBC   C0AG69021   3.986   0.779   4.355
   98SBC   C0B769022   3.994   0.679   4.256
   98SBC   C0AE69023   3.989   1.015   4.399
   98SBC   C0AB69024   3.992   1.152   4.369
   98SBC   C0AA69025   3.965   1.247   4.464
   98SBC   C0AJ69026   3.952   0.979   4.524
   98SBC   C0AK69027   3.924   1.078   4.617
   98SBC   C06W69028   3.873   1.015   4.724
   98SBC   C0AI69029   3.924   0.852   4.578
   98SBC   C0BP69030   4.083   0.967   3.683
   98SBC   C0BQ69031   4.070   0.830   3.711
   98SBC   C0BW69032   4.072   1.111   4.021
   98SBC   C0AC69033   4.020   1.178   4.238
   98SBC   C0A669034   4.041   1.476   4.026
   98SBC   C0A369035   4.058   1.633   3.846
   98SBC   C09Z69036   4.009   1.888   3.764
   98SBC   C09W69037   3.967   1.809   4.169
   98SBC   C07269038   3.947   1.779   4.301
   98SBC   C09H69039   3.933   2.077   3.953
   98SBC   C09G69040   3.938   2.105   3.816
   98SBC   C09P69041   3.896   2.237   3.801
   98SBC   C02O69042   3.878   2.484   4.086
   98SBC   C02M69043   3.837   2.526   4.323
   98SBC   C02F69044   3.785   2.716   4.524
   98SBC   C00W69045   3.793   2.951   4.595
   98SBC   C01R69046   3.910   3.202   4.512
   98SBC   C01N69047   3.864   2.936   4.259
   98SBC   C01L69048   3.987   2.928   4.056
   98SBC   C01H69049   4.211   3.157   3.898
   98SBC   C01K69050   4.070   3.231   4.246
   98SBC   C01E69051   4.241   3.446   4.222
   98SBC   C01G69052   4.302   3.269   3.887
   98SBC   C01D69053   4.324   3.561   4.210
   98SBC   C01A69054   4.493   3.785   4.182
   98SBC   H00169055   4.567   3.861   4.162
   98SBC   C01F69056   4.476   3.496   3.880
   98SBC   C03P69057   4.671   3.529   3.669
   98SBC   C03T69058   4.619   3.314   3.601
   98SBC   C08I69059   4.637   3.092   3.428
   98SBC   C08J69060   4.641   2.975   3.349
   98SBC   C08L69061   4.545   2.766   3.269
   98SBC   C09369062   4.450   2.541   3.202
   98SBC   C08Z69063   4.239   2.593   3.377
   98SBC   C09T69064   4.194   2.137   3.200
   98SBC   C09S69065   4.029   2.377   3.424
   98SBC   C09Q69066   3.904   2.287   3.670
   98SBC   C09F69067   3.971   2.013   3.722
   98SBC   C09E69068   4.067   2.042   3.381
   98SBC   C0A069069   4.052   1.798   3.670
   98SBC   C0CU69070   4.150   1.597   3.495
   98SBC   C0CR69071   4.205   1.496   3.415
   98SBC   C0CZ69072   4.249   1.526   3.282
   98SBC   C0DA69073   4.159   2.013   3.274
   98SBC   C0D969074   4.117   1.830   2.970
   98SBC   H00V69075   4.036   1.898   2.951
   98SBC   C0CY69076   4.244   1.664   3.241
   98SBC   C0DF69077   4.132   1.696   2.919
   98SBC   C0DE69078   4.082   1.599   2.827
   98SBC   C0GI69079   3.980   1.610   2.723
   98SBC   H01K69080   3.929   1.703   2.701
   98SBC   C0GJ69081   3.963   1.498   2.651
   98SBC   H01J69082   3.891   1.518   2.573
   98SBC   O00I69083   4.025   1.372   2.670
   98SBC   C0GH69084   4.115   1.358   2.780
   98SBC   C0GG69085   4.149   1.225   2.808
   98SBC   O00G69086   4.117   1.136   2.712
   98SBC   C0G869087   4.140   1.004   2.729
   98SBC   C0G969088   4.131   0.925   2.617
   98SBC   H01G69089   4.107   0.974   2.524
   98SBC   C0GA69090   4.143   0.788   2.630
   98SBC   H01H69091   4.124   0.727   2.543
   98SBC   C0GB69092   4.164   0.723   2.754
   98SBC   C0EP69093   4.161   0.802   2.871
   98SBC   C0E869094   4.134   0.735   2.998
   98SBC   C0CK69095   4.118   0.775   3.130
   98SBC   C0CL69096   4.200   0.881   3.171
   98SBC   C0E969097   4.233   0.995   3.088
   98SBC   C0GE69098   4.198   1.035   2.955
   98SBC   C0E769099   4.143   0.595   3.011
   98SBC   C0CJ69100   4.132   0.547   3.139
   98SBC   C0E669101   4.155   0.414   3.155
   98SBC   H00Y69102   4.169   0.378   3.256
   98SBC   C0EO69103   4.153   0.332   3.042
   98SBC   H01169104   4.150   0.225   3.057
   98SBC   C0G669105   4.165   0.383   2.911
   98SBC   C0G569106   4.172   0.310   2.784
   98SBC   H01F69107   4.174   0.203   2.791
   98SBC   C0GD69108   4.178   0.373   2.666
   98SBC   H01I69109   4.177   0.306   2.581
   98SBC   O00H69110   4.189   0.507   2.651
   98SBC   C0EQ69111   4.168   0.520   2.893
   98SBC   C0GC69112   4.176   0.582   2.766
   98SBC   C0G769113   4.168   0.943   2.853
   98SBC   C0DD69114   4.154   1.475   2.850
   98SBC   C0GF69115   4.214   1.176   2.929
   98SBC   C0CO69116   4.303   1.072   3.175
   98SBC   C0D069117   4.282   1.414   3.194
   98SBC   C0C469118   4.202   1.359   3.459
   98SBC   C0CN69119   4.308   1.025   3.308
   98SBC   C0CP69120   4.104   1.060   3.575
   98SBC   C0CM69121   4.253   0.895   3.305
   98SBC   C0CI69122   4.101   0.662   3.229
   98SBC   C0CD69123   3.960   0.375   3.583
   98SBC   C0BR69124   4.066   0.735   3.606
   98SBC   C0CS69125   4.053   0.787   3.850
   98SBC   C0B669126   4.021   0.713   4.117
   98SBC   C0CG69127   3.980   0.430   3.818
   98SBC   C0CF69128   3.957   0.339   3.717
   98SBC   C0E569129   3.878   0.153   3.522
   98SBC   C0DT69130   3.846  -0.106   3.585
   98SBC   C0DL69131   3.895   0.040   3.920
   98SBC   C0DM69132   3.889  -0.001   4.052
   98SBC   C0DY69133   3.859  -0.232   3.987
   98SBC   C0DU69134   3.845  -0.237   3.623
   98SBC   C0F069135   3.775  -0.463   3.565
   98SBC   C0F469136   3.645  -0.696   3.637
   98SBC   C0FG69137   3.819  -0.593   3.941
   98SBC   O00B69138   3.572  -0.817   3.830
   98SBC   C0FN69139   3.794  -0.640   4.065
   98SBC   C0DZ69140   3.841  -0.363   4.022
   98SBC   O00C69141   3.768  -0.330   4.379
   98SBC   C0FR69142   3.757  -0.241   4.478
   98SBC   O00D69143   3.703  -0.276   4.584
   98SBC   C0E069144   3.866  -0.133   4.086
   98SBC   C0E369145   3.812  -0.108   4.451
   98SBC   C0AW69146   3.825  -0.010   4.552
   98SBC   C0AV69147   3.819  -0.030   4.692
   98SBC   H00Q69148   3.781  -0.124   4.727
   98SBC   C0AU69149   3.848   0.073   4.787
   98SBC   H00R69150   3.832   0.052   4.892
   98SBC   C0AT69151   3.871   0.203   4.742
   98SBC   C0AS69152   3.913   0.330   4.794
   98SBC   C0AR69153   3.992   0.350   4.917
   98SBC   C0BE69154   3.865   0.218   4.606
   98SBC   C0DN69155   3.894   0.092   4.148
   98SBC   C0AX69156   3.862   0.116   4.508
   98SBC   C0BB69157   3.940   0.320   4.214
   98SBC   C0BD69158   3.899   0.348   4.575
   98SBC   C0B269159   3.969   0.550   4.285
   98SBC   C0AH69160   3.955   0.744   4.489
   98SBC   C0BF69161   3.911   0.427   4.685
   98SBC   C0AL69162   3.863   0.871   4.706
   98SBC   C07U69163   3.947   0.600   4.924
   98SBC   C0AQ69164   3.998   0.477   4.970
   98SBC   C0BG69165   4.074   0.265   5.005
   98SBC   C0FY69166   4.064   0.304   5.355
   98SBC   C0BJ69167   4.048   0.134   5.066
   98SBC   H00S69168   3.996   0.054   5.015
   98SBC   C0FZ69169   4.030   0.184   5.410
   98SBC   C07S69170   4.003   0.427   5.401
   98SBC   C0G169171   3.851   0.275   5.705
   98SBC   C07K69172   3.652   0.579   5.714
   98SBC   C07H69173   3.822   0.641   5.487
   98SBC   C06B69174   3.759   0.946   5.647
   98SBC   C06N69175   3.787   1.085   5.470
   98SBC   C06669176   3.892   0.761   5.266
   98SBC   C06269177   3.827   0.940   5.024
   98SBC   C05Y69178   3.799   1.251   5.266
   98SBC   C06169179   3.781   1.049   4.947
   98SBC   C05H69180   3.811   1.415   4.969
   98SBC   C06V69181   3.830   1.098   4.819
   98SBC   C06Y69182   3.933   1.213   4.588
   98SBC   C05C69183   3.842   1.546   4.736
   98SBC   C06Z69184   3.952   1.381   4.429
   98SBC   C07069185   3.946   1.646   4.346
   98SBC   C05B69186   3.844   1.684   4.695
   98SBC   C05769187   3.839   1.949   4.608
   98SBC   C05969188   3.908   1.884   4.391
   99SBC   C05869189   5.903   9.565   6.256
   99SBC   C05A69190   5.785   9.628   6.206
   99SBC   C06Q69191   5.788   9.737   6.121
   99SBC   C06R69192   5.673   9.792   6.060
   99SBC   C06S69193   5.547   9.735   6.085
   99SBC   C06T69194   5.438   9.796   6.014
   99SBC   C06U69195   5.295   9.757   6.022
   99SBC   C06X69196   5.217   9.662   6.090
   99SBC   C06069197   5.087   9.647   6.030
   99SBC   C05Z69198   4.958   9.614   6.094
   99SBC   C06869199   4.869   9.719   6.037
   99SBC   C06769200   4.724   9.743   6.071
   99SBC   C06969201   4.652   9.648   6.156
   99SBC   C06A69202   4.523   9.656   6.224
   99SBC   C07369203   4.463   9.777   6.276
   99SBC   C07P69204   4.412   9.775   6.404
   99SBC   C07O69205   4.450   9.680   6.500
   99SBC   H00D69206   4.520   9.601   6.475
   99SBC   C07N69207   4.402   9.685   6.630
   99SBC   H00E69208   4.431   9.608   6.700
   99SBC   C07M69209   4.313   9.791   6.664
   99SBC   H00F69210   4.292   9.811   6.768
   99SBC   C07L69211   4.270   9.885   6.566
   99SBC   C07Q69212   4.176   9.989   6.593
   99SBC   H00G69213   4.131   9.969   6.690
   99SBC   O00F69214   4.129  10.081   6.502
   99SBC   C07J69215   4.193  10.073   6.378
   99SBC   C07I69216   4.283   9.969   6.345
   99SBC   N00469217   4.340   9.972   6.213
   99SBC   C07R69218   4.297  10.071   6.118
   99SBC   C07T69219   4.222  10.183   6.164
   99SBC   C0FX69220   4.196  10.292   6.085
   99SBC   C0FW69221   4.144  10.412   6.126
   99SBC   C0G069222   4.099  10.408   6.261
   99SBC   C0G269223   4.028  10.512   6.311
   99SBC   H01E69224   3.987  10.514   6.411
   99SBC   C0G369225   4.001  10.624   6.238
   99SBC   H01C69226   3.937  10.703   6.275
   99SBC   C0G469227   4.059  10.628   6.109
   99SBC   H01D69228   4.044  10.721   6.056
   99SBC   O00E69229   4.114  10.296   6.344
   99SBC   C0FV69230   4.135  10.522   6.045
   99SBC   C0FU69231   4.208  10.522   5.923
   99SBC   H01B69232   4.220  10.615   5.870
   99SBC   C0FT69233   4.260  10.402   5.874
   99SBC   C0FS69234   4.344  10.360   5.767
   99SBC   C0BI69235   4.348  10.218   5.773
   99SBC   C0BH69236   4.446  10.158   5.689
   99SBC   C07F69237   4.552  10.082   5.739
   99SBC   C07E69238   4.544  10.003   5.855
   99SBC   C07G69239   4.454   9.983   5.960
   99SBC   C07469240   4.504   9.893   6.050
   99SBC   C06569241   4.663   9.932   5.894
   99SBC   C06469242   4.784   9.968   5.828
   99SBC   C06369243   4.908   9.927   5.858
   99SBC   C07569244   5.000  10.029   5.791
   99SBC   C0AM69245   4.932  10.121   5.703
   99SBC   C0AN69246   4.987  10.229   5.621
   99SBC   C0AO69247   5.130  10.278   5.595
   99SBC   C0B169248   5.155  10.401   5.515
   99SBC   C0B069249   5.054  10.463   5.442
   99SBC   C0AZ69250   5.071  10.578   5.365
   99SBC   C0AY69251   4.960  10.635   5.296
   99SBC   N00769252   4.976  10.753   5.229
   99SBC   C0E269253   4.860  10.824   5.187
   99SBC   C0E169254   4.883  10.946   5.127
   99SBC   C0E469255   4.766  11.025   5.092
   99SBC   C0FF69256   4.778  11.148   5.025
   99SBC   C0FJ69257   4.673  11.249   4.991
   99SBC   C0FK69258   4.560  11.289   5.077
   99SBC   H01669259   4.510  11.228   5.152
   99SBC   C0FL69260   4.541  11.435   5.049
   99SBC   H01769261   4.481  11.509   5.100
   99SBC   C0FM69262   4.633  11.478   4.945
   99SBC   C0FH69263   4.714  11.592   4.902
   99SBC   C0FI69264   4.832  11.531   4.857
   99SBC   C0F369265   4.957  11.593   4.884
   99SBC   C0F269266   5.061  11.506   4.886
   99SBC   C0DW69267   5.056  11.369   4.913
   99SBC   C0FE69268   4.931  11.315   4.922
   99SBC   C0DV69269   5.164  11.296   4.960
   99SBC   C0DX69270   5.146  11.175   5.017
   99SBC   C0DK69271   5.262  11.113   5.077
   99SBC   C0DJ69272   5.388  11.173   5.071
   99SBC   C0DI69273   5.498  11.106   5.121
   99SBC   C0DH69274   5.486  10.980   5.168
   99SBC   C0DG69275   5.359  10.919   5.184
   99SBC   C0BV69276   5.343  10.796   5.253
   99SBC   C0BC69277   5.215  10.742   5.273
   99SBC   C0BA69278   5.453  10.739   5.309
   99SBC   C0B469279   5.436  10.624   5.388
   99SBC   C0B369280   5.306  10.567   5.413
   99SBC   C0B569281   5.544  10.559   5.431
   99SBC   C0BU69282   5.675  10.612   5.404
   99SBC   C0BT69283   5.692  10.724   5.322
   99SBC   C0BS69284   5.820  10.769   5.293
   99SBC   C0CC69285   5.838  10.896   5.237
   99SBC   C0CB69286   5.963  10.952   5.223
   99SBC   C0CH69287   5.962  11.096   5.214
   99SBC   C0DO69288   5.846  11.172   5.184
   99SBC   C0DP69289   5.856  11.310   5.173
   99SBC   C0EA69290   5.973  11.386   5.212
   99SBC   H01269291   6.054  11.327   5.253
   99SBC   O00969292   5.983  11.526   5.208
   99SBC   C0EH69293   5.875  11.587   5.158
   99SBC   C0EG69294   5.874  11.724   5.162
   99SBC   C0EJ69295   5.962  11.822   5.212
   99SBC   H01069296   6.050  11.787   5.266
   99SBC   C0EK69297   5.918  11.962   5.188
   99SBC   H00Z69298   5.962  12.060   5.200
   99SBC   C0EL69299   5.792  11.935   5.131
   99SBC   C0EM69300   5.680  12.024   5.124
   99SBC   C0EW69301   5.677  12.168   5.126
   99SBC   H01369302   5.763  12.227   5.153
   99SBC   C0EX69303   5.552  12.243   5.118
   99SBC   H01469304   5.550  12.350   5.135
   99SBC   C0F169305   5.430  12.177   5.082
   99SBC   C0EU69306   5.435  12.037   5.073
   99SBC   C0ET69307   5.330  11.949   5.044
   99SBC   C0ES69308   5.386  11.816   5.051
   99SBC   C0EE69309   5.525  11.827   5.082
   99SBC   C0ED69310   5.636  11.738   5.090
   99SBC   C0EC69311   5.635  11.594   5.083
   99SBC   C0EB69312   5.518  11.520   5.055
   99SBC   C0EN69313   5.393  11.578   5.007
   99SBC   C0ER69314   5.287  11.496   4.965
   99SBC   C0DS69315   5.516  11.378   5.062
   99SBC   C0DR69316   5.628  11.311   5.107
   99SBC   C0EY69317   5.336  11.710   4.990
   99SBC   C0EZ69318   5.198  11.704   4.952
   99SBC   C0F569319   5.083  11.792   4.955
   99SBC   C0F669320   5.086  11.929   4.982
   99SBC   N00869321   4.951  11.996   4.974
   99SBC   C0F769322   4.832  11.926   4.960
   99SBC   C0FQ69323   4.706  11.996   4.977
   99SBC   H01869324   4.615  11.939   4.966
   99SBC   C0FP69325   4.703  12.136   5.004
   99SBC   H01969326   4.610  12.191   5.004
   99SBC   C0FO69327   4.825  12.209   5.006
   99SBC   H01A69328   4.827  12.315   5.023
   99SBC   C0F869329   4.839  11.794   4.936
   99SBC   C0F969330   4.949  12.137   4.992
   99SBC   C0FA69331   5.072  12.216   5.004
   99SBC   H01569332   5.062  12.322   5.021
   99SBC   C0FB69333   5.194  12.148   5.029
   99SBC   C0FD69334   5.200  12.009   5.015
   99SBC   C0FC69335   5.304  12.233   5.066
   99SBC   O00A69336   5.291  12.359   5.077
   99SBC   C0EV69337   5.550  11.964   5.100
   99SBC   C0EF69338   5.767  11.796   5.126
   99SBC   C0EI69339   5.752  11.516   5.123
   99SBC   C0DQ69340   5.747  11.379   5.129
   99SBC   C0CE69341   5.728  11.105   5.169
   99SBC   H00U69342   6.058  11.145   5.218
   99SBC   C0CA69343   6.075  10.859   5.214
   99SBC   C0C969344   6.066  10.728   5.273
   99SBC   C0C869345   6.175  10.642   5.267
   99SBC   C0C769346   6.222  10.545   5.366
   99SBC   C0C669347   6.347  10.485   5.331
   99SBC   C0C569348   6.453  10.411   5.399
   99SBC   C0CQ69349   6.580  10.415   5.328
   99SBC   C0D169350   6.600  10.503   5.223
   99SBC   C0D869351   6.723  10.562   5.241
   99SBC   C0D769352   6.792  10.473   5.328
   99SBC   C0D669353   6.926  10.485   5.371
   99SBC   C0D569354   6.998  10.388   5.437
   99SBC   C0D469355   6.946  10.270   5.507
   99SBC   C0D369356   7.034  10.242   5.613
   99SBC   C0CX69357   6.966  10.176   5.720
   99SBC   C0CW69358   6.821  10.190   5.696
   99SBC   C0CV69359   6.691  10.165   5.763
   99SBC   C0D269360   6.683  10.078   5.877
   99SBC   C09D69361   6.797  10.018   5.945
   99SBC   C09C69362   6.774   9.941   6.063
   99SBC   C09B69363   6.871   9.862   6.124
   99SBC   C09A69364   7.005   9.872   6.070
   99SBC   C09969365   7.037   9.963   5.975
   99SBC   C09869366   7.162   9.939   5.911
   99SBC   C08Y69367   7.202   9.806   5.956
   99SBC   C08X69368   7.295   9.717   5.896
   99SBC   C08W69369   7.369   9.750   5.776
   99SBC   C08U69370   7.344   9.860   5.684
   99SBC   C08V69371   7.233   9.955   5.670
   99SBC   C0DC69372   7.281  10.050   5.571
   99SBC   H00W69373   7.233  10.142   5.540
   99SBC   C0DB69374   7.401  10.006   5.513
   99SBC   H00X69375   7.451  10.048   5.427
   99SBC   C08T69376   7.436   9.885   5.584
   99SBC   C08S69377   7.551   9.815   5.549
   99SBC   H00N69378   7.617   9.842   5.468
   99SBC   C08R69379   7.563   9.690   5.621
   99SBC   C08Q69380   7.669   9.598   5.602
   99SBC   H00O69381   7.738   9.632   5.527
   99SBC   C08P69382   7.686   9.469   5.658
   99SBC   C08O69383   7.791   9.377   5.619
   99SBC   H00P69384   7.863   9.408   5.546
   99SBC   C08N69385   7.796   9.250   5.686
   99SBC   C08M69386   7.910   9.163   5.660
   99SBC   O00869387   8.009   9.190   5.592
   99SBC   O00769388   7.902   9.037   5.720
   99SBC   C08H69389   7.799   8.991   5.799
   99SBC   C08G69390   7.778   8.853   5.841
   99SBC   C03V69391   7.857   8.742   5.815
   99SBC   H00969392   7.938   8.777   5.753
   99SBC   C03U69393   7.833   8.612   5.872
   99SBC   C03W69394   7.916   8.498   5.848
   99SBC   H00A69395   7.990   8.492   5.770
   99SBC   C03X69396   7.891   8.384   5.910
   99SBC   H00B69397   7.961   8.302   5.897
   99SBC   O00569398   7.787   8.366   6.002
   99SBC   C03O69399   7.701   8.472   6.022
   99SBC   C03N69400   7.592   8.461   6.106
   99SBC   O00069401   7.577   8.338   6.165
   99SBC   C01969402   7.468   8.315   6.243
   99SBC   C01869403   7.375   8.416   6.274
   99SBC   C01769404   7.399   8.547   6.218
   99SBC   C01669405   7.307   8.652   6.248
   99SBC   C01569406   7.199   8.611   6.328
   99SBC   C01469407   7.101   8.703   6.359
   99SBC   C01369408   7.113   8.838   6.312
   99SBC   C01269409   6.996   8.899   6.373
   99SBC   C01169410   6.946   8.802   6.461
   99SBC   C01069411   6.843   8.836   6.554
   99SBC   C00Z69412   6.771   8.750   6.630
   99SBC   C00Y69413   6.655   8.829   6.658
   99SBC   C01O69414   6.667   8.958   6.613
   99SBC   C01P69415   6.555   9.040   6.581
   99SBC   C02L69416   6.583   9.141   6.494
   99SBC   C02K69417   6.712   9.151   6.437
   99SBC   C01M69418   6.814   9.051   6.442
   99SBC   C02J69419   6.730   9.270   6.368
   99SBC   C02I69420   6.847   9.323   6.315
   99SBC   C02H69421   6.974   9.264   6.302
   99SBC   C01Q69422   7.009   9.130   6.315
   99SBC   C02G69423   7.140   9.121   6.256
   99SBC   C08969424   7.188   9.254   6.243
   99SBC   C08869425   7.284   9.255   6.140
   99SBC   C08769426   7.307   9.111   6.116
   99SBC   C08669427   7.418   9.057   6.046
   99SBC   C03S69428   7.470   8.918   6.044
   99SBC   N00669429   7.582   8.921   5.963
   99SBC   C08F69430   7.605   9.049   5.921
   99SBC   C01J69431   7.444   8.797   6.111
   99SBC   C03R69432   7.531   8.688   6.080
   99SBC   C03Q69433   7.638   8.703   5.989
   99SBC   C08E69434   7.502   9.136   5.960
   99SBC   C08D69435   7.497   9.270   5.915
   99SBC   C08K69436   7.591   9.308   5.813
   99SBC   C08C69437   7.409   9.376   5.959
   99SBC   C09169438   7.418   9.502   5.899
   99SBC   C09269439   7.492   9.534   5.781
   99SBC   C08B69440   7.324   9.377   6.068
   99SBC   C09069441   7.265   9.510   6.065
   99SBC   C09469442   7.156   9.551   6.149
   99SBC   C09569443   7.077   9.666   6.139
   99SBC   C09R69444   6.954   9.655   6.201
   99SBC   C09769445   6.941   9.524   6.235
   99SBC   C09669446   7.062   9.465   6.212
   99SBC   C01I69447   7.225   9.025   6.200
   99SBC   C08A69448   7.077   9.333   6.245
   99SBC   C09L69449   6.824   9.449   6.276
   99SBC   C09K69450   6.691   9.485   6.299
   99SBC   C09J69451   6.640   9.619   6.303
   99SBC   C09I69452   6.502   9.643   6.290
   99SBC   C09O69453   6.380   9.564   6.312
   99SBC   C09N69454   6.382   9.434   6.373
   99SBC   C09M69455   6.490   9.350   6.409
   99SBC   C06O69456   6.251   9.384   6.404
   99SBC   C05M69457   6.136   9.452   6.361
   99SBC   C06P69458   6.143   9.572   6.292
   99SBC   C04269459   6.011   9.387   6.377
   99SBC   C04169460   6.000   9.268   6.452
   99SBC   C04069461   5.875   9.205   6.466
   99SBC   C03Z69462   5.861   9.084   6.528
   99SBC   C03Y69463   5.969   9.025   6.585
   99SBC   C02769464   5.948   8.903   6.650
   99SBC   C02669465   6.063   8.833   6.696
   99SBC   C02869466   6.054   8.701   6.742
   99SBC   C02969467   5.932   8.637   6.750
   99SBC   C02B69468   5.925   8.500   6.774
   99SBC   C02C69469   5.800   8.442   6.774
   99SBC   C02X69470   5.794   8.307   6.812
   99SBC   C03E69471   5.671   8.246   6.791
   99SBC   C03G69472   5.559   8.308   6.753
   99SBC   C04Q69473   5.564   8.444   6.727
   99SBC   C04R69474   5.450   8.505   6.680
   99SBC   C04S69475   5.458   8.637   6.642
   99SBC   C04L69476   5.585   8.704   6.641
   99SBC   C04M69477   5.695   8.640   6.698
   99SBC   C04K69478   5.597   8.829   6.587
   99SBC   C04F69479   5.489   8.892   6.534
   99SBC   C04E69480   5.363   8.833   6.536
   99SBC   C04D69481   5.246   8.905   6.497
   99SBC   C05069482   5.123   8.838   6.488
   99SBC   C05169483   5.017   8.908   6.436
   99SBC   C05Q69484   4.887   8.849   6.443
   99SBC   C05V69485   4.774   8.921   6.405
   99SBC   N00569486   4.653   8.853   6.406
   99SBC   C07V69487   4.647   8.719   6.435
   99SBC   C08269488   4.520   8.650   6.425
   99SBC   C08169489   4.406   8.715   6.399
   99SBC   C07C69490   4.413   8.852   6.368
   99SBC   C07B69491   4.297   8.926   6.347
   99SBC   C08069492   4.168   8.862   6.359
   99SBC   C07Z69493   4.058   8.950   6.333
   99SBC   H00L69494   3.963   8.900   6.338
   99SBC   C07969495   4.062   9.084   6.313
   99SBC   C07869496   4.190   9.142   6.304
   99SBC   C07769497   4.201   9.278   6.296
   99SBC   C07X69498   4.082   9.354   6.285
   99SBC   H00I69499   4.072   9.460   6.266
   99SBC   C07Y69500   3.952   9.302   6.284
   99SBC   H00H69501   3.863   9.362   6.291
   99SBC   C07669502   4.325   9.340   6.292
   99SBC   C06C69503   4.344   9.480   6.287
   99SBC   H00C69504   4.263   9.547   6.311
   99SBC   C06F69505   4.435   9.258   6.284
   99SBC   C06E69506   4.564   9.313   6.275
   99SBC   C06G69507   4.683   9.252   6.297
   99SBC   C06H69508   4.671   9.124   6.338
   99SBC   C06I69509   4.545   9.057   6.348
   99SBC   C06L69510   4.805   9.319   6.271
   99SBC   C06M69511   4.818   9.450   6.212
   99SBC   C06K69512   4.921   9.249   6.308
   99SBC   C05S69513   4.911   9.113   6.355
   99SBC   C05U69514   5.049   9.310   6.298
   99SBC   C05X69515   5.067   9.435   6.236
   99SBC   C05G69516   5.207   9.476   6.243
   99SBC   C05F69517   5.307   9.397   6.292
   99SBC   C05E69518   5.426   9.452   6.272
   99SBC   C04869519   5.542   9.383   6.307
   99SBC   C05669520   5.661   9.446   6.287
   99SBC   C04569521   5.773   9.385   6.341
   99SBC   C04769522   5.526   9.260   6.368
   99SBC   C04969523   5.399   9.208   6.383
   99SBC   C04B69524   5.387   9.085   6.434
   99SBC   C04669525   5.639   9.200   6.420
   99SBC   C04H69526   5.625   9.080   6.482
   99SBC   C05D69527   5.415   9.565   6.202
   99SBC   C04A69528   5.287   9.276   6.348
   99SBC   C05T69529   5.159   9.231   6.347
   99SBC   C05569530   5.144   9.104   6.398
   99SBC   C06D69531   4.575   9.445   6.229
   99SBC   C07W69532   4.427   9.123   6.320
   99SBC   C08569533   3.949   9.170   6.313
   99SBC   H00M69534   3.854   9.118   6.314
   99SBC   C08469535   4.162   8.723   6.387
   99SBC   H00J69536   4.070   8.668   6.379
   99SBC   C07A69537   4.305   9.063   6.328
   99SBC   C08369538   4.278   8.652   6.395
   99SBC   H00K69539   4.277   8.544   6.396
   99SBC   O00K69540   4.513   8.515   6.441
   99SBC   C0GO69541   4.622   8.450   6.477
   99SBC   C0GN69542   4.624   8.311   6.487
   99SBC   H01L69543   4.530   8.264   6.461
   99SBC   C0GM69544   4.735   8.230   6.526
   99SBC   C0GL69545   4.729   8.096   6.517
   99SBC   H01M69546   4.640   8.042   6.487
   99SBC   O00J69547   4.837   8.018   6.550
   99SBC   C0GK69548   4.956   8.092   6.568
   99SBC   H01N69549   5.043   8.030   6.584
   99SBC   C05K69550   4.957   8.228   6.582
   99SBC   C05J69551   5.082   8.291   6.618
   99SBC   C04Y69552   5.199   8.230   6.670
   99SBC   C04X69553   5.319   8.301   6.699
   99SBC   O00669554   5.204   8.093   6.692
   99SBC   C05369555   5.317   8.022   6.718
   99SBC   C04O69556   5.437   8.087   6.748
   99SBC   C03C69557   5.560   8.025   6.792
   99SBC   C03B69558   5.613   7.890   6.805
   99SBC   C05469559   5.548   7.782   6.744
   99SBC   C0GR69560   5.599   7.655   6.723
   99SBC   C03M69561   5.733   7.595   6.737
   99SBC   C03I69562   5.856   7.670   6.761
   99SBC   C03J69563   5.976   7.593   6.750
   99SBC   N00269564   6.105   7.659   6.778
   99SBC   C02U69565   6.231   7.589   6.762
   99SBC   C02T69566   6.353   7.651   6.780
   99SBC   C02Z69567   6.470   7.575   6.770
   99SBC   N00169568   6.599   7.638   6.774
   99SBC   C02R69569   6.715   7.559   6.757
   99SBC   C03269570   6.707   7.422   6.751
   99SBC   C03169571   6.579   7.362   6.737
   99SBC   H00769572   6.575   7.254   6.733
   99SBC   C03369573   6.835   7.350   6.754
   99SBC   H00369574   6.834   7.242   6.758
   99SBC   O00469575   6.955   7.413   6.761
   99SBC   C03469576   6.956   7.551   6.748
   99SBC   C03569577   7.083   7.614   6.728
   99SBC   C03669578   7.094   7.755   6.743
   99SBC   H00569579   7.192   7.800   6.741
   99SBC   C03769580   6.977   7.832   6.762
   99SBC   H00669581   6.986   7.935   6.793
   99SBC   C00D69582   6.847   7.769   6.757
   99SBC   C00C69583   6.735   7.842   6.770
   99SBC   C00B69584   6.728   7.996   6.766
   99SBC   C00A69585   6.818   8.118   6.735
   99SBC   C00969586   6.730   8.224   6.770
   99SBC   C00869587   6.740   8.356   6.719
   99SBC   C00769588   6.844   8.389   6.631
   99SBC   C00669589   6.854   8.524   6.586
   99SBC   C00569590   6.969   8.555   6.505
   99SBC   C00469591   7.062   8.456   6.465
   99SBC   C00369592   7.038   8.320   6.498
   99SBC   C00269593   7.116   8.219   6.449
   99SBC   C01C69594   7.228   8.250   6.383
   99SBC   C01B69595   7.336   8.153   6.361
   99SBC   H00069596   7.334   8.051   6.398
   99SBC   C00169597   7.075   8.089   6.471
   99SBC   C00069598   6.958   8.059   6.543
   99SBC   C01U69599   6.907   7.939   6.491
   99SBC   H00269600   6.816   7.887   6.517
   99SBC   C01T69601   7.012   7.889   6.395
   99SBC   O00269602   7.020   7.779   6.342
   99SBC   O00169603   7.102   7.987   6.379
   99SBC   C01S69604   6.926   8.290   6.576
   99SBC   C00N69605   6.635   8.444   6.757
   99SBC   C00M69606   6.516   8.397   6.816
   99SBC   C00J69607   6.499   8.266   6.843
   99SBC   C00I69608   6.380   8.200   6.857
   99SBC   C00H69609   6.370   8.061   6.842
   99SBC   C00G69610   6.483   7.985   6.825
   99SBC   C00F69611   6.485   7.849   6.803
   99SBC   C01X69612   6.248   7.999   6.827
   99SBC   C01W69613   6.133   8.073   6.831
   99SBC   C01V69614   6.143   8.208   6.848
   99SBC   C02069615   6.027   8.291   6.834
   99SBC   C01Z69616   6.011   8.011   6.829
   99SBC   C02Y69617   5.905   8.093   6.848
   99SBC   C03969618   5.777   8.032   6.844
   99SBC   C02W69619   5.994   7.869   6.813
   99SBC   C01Y69620   6.242   7.863   6.807
   99SBC   C00U69621   6.266   8.279   6.854
   99SBC   C00S69622   6.276   8.416   6.833
   99SBC   C00T69623   6.160   8.488   6.801
   99SBC   C00R69624   6.401   8.474   6.815
   99SBC   C00Q69625   6.413   8.602   6.769
   99SBC   C00V69626   6.292   8.682   6.760
   99SBC   C02469627   6.299   8.814   6.705
   99SBC   C00X69628   6.426   8.868   6.681
   99SBC   C00P69629   6.530   8.650   6.724
   99SBC   C00O69630   6.644   8.571   6.711
   99SBC   C00K69631   6.615   8.182   6.831
   99SBC   N00069632   6.899   8.156   6.620
   99SBC   C00L69633   6.611   8.047   6.820
   99SBC   H00469634   7.176   7.559   6.722
   99SBC   C02Q69635   6.837   7.629   6.754
   99SBC   C00E69636   6.606   7.780   6.783
   99SBC   C03069637   6.463   7.436   6.742
   99SBC   O00369638   6.347   7.370   6.739
   99SBC   C02S69639   6.361   7.788   6.798
   99SBC   C03869640   6.228   7.450   6.735
   99SBC   C03L69641   6.107   7.392   6.721
   99SBC   H00869642   6.099   7.291   6.684
   99SBC   C02V69643   6.116   7.800   6.804
   99SBC   C03K69644   5.982   7.454   6.725
   99SBC   C0BK69645   5.860   7.392   6.703
   99SBC   H00T69646   5.862   7.285   6.685
   99SBC   C03H69647   5.868   7.809   6.800
   99SBC   C0BL69648   5.737   7.457   6.703
   99SBC   C0GU69649   5.618   7.379   6.675
   99SBC   H01O69650   5.629   7.274   6.653
   99SBC   C0GT69651   5.495   7.444   6.654
   99SBC   H01P69652   5.402   7.400   6.622
   99SBC   C0GS69653   5.486   7.578   6.680
   99SBC   C0GV69654   5.367   7.652   6.678
   99SBC   C0GW69655   5.233   7.616   6.648
   99SBC   H01Q69656   5.211   7.516   6.614
   99SBC   C0GX69657   5.140   7.708   6.667
   99SBC   H01R69658   5.035   7.691   6.644
   99SBC   O00L69659   5.163   7.844   6.694
   99SBC   C0GQ69660   5.406   7.780   6.719
   99SBC   C03A69661   5.754   7.898   6.817
   99SBC   C05L69662   5.303   7.882   6.712
   99SBC   C04W69663   5.092   8.428   6.602
   99SBC   C05I69664   4.981   8.500   6.551
   99SBC   C05O69665   4.854   8.441   6.535
   99SBC   C05269666   4.991   8.638   6.517
   99SBC   C04V69667   5.213   8.505   6.619
   99SBC   C04U69668   5.224   8.637   6.582
   99SBC   N00969669   4.844   8.304   6.557
   99SBC   C0GP69670   4.747   8.516   6.491
   99SBC   C05W69671   4.760   8.649   6.465
   99SBC   C07D69672   4.533   8.920   6.377
   99SBC   C06J69673   4.783   9.054   6.364
   99SBC   C05P69674   4.881   8.714   6.479
   99SBC   C05R69675   5.023   9.041   6.399
   99SBC   C04Z69676   5.113   8.705   6.534
   99SBC   C04C69677   5.255   9.034   6.442
   99SBC   C04G69678   5.502   9.017   6.480
   99SBC   C04J69679   5.718   8.891   6.591
   99SBC   C04T69680   5.347   8.700   6.584
   99SBC   N00369681   5.327   8.439   6.673
   99SBC   C04P69682   5.439   8.234   6.732
   99SBC   C03D69683   5.667   8.109   6.813
   99SBC   C02169684   5.907   8.232   6.834
   99SBC   C03F69685   5.685   8.510   6.735
   99SBC   C02269686   6.038   8.429   6.801
   99SBC   C02A69687   5.817   8.704   6.699
   99SBC   C02369688   6.169   8.626   6.772
   99SBC   C02569689   6.188   8.887   6.677
   99SBC   C02D69690   6.201   9.017   6.617
   99SBC   C02E69691   6.328   9.076   6.595
   99SBC   C02N69692   6.345   9.191   6.523
   99SBC   C04N69693   5.827   8.836   6.653
   99SBC   C02P69694   6.092   9.084   6.568
   99SBC   C04I69695   5.735   9.015   6.536
   99SBC   C04469696   5.765   9.266   6.408
   99SBC   C04369697   6.109   9.209   6.507
   99SBC   C05N69698   6.234   9.268   6.480
   99SBC   C09U69699   6.266   9.630   6.263
   99SBC   C09V69700   6.265   9.756   6.200
   99SBC   C09X69701   6.379   9.823   6.178
   99SBC   C09Y69702   6.402   9.919   6.077
   99SBC   C0A169703   6.289   9.967   6.017
   99SBC   C0A269704   6.163   9.918   6.054
   99SBC   C0A469705   6.049   9.967   5.999
   99SBC   C07169706   5.925   9.906   6.022
   99SBC   C0A569707   5.813   9.964   5.967
   99SBC   C0A969708   5.824  10.074   5.880
   99SBC   C0A869709   5.948  10.121   5.847
   99SBC   C0AP69710   5.962  10.224   5.756
   99SBC   C0BY69711   6.091  10.261   5.718
   99SBC   C0BX69712   6.206  10.204   5.763
   99SBC   C0C269713   6.333  10.240   5.712
   99SBC   C0C369714   6.450  10.185   5.761
   99SBC   C0CT69715   6.434  10.095   5.867
   99SBC   C0C169716   6.339  10.336   5.609
   99SBC   C0C069717   6.216  10.410   5.580
   99SBC   C0A769718   6.193  10.111   5.861
   99SBC   C0BZ69719   6.098  10.366   5.634
   99SBC   C0BO69720   5.988  10.440   5.591
   99SBC   C0BN69721   5.856  10.396   5.617
   99SBC   C0BM69722   5.754  10.453   5.551
   99SBC   C0B969723   5.627  10.405   5.580
   99SBC   C0B869724   5.614  10.287   5.658
   99SBC   C0AD69725   5.725  10.233   5.725
   99SBC   C0AF69726   5.491  10.233   5.677
   99SBC   C0AG69727   5.375  10.291   5.628
   99SBC   C0B769728   5.392  10.400   5.548
   99SBC   C0AE69729   5.486  10.129   5.757
   99SBC   C0AB69730   5.593  10.065   5.824
   99SBC   C0AA69731   5.581   9.956   5.908
   99SBC   C0AJ69732   5.363  10.072   5.779
   99SBC   C0AK69733   5.349   9.961   5.858
   99SBC   C06W69734   5.217   9.932   5.864
   99SBC   C0AI69735   5.241  10.113   5.726
   99SBC   C0BP69736   6.024  10.537   5.499
   99SBC   C0BQ69737   5.912  10.596   5.425
   99SBC   C0BW69738   5.849  10.288   5.702
   99SBC   C0AC69739   5.715  10.117   5.808
   99SBC   C0A669740   6.061  10.070   5.905
   99SBC   C0A369741   6.306  10.056   5.912
   99SBC   C09Z69742   6.533   9.966   6.038
   99SBC   C09W69743   6.154   9.803   6.139
   99SBC   C07269744   6.031   9.739   6.155
   99SBC   C09H69745   6.496   9.772   6.235
   99SBC   C09G69746   6.624   9.826   6.208
   99SBC   C09P69747   6.711   9.731   6.250
   99SBC   C02O69748   6.629   9.374   6.357
   99SBC   C02M69749   6.475   9.229   6.478
   99SBC   C02F69750   6.436   8.999   6.632
   99SBC   C00W69751   6.531   8.779   6.686
   99SBC   C01R69752   6.761   8.608   6.642
   99SBC   C01N69753   6.779   8.960   6.541
   99SBC   C01L69754   6.934   9.027   6.367
   99SBC   C01H69755   7.226   8.881   6.225
   99SBC   C01K69756   6.991   8.680   6.445
   99SBC   C01E69757   7.169   8.485   6.382
   99SBC   C01G69758   7.325   8.780   6.192
   99SBC   C01D69759   7.254   8.385   6.340
   99SBC   C01A69760   7.451   8.184   6.290
   99SBC   H00169761   7.523   8.105   6.273
   99SBC   C01F69762   7.507   8.566   6.136
   99SBC   C03P69763   7.726   8.598   5.962
   99SBC   C03T69764   7.671   8.822   5.931
   99SBC   C08I69765   7.699   9.085   5.828
   99SBC   C08J69766   7.694   9.214   5.775
   99SBC   C08L69767   7.590   9.437   5.750
   99SBC   C09369768   7.471   9.662   5.730
   99SBC   C08Z69769   7.319   9.587   5.951
   99SBC   C09T69770   7.149   9.991   5.779
   99SBC   C09S69771   7.106   9.782   6.063
   99SBC   C09Q69772   6.847   9.749   6.205
   99SBC   C09F69773   6.647   9.920   6.104
   99SBC   C09E69774   6.939  10.020   5.897
   99SBC   C0A069775   6.553  10.048   5.925
   99SBC   C0CU69776   6.576  10.220   5.702
   99SBC   C0CR69777   6.582  10.298   5.583
   99SBC   C0CZ69778   6.701  10.311   5.514
   99SBC   C0DA69779   7.020  10.064   5.789
   99SBC   C0D969780   7.135  10.348   5.621
   99SBC   H00V69781   7.205  10.366   5.702
   99SBC   C0CY69782   6.817  10.259   5.570
   99SBC   C0DF69783   7.111  10.437   5.505
   99SBC   C0DE69784   7.123  10.569   5.444
   99SBC   C0GI69785   7.238  10.651   5.444
   99SBC   H01K69786   7.328  10.626   5.499
   99SBC   C0GJ69787   7.222  10.762   5.367
   99SBC   H01J69788   7.303  10.833   5.371
   99SBC   O00I69789   7.103  10.798   5.294
   99SBC   C0GH69790   6.994  10.714   5.284
   99SBC   C0GG69791   6.883  10.763   5.207
   99SBC   O00G69792   6.897  10.885   5.150
   99SBC   C0G869793   6.793  10.949   5.087
   99SBC   C0G969794   6.825  11.058   5.013
   99SBC   H01G69795   6.928  11.089   5.006
   99SBC   C0GA69796   6.726  11.123   4.949
   99SBC   H01H69797   6.767  11.190   4.875
   99SBC   C0GB69798   6.593  11.088   4.950
   99SBC   C0EP69799   6.556  10.982   5.038
   99SBC   C0E869800   6.413  10.961   5.061
   99SBC   C0CK69801   6.331  10.882   5.140
   99SBC   C0CL69802   6.368  10.751   5.159
   99SBC   C0E969803   6.510  10.704   5.145
   99SBC   C0GE69804   6.645  10.765   5.141
   99SBC   C0E769805   6.320  11.042   4.992
   99SBC   C0CJ69806   6.187  11.011   5.030
   99SBC   C0E669807   6.082  11.066   4.950
   99SBC   H00Y69808   5.979  11.049   4.976
   99SBC   C0EO69809   6.123  11.154   4.852
   99SBC   H01169810   6.047  11.213   4.804
   99SBC   C0G669811   6.258  11.196   4.826
   99SBC   C0G569812   6.299  11.289   4.725
   99SBC   H01F69813   6.221  11.334   4.665
   99SBC   C0GD69814   6.431  11.320   4.708
   99SBC   H01I69815   6.464  11.381   4.625
   99SBC   O00H69816   6.528  11.264   4.785
   99SBC   C0EQ69817   6.360  11.132   4.895
   99SBC   C0GC69818   6.493  11.162   4.875
   99SBC   C0G769819   6.657  10.901   5.099
   99SBC   C0DD69820   7.008  10.593   5.360
   99SBC   C0GF69821   6.758  10.695   5.191
   99SBC   C0CO69822   6.496  10.567   5.174
   99SBC   C0D069823   6.695  10.396   5.400
   99SBC   C0C469824   6.456  10.352   5.532
   99SBC   C0CN69825   6.363  10.530   5.195
   99SBC   C0CP69826   6.166  10.514   5.484
   99SBC   C0CM69827   6.278  10.638   5.163
   99SBC   C0CI69828   6.189  10.919   5.143
   99SBC   C0CD69829   5.726  10.970   5.199
   99SBC   C0BR69830   5.938  10.696   5.334
   99SBC   C0CS69831   5.785  10.551   5.457
   99SBC   C0B669832   5.516  10.457   5.525
   99SBC   C0CG69833   5.580  10.792   5.281
   99SBC   C0CF69834   5.601  10.912   5.209
   99SBC   C0E569835   5.617  11.176   5.127
   99SBC   C0DT69836   5.397  11.306   5.040
   99SBC   C0DL69837   5.250  10.986   5.136
   99SBC   C0DM69838   5.121  10.931   5.146
   99SBC   C0DY69839   5.021  11.120   5.033
   99SBC   C0DU69840   5.283  11.360   4.988
   99SBC   C0F069841   5.179  11.567   4.928
   99SBC   C0F469842   4.963  11.727   4.922
   99SBC   C0FG69843   4.819  11.390   4.876
   99SBC   O00B69844   4.716  11.729   4.926
   99SBC   C0FN69845   4.692  11.356   4.905
   99SBC   C0DZ69846   4.905  11.188   4.989
   99SBC   O00C69847   4.641  10.978   5.119
   99SBC   C0FR69848   4.616  10.858   5.167
   99SBC   O00D69849   4.495  10.821   5.173
   99SBC   C0E069850   5.010  10.998   5.100
   99SBC   C0E369851   4.730  10.776   5.207
   99SBC   C0AW69852   4.715  10.647   5.268
   99SBC   C0AV69853   4.593  10.579   5.282
   99SBC   H00Q69854   4.497  10.609   5.243
   99SBC   C0AU69855   4.584  10.456   5.368
   99SBC   H00R69856   4.498  10.395   5.391
   99SBC   C0AT69857   4.706  10.416   5.436
   99SBC   C0AS69858   4.743  10.311   5.528
   99SBC   C0AR69859   4.643  10.239   5.601
   99SBC   C0BE69860   4.822  10.477   5.397
   99SBC   C0DN69861   5.107  10.810   5.214
   99SBC   C0AX69862   4.831  10.592   5.312
   99SBC   C0BB69863   5.198  10.631   5.355
   99SBC   C0BD69864   4.927  10.405   5.452
   99SBC   C0B269865   5.286  10.458   5.493
   99SBC   C0AH69866   5.251  10.232   5.647
   99SBC   C0BF69867   4.890  10.303   5.541
   99SBC   C0AL69868   5.143  10.018   5.775
   99SBC   C07U69869   4.795  10.071   5.725
   99SBC   C0AQ69870   4.673  10.130   5.689
   99SBC   C0BG69871   4.497  10.271   5.619
   99SBC   C0FY69872   4.304  10.177   5.899
   99SBC   C0BJ69873   4.430  10.392   5.662
   99SBC   H00S69874   4.440  10.489   5.615
   99SBC   C0FZ69875   4.248  10.291   5.955
   99SBC   C07S69876   4.353  10.070   5.988
   99SBC   C0G169877   4.176  10.186   6.297
   99SBC   C07K69878   4.324   9.876   6.442
   99SBC   C07H69879   4.444   9.875   6.179
   99SBC   C06B69880   4.467   9.529   6.242
   99SBC   C06N69881   4.688   9.516   6.200
   99SBC   C06669882   4.636   9.845   6.011
   99SBC   C06269883   4.942   9.805   5.945
   99SBC   C05Y69884   4.946   9.501   6.184
   99SBC   C06169885   5.072   9.747   5.931
   99SBC   C05H69886   5.274   9.586   6.181
   99SBC   C06V69887   5.191   9.819   5.945
   99SBC   C06Y69888   5.458   9.899   5.927
   99SBC   C05C69889   5.545   9.625   6.166
   99SBC   C06Z69890   5.692   9.902   5.974
   99SBC   C07069891   5.914   9.791   6.097
   99SBC   C05B69892   5.664   9.566   6.221
   99SBC   C05769893   5.896   9.449   6.329
   99SBC   C05969894   6.026   9.624   6.237
  100SBC   C05869895   0.417   3.079  14.498
  100SBC   C05A69896   0.402   3.219  14.493
  100SBC   C06Q69897   0.396   3.285  14.370
  100SBC   C06R69898   0.371   3.428  14.363
  100SBC   C06S69899   0.354   3.506  14.480
  100SBC   C06T69900   0.329   3.645  14.465
  100SBC   C06U69901   0.294   3.745  14.570
  100SBC   C06X69902   0.295   3.744  14.712
  100SBC   C06069903   0.208   3.853  14.757
  100SBC   C05Z69904   0.217   3.932  14.876
  100SBC   C06869905   0.222   4.074  14.828
  100SBC   C06769906   0.240   4.196  14.909
  100SBC   C06969907   0.259   4.184  15.056
  100SBC   C06A69908   0.314   4.290  15.150
  100SBC   C07369909   0.391   4.406  15.124
  100SBC   C07P69910   0.498   4.428  15.213
  100SBC   C07O69911   0.567   4.327  15.288
  100SBC   H00D69912   0.549   4.221  15.287
  100SBC   C07N69913   0.671   4.351  15.373
  100SBC   H00E69914   0.730   4.272  15.418
  100SBC   C07M69915   0.706   4.485  15.390
  100SBC   H00F69916   0.793   4.496  15.453
  100SBC   C07L69917   0.652   4.589  15.312
  100SBC   C07Q69918   0.689   4.723  15.316
  100SBC   H00G69919   0.777   4.745  15.376
  100SBC   O00F69920   0.640   4.823  15.229
  100SBC   C07J69921   0.550   4.783  15.137
  100SBC   C07I69922   0.497   4.652  15.138
  100SBC   N00469923   0.392   4.626  15.042
  100SBC   C07R69924   0.349   4.733  14.954
  100SBC   C07T69925   0.416   4.856  14.955
  100SBC   C0FX69926   0.396   4.956  14.857
  100SBC   C0FW69927   0.490   5.050  14.821
  100SBC   C0G069928   0.599   5.065  14.914
  100SBC   C0G269929   0.696   5.158  14.897
  100SBC   H01E69930   0.768   5.167  14.978
  100SBC   C0G369931   0.704   5.237  14.778
  100SBC   H01C69932   0.783   5.305  14.751
  100SBC   C0G469933   0.597   5.227  14.687
  100SBC   H01D69934   0.604   5.291  14.600
  100SBC   O00E69935   0.596   4.996  15.030
  100SBC   C0FV69936   0.491   5.128  14.702
  100SBC   C0FU69937   0.382   5.102  14.612
  100SBC   H01B69938   0.382   5.149  14.515
  100SBC   C0FT69939   0.288   5.003  14.643
  100SBC   C0FS69940   0.188   4.927  14.569
  100SBC   C0BI69941   0.127   4.828  14.662
  100SBC   C0BH69942   0.076   4.721  14.577
  100SBC   C07F69943   0.127   4.584  14.598
  100SBC   C07E69944   0.161   4.511  14.717
  100SBC   C07G69945   0.209   4.569  14.833
  100SBC   C07469946   0.260   4.467  14.910
  100SBC   C06569947   0.192   4.375  14.718
  100SBC   C06469948   0.188   4.308  14.591
  100SBC   C06369949   0.204   4.171  14.571
  100SBC   C07569950   0.193   4.162  14.421
  100SBC   C0AM69951   0.173   4.289  14.351
  100SBC   C0AN69952   0.170   4.318  14.204
  100SBC   C0AO69953   0.177   4.229  14.081
  100SBC   C0B169954   0.154   4.273  13.944
  100SBC   C0B069955   0.138   4.409  13.919
  100SBC   C0AZ69956   0.116   4.461  13.791
  100SBC   C0AY69957   0.101   4.601  13.783
  100SBC   N00769958   0.072   4.661  13.658
  100SBC   C0E269959   0.055   4.802  13.650
  100SBC   C0E169960   0.041   4.851  13.519
  100SBC   C0E469961   0.029   4.989  13.504
  100SBC   C0FF69962   0.005   5.054  13.382
  100SBC   C0FJ69963  -0.006   5.194  13.339
  100SBC   C0FK69964   0.088   5.294  13.386
  100SBC   H01669965   0.136   5.294  13.484
  100SBC   C0FL69966   0.115   5.385  13.274
  100SBC   H01769967   0.190   5.462  13.276
  100SBC   C0FM69968   0.032   5.339  13.162
  100SBC   C0FH69969   0.032   5.332  13.013
  100SBC   C0FI69970  -0.034   5.205  12.995
  100SBC   C0F369971   0.004   5.124  12.886
  100SBC   C0F269972  -0.020   4.991  12.914
  100SBC   C0DW69973  -0.034   4.929  13.033
  100SBC   C0FE69974  -0.043   5.006  13.143
  100SBC   C0DV69975  -0.017   4.794  13.053
  100SBC   C0DX69976   0.002   4.740  13.179
  100SBC   C0DK69977   0.022   4.602  13.185
  100SBC   C0DJ69978   0.038   4.523  13.071
  100SBC   C0DI69979   0.065   4.390  13.081
  100SBC   C0DH69980   0.077   4.330  13.209
  100SBC   C0DG69981   0.067   4.410  13.323
  100SBC   C0BV69982   0.078   4.357  13.447
  100SBC   C0BC69983   0.083   4.441  13.555
  100SBC   C0BA69984   0.103   4.219  13.458
  100SBC   C0B469985   0.131   4.165  13.584
  100SBC   C0B369986   0.129   4.247  13.698
  100SBC   C0B569987   0.153   4.029  13.591
  100SBC   C0BU69988   0.146   3.946  13.476
  100SBC   C0BT69989   0.118   3.996  13.350
  100SBC   C0BS69990   0.116   3.914  13.238
  100SBC   C0CC69991   0.106   3.977  13.112
  100SBC   C0CB69992   0.114   3.900  12.996
  100SBC   C0CH69993   0.150   3.972  12.877
  100SBC   C0DO69994   0.126   4.108  12.860
  100SBC   C0DP69995   0.129   4.170  12.734
  100SBC   C0EA69996   0.145   4.092  12.613
  100SBC   H01269997   0.157   3.985  12.623
  100SBC   O00969998   0.155   4.143  12.484
  100SBC   C0EH69999   0.149   4.278  12.484
  100SBC   C0EG70000   0.173   4.337  12.359
  100SBC   C0EJ70001   0.195   4.277  12.233
  100SBC   H01070002   0.216   4.177  12.198
  100SBC   C0EK70003   0.204   4.386  12.141
  100SBC   H00Z70004   0.227   4.384  12.035
  100SBC   C0EL70005   0.194   4.511  12.213
  100SBC   C0EM70006   0.180   4.653  12.185
  100SBC   C0EW70007   0.191   4.711  12.056
  100SBC   H01370008   0.214   4.659  11.964
  100SBC   C0EX70009   0.181   4.858  12.043
  100SBC   H01470010   0.191   4.903  11.946
  100SBC   C0F170011   0.175   4.943  12.162
  100SBC   C0EU70012   0.178   4.880  12.286
  100SBC   C0ET70013   0.167   4.942  12.411
  100SBC   C0ES70014   0.161   4.831  12.503
  100SBC   C0EE70015   0.156   4.707  12.428
  100SBC   C0ED70016   0.143   4.564  12.453
  100SBC   C0EC70017   0.119   4.506  12.581
  100SBC   C0EB70018   0.086   4.581  12.703
  100SBC   C0EN70019   0.074   4.720  12.702
  100SBC   C0ER70020   0.020   4.775  12.818
  100SBC   C0DS70021   0.066   4.516  12.828
  100SBC   C0DR70022   0.091   4.381  12.839
  100SBC   C0EY70023   0.098   4.840  12.624
  100SBC   C0EZ70024   0.072   4.959  12.690
  100SBC   C0F570025   0.091   5.102  12.668
  100SBC   C0F670026   0.140   5.155  12.547
  100SBC   N00870027   0.155   5.301  12.548
  100SBC   C0F770028   0.148   5.379  12.671
  100SBC   C0FQ70029   0.183   5.513  12.665
  100SBC   H01870030   0.182   5.564  12.760
  100SBC   C0FP70031   0.209   5.583  12.545
  100SBC   H01970032   0.227   5.690  12.550
  100SBC   C0FO70033   0.204   5.506  12.432
  100SBC   H01A70034   0.216   5.564  12.342
  100SBC   C0F870035   0.104   5.311  12.790
  100SBC   C0F970036   0.181   5.368  12.427
  100SBC   C0FA70037   0.188   5.298  12.300
  100SBC   H01570038   0.200   5.356  12.210
  100SBC   C0FB70039   0.177   5.157  12.298
  100SBC   C0FD70040   0.160   5.090  12.419
  100SBC   C0FC70041   0.180   5.085  12.168
  100SBC   O00A70042   0.187   5.151  12.064
  100SBC   C0EV70043   0.164   4.742  12.295
  100SBC   C0EF70044   0.172   4.473  12.347
  100SBC   C0EI70045   0.131   4.365  12.599
  100SBC   C0DQ70046   0.110   4.305  12.724
  100SBC   C0CE70047   0.101   4.182  12.974
  100SBC   H00U70048   0.187   3.901  12.805
  100SBC   C0CA70049   0.089   3.758  13.001
  100SBC   C0C970050   0.109   3.692  13.131
  100SBC   C0C870051   0.101   3.548  13.129
  100SBC   C0C770052   0.148   3.447  13.223
  100SBC   C0C670053   0.113   3.311  13.190
  100SBC   C0C570054   0.172   3.181  13.210
  100SBC   C0CQ70055   0.168   3.089  13.099
  100SBC   C0D170056   0.124   3.140  12.976
  100SBC   C0D870057   0.191   3.071  12.876
  100SBC   C0D770058   0.252   2.958  12.937
  100SBC   C0D670059   0.320   2.849  12.871
  100SBC   C0D570060   0.383   2.740  12.939
  100SBC   C0D470061   0.380   2.701  13.076
  100SBC   C0D370062   0.496   2.624  13.098
  100SBC   C0CX70063   0.541   2.633  13.234
  100SBC   C0CW70064   0.473   2.754  13.284
  100SBC   C0CV70065   0.464   2.825  13.419
  100SBC   C0D270066   0.514   2.765  13.541
  100SBC   C09D70067   0.571   2.634  13.561
  100SBC   C09C70068   0.609   2.583  13.691
  100SBC   C09B70069   0.649   2.454  13.723
  100SBC   C09A70070   0.645   2.360  13.614
  100SBC   C09970071   0.640   2.400  13.483
  100SBC   C09870072   0.592   2.300  13.399
  100SBC   C08Y70073   0.549   2.188  13.483
  100SBC   C08X70074   0.473   2.068  13.457
  100SBC   C08W70075   0.421   2.047  13.324
  100SBC   C08U70076   0.409   2.138  13.211
  100SBC   C08V70077   0.444   2.278  13.196
  100SBC   C0DC70078   0.429   2.302  13.051
  100SBC   H00W70079   0.450   2.399  13.008
  100SBC   C0DB70080   0.382   2.184  12.984
  100SBC   H00X70081   0.352   2.165  12.882
  100SBC   C08T70082   0.372   2.088  13.085
  100SBC   C08S70083   0.329   1.959  13.059
  100SBC   H00N70084   0.283   1.928  12.966
  100SBC   C08R70085   0.316   1.872  13.174
  100SBC   C08Q70086   0.265   1.740  13.158
  100SBC   H00O70087   0.231   1.712  13.059
  100SBC   C08P70088   0.241   1.648  13.258
  100SBC   C08O70089   0.167   1.531  13.238
  100SBC   H00P70090   0.135   1.503  13.139
  100SBC   C08N70091   0.135   1.451  13.351
  100SBC   C08M70092   0.060   1.331  13.326
  100SBC   O00870093   0.032   1.283  13.217
  100SBC   O00770094   0.031   1.257  13.441
  100SBC   C08H70095   0.063   1.293  13.570
  100SBC   C08G70096   0.022   1.219  13.681
  100SBC   C03V70097  -0.053   1.101  13.682
  100SBC   H00970098  -0.071   1.047  13.590
  100SBC   C03U70099  -0.101   1.044  13.807
  100SBC   C03W70100  -0.173   0.919  13.814
  100SBC   H00A70101  -0.202   0.870  13.723
  100SBC   C03X70102  -0.194   0.862  13.933
  100SBC   H00B70103  -0.225   0.758  13.933
  100SBC   O00570104  -0.165   0.928  14.054
  100SBC   C03O70105  -0.114   1.054  14.044
  100SBC   C03N70106  -0.086   1.124  14.163
  100SBC   O00070107  -0.128   1.065  14.281
  100SBC   C01970108  -0.122   1.140  14.395
  100SBC   C01870109  -0.042   1.254  14.407
  100SBC   C01770110   0.009   1.307  14.290
  100SBC   C01670111   0.088   1.422  14.296
  100SBC   C01570112   0.101   1.480  14.420
  100SBC   C01470113   0.181   1.593  14.437
  100SBC   C01370114   0.238   1.659  14.325
  100SBC   C01270115   0.304   1.774  14.388
  100SBC   C01170116   0.280   1.758  14.527
  100SBC   C01070117   0.340   1.842  14.619
  100SBC   C00Z70118   0.322   1.850  14.756
  100SBC   C00Y70119   0.366   1.982  14.785
  100SBC   C01O70120   0.420   2.046  14.673
  100SBC   C01P70121   0.417   2.185  14.652
  100SBC   C02L70122   0.436   2.227  14.527
  100SBC   C02K70123   0.441   2.133  14.424
  100SBC   C01M70124   0.403   1.997  14.434
  100SBC   C02J70125   0.482   2.190  14.303
  100SBC   C02I70126   0.510   2.124  14.187
  100SBC   C02H70127   0.483   1.995  14.145
  100SBC   C01Q70128   0.410   1.896  14.209
  100SBC   C02G70129   0.392   1.793  14.112
  100SBC   C08970130   0.468   1.820  13.999
  100SBC   C08870131   0.413   1.763  13.885
  100SBC   C08770132   0.319   1.668  13.947
  100SBC   C08670133   0.239   1.571  13.871
  100SBC   C03S70134   0.161   1.464  13.928
  100SBC   N00670135   0.123   1.393  13.815
  100SBC   C08F70136   0.171   1.450  13.704
  100SBC   C01J70137   0.118   1.414  14.051
  100SBC   C03R70138   0.037   1.297  14.048
  100SBC   C03Q70139   0.008   1.227  13.927
  100SBC   C08E70140   0.234   1.566  13.730
  100SBC   C08D70141   0.281   1.653  13.627
  100SBC   C08K70142   0.242   1.610  13.493
  100SBC   C08C70143   0.349   1.773  13.636
  100SBC   C09170144   0.380   1.853  13.525
  100SBC   C09270145   0.336   1.817  13.396
  100SBC   C08B70146   0.406   1.832  13.752
  100SBC   C09070147   0.471   1.951  13.700
  100SBC   C09470148   0.545   2.044  13.780
  100SBC   C09570149   0.599   2.169  13.737
  100SBC   C09R70150   0.620   2.252  13.849
  100SBC   C09770151   0.591   2.176  13.967
  100SBC   C09670152   0.550   2.046  13.921
  100SBC   C01I70153   0.309   1.682  14.095
  100SBC   C08A70154   0.511   1.950  14.018
  100SBC   C09L70155   0.566   2.217  14.102
  100SBC   C09K70156   0.579   2.345  14.168
  100SBC   C09J70157   0.607   2.474  14.101
  100SBC   C09I70158   0.570   2.599  14.150
  100SBC   C09O70159   0.512   2.657  14.270
  100SBC   C09N70160   0.479   2.579  14.385
  100SBC   C09M70161   0.477   2.429  14.396
  100SBC   C06O70162   0.442   2.652  14.500
  100SBC   C05M70163   0.424   2.792  14.504
  100SBC   C06P70164   0.446   2.866  14.386
  100SBC   C04270165   0.388   2.866  14.617
  100SBC   C04170166   0.364   2.803  14.733
  100SBC   C04070167   0.333   2.880  14.847
  100SBC   C03Z70168   0.291   2.817  14.967
  100SBC   C03Y70169   0.295   2.680  14.972
  100SBC   C02770170   0.254   2.616  15.083
  100SBC   C02670171   0.254   2.481  15.093
  100SBC   C02870172   0.202   2.414  15.202
  100SBC   C02970173   0.154   2.487  15.308
  100SBC   C02B70174   0.100   2.424  15.417
  100SBC   C02C70175   0.039   2.493  15.519
  100SBC   C02X70176  -0.044   2.434  15.611
  100SBC   C03E70177  -0.107   2.507  15.707
  100SBC   C03G70178  -0.092   2.641  15.724
  100SBC   C04Q70179  -0.008   2.703  15.634
  100SBC   C04R70180   0.005   2.839  15.632
  100SBC   C04S70181   0.063   2.907  15.527
  100SBC   C04L70182   0.112   2.836  15.416
  100SBC   C04M70183   0.113   2.695  15.419
  100SBC   C04K70184   0.162   2.896  15.304
  100SBC   C04F70185   0.167   3.033  15.302
  100SBC   C04E70186   0.119   3.107  15.407
  100SBC   C04D70187   0.118   3.246  15.400
  100SBC   C05070188   0.069   3.320  15.504
  100SBC   C05170189   0.069   3.462  15.496
  100SBC   C05Q70190   0.019   3.540  15.603
  100SBC   C05V70191   0.035   3.676  15.594
  100SBC   N00570192   0.007   3.750  15.714
  100SBC   C07V70193  -0.047   3.682  15.826
  100SBC   C08270194  -0.091   3.763  15.932
  100SBC   C08170195  -0.057   3.901  15.945
  100SBC   C07C70196   0.016   3.958  15.838
  100SBC   C07B70197   0.068   4.088  15.849
  100SBC   C08070198   0.048   4.160  15.965
  100SBC   C07Z70199   0.115   4.284  15.975
  100SBC   H00L70200   0.124   4.320  16.076
  100SBC   C07970201   0.201   4.334  15.873
  100SBC   C07870202   0.204   4.265  15.752
  100SBC   C07770203   0.281   4.311  15.645
  100SBC   C07X70204   0.370   4.424  15.666
  100SBC   H00I70205   0.443   4.451  15.591
  100SBC   C07Y70206   0.378   4.483  15.791
  100SBC   H00H70207   0.452   4.560  15.808
  100SBC   C07670208   0.265   4.250  15.522
  100SBC   C06C70209   0.289   4.323  15.405
  100SBC   H00C70210   0.333   4.421  15.409
  100SBC   C06F70211   0.202   4.130  15.512
  100SBC   C06E70212   0.197   4.060  15.393
  100SBC   C06G70213   0.161   3.935  15.373
  100SBC   C06H70214   0.113   3.871  15.488
  100SBC   C06I70215   0.100   3.944  15.608
  100SBC   C06L70216   0.175   3.870  15.249
  100SBC   C06M70217   0.207   3.937  15.124
  100SBC   C06K70218   0.164   3.728  15.252
  100SBC   C05S70219   0.124   3.664  15.372
  100SBC   C05U70220   0.206   3.657  15.144
  100SBC   C05X70221   0.239   3.718  15.019
  100SBC   C05G70222   0.284   3.624  14.920
  100SBC   C05F70223   0.307   3.493  14.956
  100SBC   C05E70224   0.336   3.421  14.838
  100SBC   C04870225   0.335   3.282  14.846
  100SBC   C05670226   0.364   3.219  14.727
  100SBC   C04570227   0.367   3.079  14.727
  100SBC   C04770228   0.299   3.222  14.964
  100SBC   C04970229   0.258   3.297  15.073
  100SBC   C04B70230   0.211   3.235  15.183
  100SBC   C04670231   0.296   3.086  14.961
  100SBC   C04H70232   0.262   3.023  15.076
  100SBC   C05D70233   0.348   3.500  14.727
  100SBC   C04A70234   0.260   3.436  15.071
  100SBC   C05T70235   0.215   3.519  15.167
  100SBC   C05570236   0.169   3.450  15.277
  100SBC   C06D70237   0.234   4.126  15.276
  100SBC   C07W70238   0.148   4.067  15.622
  100SBC   C08570239   0.294   4.440  15.895
  100SBC   H00M70240   0.310   4.501  15.983
  100SBC   C08470241  -0.029   4.108  16.073
  100SBC   H00J70242  -0.043   4.165  16.164
  100SBC   C07A70243   0.140   4.141  15.739
  100SBC   C08370244  -0.087   3.982  16.060
  100SBC   H00K70245  -0.152   3.931  16.130
  100SBC   O00K70246  -0.173   3.707  16.031
  100SBC   C0GO70247  -0.185   3.567  16.032
  100SBC   C0GN70248  -0.256   3.511  16.134
  100SBC   H01L70249  -0.305   3.563  16.215
  100SBC   C0GM70250  -0.266   3.362  16.143
  100SBC   C0GL70251  -0.323   3.306  16.252
  100SBC   H01M70252  -0.355   3.367  16.335
  100SBC   O00J70253  -0.323   3.169  16.268
  100SBC   C0GK70254  -0.278   3.092  16.162
  100SBC   H01N70255  -0.277   2.985  16.174
  100SBC   C05K70256  -0.229   3.151  16.048
  100SBC   C05J70257  -0.189   3.065  15.939
  100SBC   C04Y70258  -0.214   2.925  15.925
  100SBC   C04X70259  -0.144   2.845  15.829
  100SBC   O00670260  -0.301   2.856  16.012
  100SBC   C05370261  -0.322   2.720  16.004
  100SBC   C04O70262  -0.254   2.643  15.914
  100SBC   C03C70263  -0.272   2.499  15.885
  100SBC   C03B70264  -0.364   2.393  15.931
  100SBC   C05470265  -0.441   2.402  16.045
  100SBC   C0GR70266  -0.522   2.293  16.084
  100SBC   C03M70267  -0.541   2.148  16.049
  100SBC   C03I70268  -0.468   2.078  15.945
  100SBC   C03J70269  -0.500   1.942  15.918
  100SBC   N00270270  -0.430   1.868  15.811
  100SBC   C02U70271  -0.473   1.736  15.780
  100SBC   C02T70272  -0.398   1.660  15.687
  100SBC   C02Z70273  -0.437   1.529  15.659
  100SBC   N00170274  -0.369   1.455  15.561
  100SBC   C02R70275  -0.408   1.321  15.533
  100SBC   C03270276  -0.522   1.264  15.595
  100SBC   C03170277  -0.593   1.342  15.688
  100SBC   H00770278  -0.680   1.295  15.732
  100SBC   C03370279  -0.542   1.124  15.563
  100SBC   H00370280  -0.633   1.076  15.595
  100SBC   O00470281  -0.459   1.051  15.477
  100SBC   C03470282  -0.345   1.115  15.428
  100SBC   C03570283  -0.267   1.034  15.344
  100SBC   C03670284  -0.151   1.085  15.284
  100SBC   H00570285  -0.081   1.030  15.223
  100SBC   C03770286  -0.128   1.224  15.299
  100SBC   H00670287  -0.042   1.272  15.254
  100SBC   C00D70288  -0.220   1.301  15.374
  100SBC   C00C70289  -0.204   1.439  15.384
  100SBC   C00B70290  -0.118   1.510  15.292
  100SBC   C00A70291  -0.043   1.503  15.161
  100SBC   C00970292   0.032   1.617  15.162
  100SBC   C00870293   0.091   1.674  15.047
  100SBC   C00770294   0.085   1.611  14.927
  100SBC   C00670295   0.145   1.673  14.816
  100SBC   C00570296   0.132   1.607  14.689
  100SBC   C00470297   0.059   1.489  14.671
  100SBC   C00370298  -0.007   1.435  14.784
  100SBC   C00270299  -0.082   1.314  14.777
  100SBC   C01C70300  -0.099   1.265  14.652
  100SBC   C01B70301  -0.168   1.141  14.628
  100SBC   H00070302  -0.210   1.080  14.706
  100SBC   C00170303  -0.158   1.273  14.880
  100SBC   C00070304  -0.155   1.352  15.004
  100SBC   C01U70305  -0.277   1.312  15.066
  100SBC   H00270306  -0.328   1.344  15.156
  100SBC   C01T70307  -0.343   1.211  14.982
  100SBC   O00270308  -0.446   1.147  14.999
  100SBC   O00170309  -0.274   1.199  14.867
  100SBC   C01S70310   0.011   1.494  14.910
  100SBC   C00N70311   0.148   1.799  15.069
  100SBC   C00M70312   0.133   1.872  15.190
  100SBC   C00J70313   0.059   1.819  15.288
  100SBC   C00I70314   0.005   1.886  15.394
  100SBC   C00H70315  -0.093   1.826  15.471
  100SBC   C00G70316  -0.137   1.700  15.452
  100SBC   C00F70317  -0.233   1.640  15.520
  100SBC   C01X70318  -0.161   1.898  15.570
  100SBC   C01W70319  -0.126   2.027  15.587
  100SBC   C01V70320  -0.033   2.091  15.506
  100SBC   C02070321  -0.005   2.227  15.509
  100SBC   C01Z70322  -0.196   2.106  15.683
  100SBC   C02Y70323  -0.156   2.236  15.692
  100SBC   C03970324  -0.218   2.308  15.788
  100SBC   C02W70325  -0.303   2.057  15.765
  100SBC   C01Y70326  -0.267   1.846  15.644
  100SBC   C00U70327   0.033   2.018  15.406
  100SBC   C00S70328   0.114   2.076  15.307
  100SBC   C00T70329   0.136   2.211  15.308
  100SBC   C00R70330   0.165   2.007  15.201
  100SBC   C00Q70331   0.232   2.068  15.097
  100SBC   C00V70332   0.246   2.207  15.102
  100SBC   C02470333   0.301   2.268  14.992
  100SBC   C00X70334   0.343   2.195  14.885
  100SBC   C00P70335   0.264   1.994  14.991
  100SBC   C00O70336   0.216   1.862  14.972
  100SBC   C00K70337   0.012   1.691  15.273
  100SBC   N00070338  -0.063   1.450  15.025
  100SBC   C00L70339  -0.080   1.631  15.346
  100SBC   H00470340  -0.310   0.940  15.315
  100SBC   C02Q70341  -0.321   1.251  15.447
  100SBC   C00E70342  -0.269   1.511  15.485
  100SBC   C03070343  -0.551   1.476  15.723
  100SBC   O00370344  -0.626   1.548  15.816
  100SBC   C02S70345  -0.297   1.713  15.618
  100SBC   C03870346  -0.582   1.672  15.847
  100SBC   C03L70347  -0.646   1.745  15.945
  100SBC   H00870348  -0.724   1.695  16.002
  100SBC   C02V70349  -0.330   1.925  15.738
  100SBC   C03K70350  -0.603   1.877  15.982
  100SBC   C0BK70351  -0.665   1.950  16.084
  100SBC   H00T70352  -0.748   1.901  16.133
  100SBC   C03H70353  -0.369   2.133  15.860
  100SBC   C0BL70354  -0.639   2.084  16.121
  100SBC   C0GU70355  -0.707   2.144  16.230
  100SBC   H01O70356  -0.775   2.091  16.294
  100SBC   C0GT70357  -0.686   2.281  16.259
  100SBC   H01P70358  -0.742   2.330  16.337
  100SBC   C0GS70359  -0.593   2.352  16.188
  100SBC   C0GV70360  -0.561   2.490  16.206
  100SBC   C0GW70361  -0.610   2.587  16.296
  100SBC   H01Q70362  -0.677   2.558  16.376
  100SBC   C0GX70363  -0.564   2.717  16.277
  100SBC   H01R70364  -0.615   2.785  16.344
  100SBC   O00L70365  -0.490   2.761  16.170
  100SBC   C0GQ70366  -0.465   2.527  16.111
  100SBC   C03A70367  -0.324   2.273  15.870
  100SBC   C05L70368  -0.427   2.662  16.092
  100SBC   C04W70369  -0.124   3.126  15.835
  100SBC   C05I70370  -0.108   3.267  15.827
  100SBC   C05O70371  -0.145   3.347  15.937
  100SBC   C05270372  -0.043   3.333  15.720
  100SBC   C04V70373  -0.068   3.057  15.726
  100SBC   C04U70374  -0.001   3.118  15.618
  100SBC   N00970375  -0.212   3.287  16.040
  100SBC   C0GP70376  -0.127   3.485  15.932
  100SBC   C05W70377  -0.076   3.550  15.822
  100SBC   C07D70378   0.039   3.885  15.718
  100SBC   C06J70379   0.091   3.737  15.482
  100SBC   C05P70380  -0.034   3.473  15.715
  100SBC   C05R70381   0.118   3.528  15.384
  100SBC   C04Z70382   0.008   3.257  15.616
  100SBC   C04C70383   0.169   3.311  15.288
  100SBC   C04G70384   0.214   3.099  15.188
  100SBC   C04J70385   0.204   2.823  15.197
  100SBC   C04T70386   0.056   3.044  15.515
  100SBC   N00370387  -0.067   2.914  15.732
  100SBC   C04P70388  -0.163   2.711  15.826
  100SBC   C03D70389  -0.191   2.441  15.793
  100SBC   C02170390  -0.071   2.301  15.603
  100SBC   C03F70391   0.055   2.630  15.533
  100SBC   C02270392   0.082   2.285  15.412
  100SBC   C02A70393   0.159   2.624  15.305
  100SBC   C02370394   0.191   2.278  15.207
  100SBC   C02570395   0.300   2.405  14.984
  100SBC   C02D70396   0.338   2.470  14.865
  100SBC   C02E70397   0.380   2.398  14.755
  100SBC   C02N70398   0.415   2.450  14.628
  100SBC   C04N70399   0.206   2.691  15.197
  100SBC   C02P70400   0.340   2.609  14.859
  100SBC   C04I70401   0.255   2.887  15.081
  100SBC   C04470402   0.332   3.014  14.846
  100SBC   C04370403   0.373   2.668  14.737
  100SBC   C05N70404   0.416   2.591  14.623
  100SBC   C09U70405   0.484   2.802  14.268
  100SBC   C09V70406   0.492   2.868  14.146
  100SBC   C09X70407   0.526   2.808  14.028
  100SBC   C09Y70408   0.507   2.866  13.902
  100SBC   C0A170409   0.456   2.991  13.894
  100SBC   C0A270410   0.434   3.058  14.014
  100SBC   C0A470411   0.393   3.191  14.015
  100SBC   C07170412   0.377   3.267  14.132
  100SBC   C0A570413   0.348   3.400  14.128
  100SBC   C0A970414   0.326   3.456  14.002
  100SBC   C0A870415   0.329   3.381  13.890
  100SBC   C0AP70416   0.313   3.444  13.768
  100SBC   C0BY70417   0.316   3.363  13.656
  100SBC   C0BX70418   0.344   3.230  13.655
  100SBC   C0C270419   0.346   3.162  13.536
  100SBC   C0C370420   0.392   3.028  13.536
  100SBC   C0CT70421   0.442   2.972  13.651
  100SBC   C0C170422   0.293   3.217  13.418
  100SBC   C0C070423   0.265   3.356  13.420
  100SBC   C0A770424   0.374   3.174  13.775
  100SBC   C0BZ70425   0.290   3.423  13.536
  100SBC   C0BO70426   0.256   3.560  13.524
  100SBC   C0BN70427   0.249   3.638  13.637
  100SBC   C0BM70428   0.211   3.768  13.617
  100SBC   C0B970429   0.212   3.845  13.730
  100SBC   C0B870430   0.255   3.790  13.855
  100SBC   C0AD70431   0.277   3.653  13.868
  100SBC   C0AF70432   0.255   3.871  13.968
  100SBC   C0AG70433   0.217   4.011  13.964
  100SBC   C0B770434   0.186   4.058  13.838
  100SBC   C0AE70435   0.278   3.807  14.085
  100SBC   C0AB70436   0.309   3.675  14.100
  100SBC   C0AA70437   0.330   3.620  14.224
  100SBC   C0AJ70438   0.271   3.889  14.193
  100SBC   C0AK70439   0.291   3.831  14.319
  100SBC   C06W70440   0.248   3.919  14.410
  100SBC   C0AI70441   0.234   4.022  14.203
  100SBC   C0BP70442   0.215   3.590  13.399
  100SBC   C0BQ70443   0.167   3.725  13.379
  100SBC   C0BW70444   0.279   3.576  13.756
  100SBC   C0AC70445   0.303   3.593  13.990
  100SBC   C0A670446   0.365   3.249  13.892
  100SBC   C0A370447   0.427   3.046  13.773
  100SBC   C09Z70448   0.533   2.793  13.786
  100SBC   C09W70449   0.453   3.002  14.139
  100SBC   C07270450   0.432   3.075  14.258
  100SBC   C09H70451   0.575   2.679  14.039
  100SBC   C09G70452   0.608   2.613  13.923
  100SBC   C09P70453   0.626   2.487  13.955
  100SBC   C02O70454   0.517   2.331  14.294
  100SBC   C02M70455   0.442   2.366  14.518
  100SBC   C02F70456   0.383   2.261  14.766
  100SBC   C00W70457   0.330   2.059  14.891
  100SBC   C01R70458   0.228   1.789  14.848
  100SBC   C01N70459   0.400   1.959  14.570
  100SBC   C01L70460   0.375   1.890  14.341
  100SBC   C01H70461   0.230   1.603  14.190
  100SBC   C01K70462   0.194   1.656  14.560
  100SBC   C01E70463   0.045   1.432  14.541
  100SBC   C01G70464   0.144   1.479  14.176
  100SBC   C01D70465  -0.032   1.317  14.535
  100SBC   C01A70466  -0.183   1.085  14.503
  100SBC   H00170467  -0.245   1.000  14.478
  100SBC   C01F70468  -0.015   1.246  14.167
  100SBC   C03P70469  -0.064   1.108  13.922
  100SBC   C03T70470   0.051   1.272  13.806
  100SBC   C08I70471   0.136   1.411  13.580
  100SBC   C08J70472   0.171   1.489  13.475
  100SBC   C08L70473   0.276   1.690  13.383
  100SBC   C09370474   0.364   1.913  13.297
  100SBC   C08Z70475   0.453   1.969  13.557
  100SBC   C09T70476   0.527   2.360  13.290
  100SBC   C09S70477   0.595   2.227  13.612
  100SBC   C09Q70478   0.638   2.391  13.850
  100SBC   C09F70479   0.585   2.665  13.797
  100SBC   C09E70480   0.583   2.530  13.458
  100SBC   C0A070481   0.498   2.845  13.659
  100SBC   C0CU70482   0.397   2.953  13.416
  100SBC   C0CR70483   0.325   3.007  13.304
  100SBC   C0CZ70484   0.322   2.922  13.188
  100SBC   C0DA70485   0.545   2.511  13.321
  100SBC   C0D970486   0.575   2.618  12.970
  100SBC   H00V70487   0.677   2.586  12.960
  100SBC   C0CY70488   0.386   2.798  13.183
  100SBC   C0DF70489   0.491   2.683  12.870
  100SBC   C0DE70490   0.471   2.735  12.734
  100SBC   C0GI70491   0.523   2.697  12.601
  100SBC   H01K70492   0.593   2.617  12.582
  100SBC   C0GJ70493   0.487   2.782  12.501
  100SBC   H01J70494   0.529   2.748  12.407
  100SBC   O00I70495   0.411   2.896  12.506
  100SBC   C0GH70496   0.354   2.937  12.625
  100SBC   C0GG70497   0.283   3.061  12.629
  100SBC   O00G70498   0.273   3.121  12.505
  100SBC   C0G870499   0.217   3.245  12.493
  100SBC   C0G970500   0.212   3.294  12.362
  100SBC   H01G70501   0.254   3.243  12.277
  100SBC   C0GA70502   0.153   3.416  12.335
  100SBC   H01H70503   0.147   3.467  12.240
  100SBC   C0GB70504   0.096   3.492  12.437
  100SBC   C0EP70505   0.118   3.451  12.571
  100SBC   C0E870506   0.105   3.554  12.678
  100SBC   C0CK70507   0.120   3.571  12.820
  100SBC   C0CL70508   0.088   3.463  12.891
  100SBC   C0E970509   0.113   3.326  12.846
  100SBC   C0GE70510   0.172   3.258  12.728
  100SBC   C0E770511   0.024   3.662  12.650
  100SBC   C0CJ70512  -0.001   3.745  12.760
  100SBC   C0E670513  -0.085   3.852  12.741
  100SBC   H00Y70514  -0.118   3.918  12.820
  100SBC   C0EO70515  -0.130   3.878  12.610
  100SBC   H01170516  -0.184   3.971  12.595
  100SBC   C0G670517  -0.093   3.802  12.492
  100SBC   C0G570518  -0.124   3.834  12.354
  100SBC   H01F70519  -0.187   3.916  12.322
  100SBC   C0GD70520  -0.072   3.755  12.260
  100SBC   H01I70521  -0.096   3.782  12.158
  100SBC   O00H70522   0.002   3.645  12.277
  100SBC   C0EQ70523  -0.022   3.684  12.515
  100SBC   C0GC70524   0.022   3.609  12.410
  100SBC   C0G770525   0.173   3.330  12.605
  100SBC   C0DD70526   0.376   2.849  12.738
  100SBC   C0GF70527   0.213   3.121  12.742
  100SBC   C0CO70528   0.064   3.259  12.958
  100SBC   C0D070529   0.254   2.979  13.078
  100SBC   C0C470530   0.264   3.138  13.307
  100SBC   C0CN70531   0.036   3.336  13.070
  100SBC   C0CP70532   0.223   3.464  13.333
  100SBC   C0CM70533   0.033   3.471  13.028
  100SBC   C0CI70534   0.071   3.699  12.870
  100SBC   C0CD70535   0.096   4.120  13.100
  100SBC   C0BR70536   0.135   3.769  13.252
  100SBC   C0CS70537   0.179   3.814  13.490
  100SBC   C0B670538   0.183   3.980  13.721
  100SBC   C0CG70539   0.102   4.133  13.343
  100SBC   C0CF70540   0.091   4.193  13.218
  100SBC   C0E570541   0.085   4.318  12.964
  100SBC   C0DT70542   0.032   4.581  12.947
  100SBC   C0DL70543   0.035   4.545  13.309
  100SBC   C0DM70544   0.044   4.629  13.418
  100SBC   C0DY70545   0.006   4.826  13.290
  100SBC   C0DU70546   0.006   4.711  12.943
  100SBC   C0F070547   0.019   4.914  12.807
  100SBC   C0F470548   0.066   5.178  12.777
  100SBC   C0FG70549  -0.053   5.143  13.118
  100SBC   O00B70550   0.097   5.387  12.907
  100SBC   C0FN70551  -0.050   5.236  13.214
  100SBC   C0DZ70552  -0.014   4.966  13.276
  100SBC   O00C70553   0.042   5.064  13.609
  100SBC   C0FR70554   0.055   5.025  13.740
  100SBC   O00D70555   0.076   5.109  13.829
  100SBC   C0E070556   0.031   4.767  13.409
  100SBC   C0E370557   0.061   4.884  13.762
  100SBC   C0AW70558   0.074   4.825  13.885
  100SBC   C0AV70559   0.051   4.895  14.014
  100SBC   H00Q70560   0.016   4.997  14.017
  100SBC   C0AU70561   0.068   4.827  14.136
  100SBC   H00R70562   0.049   4.892  14.221
  100SBC   C0AT70563   0.107   4.692  14.135
  100SBC   C0AS70564   0.136   4.589  14.230
  100SBC   C0AR70565   0.141   4.620  14.372
  100SBC   C0BE70566   0.105   4.625  14.015
  100SBC   C0DN70567   0.064   4.577  13.542
  100SBC   C0AX70568   0.090   4.687  13.892
  100SBC   C0BB70569   0.114   4.384  13.681
  100SBC   C0BD70570   0.130   4.491  14.029
  100SBC   C0B270571   0.152   4.191  13.826
  100SBC   C0AH70572   0.202   4.092  14.080
  100SBC   C0BF70573   0.147   4.457  14.166
  100SBC   C0AL70574   0.219   4.045  14.345
  100SBC   C07U70575   0.160   4.377  14.467
  100SBC   C0AQ70576   0.141   4.517  14.473
  100SBC   C0BG70577   0.117   4.745  14.442
  100SBC   C0FY70578   0.210   4.819  14.771
  100SBC   C0BJ70579   0.191   4.868  14.437
  100SBC   H00S70580   0.241   4.907  14.349
  100SBC   C0FZ70581   0.290   4.935  14.764
  100SBC   C07S70582   0.250   4.709  14.857
  100SBC   C0G170583   0.518   4.885  15.044
  100SBC   C07K70584   0.547   4.554  15.223
  100SBC   C07H70585   0.336   4.496  15.029
  100SBC   C06B70586   0.270   4.258  15.283
  100SBC   C06N70587   0.233   4.075  15.145
  100SBC   C06670588   0.228   4.336  14.852
  100SBC   C06270589   0.192   4.071  14.677
  100SBC   C05Y70590   0.218   3.860  15.004
  100SBC   C06170591   0.181   3.936  14.646
  100SBC   C05H70592   0.319   3.627  14.781
  100SBC   C06V70593   0.245   3.874  14.541
  100SBC   C06Y70594   0.321   3.699  14.339
  100SBC   C05C70595   0.366   3.435  14.601
  100SBC   C06Z70596   0.352   3.483  14.238
  100SBC   C07070597   0.405   3.210  14.253
  100SBC   C05B70598   0.376   3.293  14.605
  100SBC   C05770599   0.394   3.008  14.613
  100SBC   C05970600   0.432   3.007  14.382
  101SBC   C05870601   2.107   0.575  10.249
  101SBC   C05A70602   2.119   0.713  10.269
  101SBC   C06Q70603   2.025   0.784  10.345
  101SBC   C06R70604   2.043   0.918  10.373
  101SBC   C06S70605   2.158   0.991  10.330
  101SBC   C06T70606   2.169   1.125  10.371
  101SBC   C06U70607   2.280   1.220  10.355
  101SBC   C06X70608   2.392   1.221  10.274
  101SBC   C06070609   2.480   1.329  10.313
  101SBC   C05Z70610   2.568   1.412  10.229
  101SBC   C06870611   2.550   1.547  10.292
  101SBC   C06770612   2.636   1.669  10.278
  101SBC   C06970613   2.757   1.656  10.203
  101SBC   C06A70614   2.857   1.761  10.175
  101SBC   C07370615   2.849   1.899  10.145
  101SBC   C07P70616   2.916   1.956  10.032
  101SBC   C07O70617   2.962   1.886   9.916
  101SBC   H00D70618   2.942   1.781   9.900
  101SBC   C07N70619   3.049   1.948   9.823
  101SBC   H00E70620   3.101   1.892   9.747
  101SBC   C07M70621   3.070   2.086   9.827
  101SBC   H00F70622   3.133   2.128   9.749
  101SBC   C07L70623   2.999   2.162   9.920
  101SBC   C07Q70624   3.001   2.304   9.921
  101SBC   H00G70625   3.060   2.350   9.844
  101SBC   O00F70626   2.933   2.389  10.006
  101SBC   C07J70627   2.867   2.322  10.105
  101SBC   C07I70628   2.862   2.178  10.114
  101SBC   N00470629   2.795   2.122  10.226
  101SBC   C07R70630   2.753   2.214  10.326
  101SBC   C07T70631   2.761   2.356  10.309
  101SBC   C0FX70632   2.699   2.445  10.396
  101SBC   C0FW70633   2.682   2.575  10.378
  101SBC   C0G070634   2.749   2.625  10.260
  101SBC   C0G270635   2.745   2.760  10.230
  101SBC   H01E70636   2.793   2.801  10.143
  101SBC   C0G370637   2.678   2.849  10.311
  101SBC   H01C70638   2.678   2.956  10.298
  101SBC   C0G470639   2.611   2.799  10.423
  101SBC   H01D70640   2.563   2.871  10.486
  101SBC   O00E70641   2.821   2.540  10.178
  101SBC   C0FV70642   2.607   2.659  10.457
  101SBC   C0FU70643   2.532   2.596  10.564
  101SBC   H01B70644   2.451   2.650  10.611
  101SBC   C0FT70645   2.559   2.460  10.591
  101SBC   C0FS70646   2.512   2.355  10.676
  101SBC   C0BI70647   2.588   2.236  10.662
  101SBC   C0BH70648   2.508   2.121  10.694
  101SBC   C07F70649   2.481   2.008  10.617
  101SBC   C07E70650   2.553   1.956  10.508
  101SBC   C07G70651   2.648   2.021  10.433
  101SBC   C07470652   2.679   1.933  10.331
  101SBC   C06570653   2.524   1.830  10.452
  101SBC   C06470654   2.406   1.771  10.497
  101SBC   C06370655   2.361   1.640  10.474
  101SBC   C07570656   2.240   1.630  10.562
  101SBC   C0AM70657   2.206   1.744  10.632
  101SBC   C0AN70658   2.087   1.779  10.721
  101SBC   C0AO70659   1.965   1.696  10.750
  101SBC   C0B170660   1.860   1.746  10.836
  101SBC   C0B070661   1.868   1.868  10.897
  101SBC   C0AZ70662   1.772   1.938  10.966
  101SBC   C0AY70663   1.785   2.070  11.007
  101SBC   N00770664   1.674   2.142  11.055
  101SBC   C0E270665   1.687   2.281  11.081
  101SBC   C0E170666   1.574   2.354  11.117
  101SBC   C0E470667   1.586   2.491  11.126
  101SBC   C0FF70668   1.481   2.572  11.171
  101SBC   C0FJ70669   1.470   2.722  11.187
  101SBC   C0FK70670   1.524   2.802  11.081
  101SBC   H01670671   1.600   2.777  11.009
  101SBC   C0FL70672   1.433   2.912  11.072
  101SBC   H01770673   1.427   2.981  10.989
  101SBC   C0FM70674   1.327   2.896  11.166
  101SBC   C0FH70675   1.183   2.910  11.175
  101SBC   C0FI70676   1.139   2.795  11.240
  101SBC   C0F370677   1.016   2.738  11.209
  101SBC   C0F270678   1.015   2.603  11.234
  101SBC   C0DW70679   1.117   2.514  11.236
  101SBC   C0FE70680   1.245   2.568  11.249
  101SBC   C0DV70681   1.108   2.380  11.207
  101SBC   C0DX70682   1.219   2.305  11.175
  101SBC   C0DK70683   1.206   2.176  11.135
  101SBC   C0DJ70684   1.079   2.123  11.122
  101SBC   C0DI70685   1.067   1.990  11.086
  101SBC   C0DH70686   1.177   1.907  11.079
  101SBC   C0DG70687   1.305   1.965  11.084
  101SBC   C0BV70688   1.417   1.882  11.049
  101SBC   C0BC70689   1.543   1.943  11.047
  101SBC   C0BA70690   1.399   1.746  11.014
  101SBC   C0B470691   1.510   1.680  10.963
  101SBC   C0B370692   1.632   1.746  10.941
  101SBC   C0B570693   1.486   1.556  10.907
  101SBC   C0BU70694   1.360   1.492  10.933
  101SBC   C0BT70695   1.252   1.559  10.984
  101SBC   C0BS70696   1.124   1.494  10.990
  101SBC   C0CC70697   1.015   1.576  11.024
  101SBC   C0CB70698   0.886   1.525  11.027
  101SBC   C0CH70699   0.779   1.613  11.016
  101SBC   C0DO70700   0.790   1.749  11.035
  101SBC   C0DP70701   0.679   1.834  11.025
  101SBC   C0EA70702   0.545   1.782  11.003
  101SBC   H01270703   0.532   1.675  11.002
  101SBC   O00970704   0.443   1.860  10.976
  101SBC   C0EH70705   0.460   1.995  10.991
  101SBC   C0EG70706   0.355   2.085  10.957
  101SBC   C0EJ70707   0.219   2.064  10.915
  101SBC   H01070708   0.162   1.972  10.904
  101SBC   C0EK70709   0.158   2.193  10.890
  101SBC   H00Z70710   0.060   2.207  10.846
  101SBC   C0EL70711   0.263   2.289  10.909
  101SBC   C0EM70712   0.259   2.432  10.909
  101SBC   C0EW70713   0.152   2.519  10.879
  101SBC   H01370714   0.062   2.467  10.852
  101SBC   C0EX70715   0.164   2.662  10.880
  101SBC   H01470716   0.082   2.728  10.856
  101SBC   C0F170717   0.298   2.713  10.910
  101SBC   C0EU70718   0.404   2.624  10.936
  101SBC   C0ET70719   0.537   2.655  10.985
  101SBC   C0ES70720   0.600   2.531  11.004
  101SBC   C0EE70721   0.506   2.428  10.981
  101SBC   C0ED70722   0.496   2.283  10.995
  101SBC   C0EC70723   0.603   2.194  11.031
  101SBC   C0EB70724   0.725   2.238  11.082
  101SBC   C0EN70725   0.752   2.378  11.118
  101SBC   C0ER70726   0.870   2.406  11.187
  101SBC   C0DS70727   0.839   2.152  11.109
  101SBC   C0DR70728   0.825   2.019  11.070
  101SBC   C0EY70729   0.701   2.507  11.089
  101SBC   C0EZ70730   0.791   2.614  11.123
  101SBC   C0F570731   0.808   2.757  11.096
  101SBC   C0F670732   0.706   2.838  11.038
  101SBC   N00870733   0.729   2.983  11.029
  101SBC   C0F770734   0.862   3.036  11.053
  101SBC   C0FQ70735   0.890   3.172  11.027
  101SBC   H01870736   0.988   3.211  11.049
  101SBC   C0FP70737   0.789   3.253  10.977
  101SBC   H01970738   0.811   3.356  10.958
  101SBC   C0FO70739   0.660   3.206  10.961
  101SBC   H01A70740   0.589   3.283  10.934
  101SBC   C0F870741   0.959   2.943  11.099
  101SBC   C0F970742   0.627   3.067  10.986
  101SBC   C0FA70743   0.497   3.026  10.945
  101SBC   H01570744   0.423   3.101  10.921
  101SBC   C0FB70745   0.473   2.885  10.957
  101SBC   C0FD70746   0.576   2.795  10.996
  101SBC   C0FC70747   0.337   2.849  10.912
  101SBC   O00A70748   0.244   2.931  10.894
  101SBC   C0EV70749   0.384   2.488  10.946
  101SBC   C0EF70750   0.373   2.221  10.955
  101SBC   C0EI70751   0.586   2.057  11.027
  101SBC   C0DQ70752   0.698   1.971  11.045
  101SBC   C0CE70753   0.920   1.797  11.054
  101SBC   H00U70754   0.692   1.564  10.975
  101SBC   C0CA70755   0.869   1.385  11.036
  101SBC   C0C970756   0.981   1.293  10.999
  101SBC   C0C870757   0.946   1.149  10.996
  101SBC   C0C770758   1.014   1.036  10.938
  101SBC   C0C670759   0.946   0.912  10.946
  101SBC   C0C570760   0.935   0.789  10.867
  101SBC   C0CQ70761   0.811   0.713  10.882
  101SBC   C0D170762   0.702   0.785  10.928
  101SBC   C0D870763   0.596   0.761  10.845
  101SBC   C0D770764   0.624   0.639  10.779
  101SBC   C0D670765   0.549   0.572  10.680
  101SBC   C0D570766   0.587   0.447  10.617
  101SBC   C0D470767   0.710   0.377  10.607
  101SBC   C0D370768   0.715   0.316  10.475
  101SBC   C0CX70769   0.853   0.298  10.434
  101SBC   C0CW70770   0.926   0.392  10.525
  101SBC   C0CV70771   1.071   0.425  10.556
  101SBC   C0D270772   1.175   0.341  10.519
  101SBC   C09D70773   1.163   0.204  10.487
  101SBC   C09C70774   1.283   0.125  10.470
  101SBC   C09B70775   1.297  -0.008  10.423
  101SBC   C09A70776   1.171  -0.059  10.384
  101SBC   C09970777   1.055   0.006  10.406
  101SBC   C09870778   0.955  -0.058  10.333
  101SBC   C08Y70779   1.020  -0.166  10.258
  101SBC   C08X70780   0.968  -0.245  10.149
  101SBC   C08W70781   0.833  -0.225  10.101
  101SBC   C08U70782   0.739  -0.117  10.133
  101SBC   C08V70783   0.759   0.017  10.198
  101SBC   C0DC70784   0.624   0.066  10.213
  101SBC   H00W70785   0.604   0.158  10.267
  101SBC   C0DB70786   0.525  -0.026  10.157
  101SBC   H00X70787   0.419  -0.008  10.147
  101SBC   C08T70788   0.603  -0.140  10.114
  101SBC   C08S70789   0.547  -0.260  10.061
  101SBC   H00N70790   0.442  -0.283  10.062
  101SBC   C08R70791   0.640  -0.354  10.003
  101SBC   C08Q70792   0.598  -0.470   9.934
  101SBC   H00O70793   0.492  -0.486   9.924
  101SBC   C08P70794   0.678  -0.570   9.874
  101SBC   C08O70795   0.636  -0.696   9.818
  101SBC   H00P70796   0.532  -0.722   9.813
  101SBC   C08N70797   0.731  -0.776   9.751
  101SBC   C08M70798   0.681  -0.892   9.677
  101SBC   O00870799   0.563  -0.922   9.682
  101SBC   O00770800   0.771  -0.949   9.588
  101SBC   C08H70801   0.911  -0.920   9.583
  101SBC   C08G70802   1.010  -1.009   9.513
  101SBC   C03V70803   0.986  -1.126   9.439
  101SBC   H00970804   0.886  -1.163   9.422
  101SBC   C03U70805   1.095  -1.202   9.393
  101SBC   C03W70806   1.085  -1.331   9.328
  101SBC   H00A70807   0.990  -1.364   9.288
  101SBC   C03X70808   1.191  -1.411   9.309
  101SBC   H00B70809   1.184  -1.512   9.271
  101SBC   O00570810   1.320  -1.369   9.325
  101SBC   C03O70811   1.333  -1.246   9.386
  101SBC   C03N70812   1.459  -1.195   9.409
  101SBC   O00070813   1.556  -1.270   9.357
  101SBC   C01970814   1.686  -1.223   9.363
  101SBC   C01870815   1.717  -1.104   9.431
  101SBC   C01770816   1.614  -1.033   9.495
  101SBC   C01670817   1.643  -0.923   9.574
  101SBC   C01570818   1.778  -0.887   9.577
  101SBC   C01470819   1.816  -0.786   9.664
  101SBC   C01370820   1.724  -0.722   9.751
  101SBC   C01270821   1.809  -0.631   9.831
  101SBC   C01170822   1.942  -0.652   9.781
  101SBC   C01070823   2.047  -0.601   9.846
  101SBC   C00Z70824   2.178  -0.600   9.804
  101SBC   C00Y70825   2.238  -0.495   9.883
  101SBC   C01O70826   2.146  -0.443   9.972
  101SBC   C01P70827   2.150  -0.308  10.008
  101SBC   C02L70828   2.041  -0.248  10.055
  101SBC   C02K70829   1.923  -0.331  10.058
  101SBC   C01M70830   1.907  -0.454   9.985
  101SBC   C02J70831   1.819  -0.275  10.128
  101SBC   C02I70832   1.692  -0.336  10.146
  101SBC   C02H70833   1.630  -0.446  10.094
  101SBC   C01Q70834   1.670  -0.533   9.995
  101SBC   C02G70835   1.552  -0.604   9.949
  101SBC   C08970836   1.444  -0.565  10.030
  101SBC   C08870837   1.327  -0.568   9.949
  101SBC   C08770838   1.368  -0.653   9.836
  101SBC   C08670839   1.279  -0.709   9.741
  101SBC   C03S70840   1.297  -0.822   9.659
  101SBC   N00670841   1.174  -0.874   9.622
  101SBC   C08F70842   1.082  -0.795   9.678
  101SBC   C01J70843   1.405  -0.892   9.613
  101SBC   C03R70844   1.382  -1.008   9.531
  101SBC   C03Q70845   1.250  -1.052   9.498
  101SBC   C08E70846   1.137  -0.693   9.753
  101SBC   C08D70847   1.048  -0.600   9.822
  101SBC   C08K70848   0.911  -0.629   9.811
  101SBC   C08C70849   1.084  -0.506   9.914
  101SBC   C09170850   0.992  -0.416   9.975
  101SBC   C09270851   0.855  -0.430   9.951
  101SBC   C08B70852   1.210  -0.485   9.980
  101SBC   C09070853   1.182  -0.393  10.094
  101SBC   C09470854   1.273  -0.365  10.206
  101SBC   C09570855   1.261  -0.245  10.280
  101SBC   C09R70856   1.390  -0.199  10.321
  101SBC   C09770857   1.486  -0.273  10.258
  101SBC   C09670858   1.417  -0.378  10.196
  101SBC   C01I70859   1.508  -0.682   9.838
  101SBC   C08A70860   1.491  -0.465  10.118
  101SBC   C09L70861   1.619  -0.248  10.231
  101SBC   C09K70862   1.702  -0.137  10.262
  101SBC   C09J70863   1.669  -0.026  10.346
  101SBC   C09I70864   1.734   0.099  10.346
  101SBC   C09O70865   1.855   0.159  10.291
  101SBC   C09N70866   1.953   0.086  10.220
  101SBC   C09M70867   1.937  -0.050  10.169
  101SBC   C06O70868   2.065   0.158  10.177
  101SBC   C05M70869   2.076   0.299  10.197
  101SBC   C06P70870   1.981   0.369  10.265
  101SBC   C04270871   2.185   0.372  10.148
  101SBC   C04170872   2.280   0.309  10.066
  101SBC   C04070873   2.379   0.385  10.002
  101SBC   C03Z70874   2.482   0.324   9.931
  101SBC   C03Y70875   2.478   0.191   9.915
  101SBC   C02770876   2.579   0.132   9.840
  101SBC   C02670877   2.581  -0.008   9.826
  101SBC   C02870878   2.668  -0.065   9.735
  101SBC   C02970879   2.771   0.011   9.681
  101SBC   C02B70880   2.853  -0.045   9.593
  101SBC   C02C70881   2.948   0.034   9.529
  101SBC   C02X70882   3.030  -0.022   9.432
  101SBC   C03E70883   3.127   0.057   9.374
  101SBC   C03G70884   3.145   0.190   9.398
  101SBC   C04Q70885   3.069   0.247   9.495
  101SBC   C04R70886   3.078   0.377   9.523
  101SBC   C04S70887   2.985   0.439   9.604
  101SBC   C04L70888   2.882   0.359   9.664
  101SBC   C04M70889   2.879   0.223   9.651
  101SBC   C04K70890   2.780   0.422   9.735
  101SBC   C04F70891   2.789   0.554   9.759
  101SBC   C04E70892   2.887   0.630   9.699
  101SBC   C04D70893   2.899   0.767   9.727
  101SBC   C05070894   3.000   0.843   9.672
  101SBC   C05170895   3.006   0.979   9.704
  101SBC   C05Q70896   3.115   1.050   9.664
  101SBC   C05V70897   3.139   1.179   9.715
  101SBC   N00570898   3.255   1.246   9.678
  101SBC   C07V70899   3.339   1.187   9.584
  101SBC   C08270900   3.453   1.264   9.541
  101SBC   C08170901   3.487   1.385   9.599
  101SBC   C07C70902   3.414   1.428   9.701
  101SBC   C07B70903   3.449   1.554   9.764
  101SBC   C08070904   3.571   1.615   9.736
  101SBC   C07Z70905   3.610   1.723   9.818
  101SBC   H00L70906   3.700   1.778   9.794
  101SBC   C07970907   3.538   1.773   9.928
  101SBC   C07870908   3.413   1.706   9.957
  101SBC   C07770909   3.326   1.757  10.054
  101SBC   C07X70910   3.370   1.868  10.131
  101SBC   H00I70911   3.315   1.906  10.216
  101SBC   C07Y70912   3.493   1.930  10.110
  101SBC   H00H70913   3.517   2.007  10.181
  101SBC   C07670914   3.199   1.704  10.062
  101SBC   C06C70915   3.103   1.761  10.152
  101SBC   H00C70916   3.121   1.851  10.209
  101SBC   C06F70917   3.163   1.591   9.996
  101SBC   C06E70918   3.042   1.523  10.021
  101SBC   C06G70919   2.995   1.412   9.963
  101SBC   C06H70920   3.086   1.357   9.868
  101SBC   C06I70921   3.209   1.419   9.841
  101SBC   C06L70922   2.871   1.350   9.998
  101SBC   C06M70923   2.778   1.413  10.093
  101SBC   C06K70924   2.844   1.227   9.940
  101SBC   C05S70925   2.934   1.171   9.843
  101SBC   C05U70926   2.730   1.154   9.980
  101SBC   C05X70927   2.635   1.212  10.072
  101SBC   C05G70928   2.527   1.117  10.098
  101SBC   C05F70929   2.521   0.997  10.040
  101SBC   C05E70930   2.415   0.922  10.085
  101SBC   C04870931   2.394   0.787  10.053
  101SBC   C05670932   2.300   0.720  10.120
  101SBC   C04570933   2.297   0.588  10.106
  101SBC   C04770934   2.483   0.736   9.970
  101SBC   C04970935   2.596   0.814   9.923
  101SBC   C04B70936   2.694   0.753   9.845
  101SBC   C04670937   2.482   0.598   9.950
  101SBC   C04H70938   2.581   0.544   9.879
  101SBC   C05D70939   2.344   0.991  10.178
  101SBC   C04A70940   2.611   0.945   9.956
  101SBC   C05T70941   2.713   1.025   9.919
  101SBC   C05570942   2.809   0.962   9.836
  101SBC   C06D70943   2.956   1.581  10.110
  101SBC   C07W70944   3.250   1.542   9.903
  101SBC   C08570945   3.568   1.890  10.000
  101SBC   H00M70946   3.660   1.936   9.966
  101SBC   C08470947   3.640   1.571   9.625
  101SBC   H00J70948   3.730   1.628   9.609
  101SBC   C07A70949   3.377   1.597   9.880
  101SBC   C08370950   3.602   1.453   9.559
  101SBC   H00K70951   3.664   1.411   9.481
  101SBC   O00K70952   3.539   1.214   9.445
  101SBC   C0GO70953   3.516   1.085   9.395
  101SBC   C0GN70954   3.610   1.035   9.302
  101SBC   H01L70955   3.681   1.103   9.258
  101SBC   C0GM70956   3.582   0.907   9.246
  101SBC   C0GL70957   3.659   0.864   9.140
  101SBC   H01M70958   3.738   0.922   9.095
  101SBC   O00J70959   3.642   0.736   9.091
  101SBC   C0GK70960   3.538   0.664   9.145
  101SBC   H01N70961   3.528   0.570   9.092
  101SBC   C05K70962   3.463   0.700   9.254
  101SBC   C05J70963   3.372   0.610   9.317
  101SBC   C04Y70964   3.354   0.471   9.296
  101SBC   C04X70965   3.253   0.389   9.357
  101SBC   O00670966   3.430   0.405   9.200
  101SBC   C05370967   3.400   0.285   9.145
  101SBC   C04O70968   3.311   0.201   9.214
  101SBC   C03C70969   3.283   0.064   9.186
  101SBC   C03B70970   3.312  -0.023   9.079
  101SBC   C05470971   3.387   0.007   8.970
  101SBC   C0GR70972   3.419  -0.098   8.876
  101SBC   C03M70973   3.376  -0.241   8.841
  101SBC   C03I70974   3.262  -0.305   8.901
  101SBC   C03J70975   3.225  -0.427   8.846
  101SBC   N00270976   3.113  -0.503   8.904
  101SBC   C02U70977   3.066  -0.623   8.847
  101SBC   C02T70978   2.962  -0.697   8.900
  101SBC   C02Z70979   2.916  -0.809   8.839
  101SBC   N00170980   2.801  -0.881   8.891
  101SBC   C02R70981   2.752  -0.996   8.824
  101SBC   C03270982   2.819  -1.048   8.710
  101SBC   C03170983   2.928  -0.969   8.656
  101SBC   H00770984   2.977  -1.008   8.568
  101SBC   C03370985   2.767  -1.172   8.659
  101SBC   H00370986   2.822  -1.232   8.588
  101SBC   O00470987   2.650  -1.227   8.701
  101SBC   C03470988   2.578  -1.164   8.796
  101SBC   C03570989   2.443  -1.199   8.816
  101SBC   C03670990   2.368  -1.128   8.906
  101SBC   H00570991   2.264  -1.149   8.926
  101SBC   C03770992   2.427  -1.021   8.982
  101SBC   H00670993   2.358  -0.965   9.043
  101SBC   C00D70994   2.558  -0.992   8.968
  101SBC   C00C70995   2.625  -0.908   9.056
  101SBC   C00B70996   2.577  -0.876   9.195
  101SBC   C00A70997   2.464  -0.897   9.297
  101SBC   C00970998   2.484  -0.794   9.391
  101SBC   C00870999   2.401  -0.749   9.491
  101SBC   C00771000   2.279  -0.804   9.505
  101SBC   C00671001   2.192  -0.754   9.603
  101SBC   C00571002   2.061  -0.801   9.594
  101SBC   C00471003   2.018  -0.905   9.512
  101SBC   C00371004   2.113  -0.968   9.424
  101SBC   C00271005   2.078  -1.079   9.351
  101SBC   C01C71006   1.946  -1.130   9.358
  101SBC   C01B71007   1.905  -1.246   9.279
  101SBC   H00071008   1.964  -1.310   9.215
  101SBC   C00171009   2.179  -1.143   9.275
  101SBC   C00071010   2.307  -1.089   9.276
  101SBC   C01U71011   2.386  -1.186   9.215
  101SBC   H00271012   2.492  -1.189   9.194
  101SBC   C01T71013   2.295  -1.296   9.168
  101SBC   O00271014   2.316  -1.408   9.122
  101SBC   O00171015   2.170  -1.264   9.213
  101SBC   C01S71016   2.240  -0.909   9.416
  101SBC   C00N71017   2.450  -0.639   9.568
  101SBC   C00M71018   2.577  -0.582   9.549
  101SBC   C00J71019   2.651  -0.619   9.439
  101SBC   C00I71020   2.755  -0.547   9.386
  101SBC   C00H71021   2.813  -0.587   9.265
  101SBC   C00G71022   2.767  -0.703   9.200
  101SBC   C00F71023   2.807  -0.738   9.074
  101SBC   C01X71024   2.900  -0.503   9.201
  101SBC   C01W71025   2.938  -0.388   9.267
  101SBC   C01V71026   2.878  -0.349   9.389
  101SBC   C02071027   2.904  -0.223   9.443
  101SBC   C01Z71028   3.035  -0.310   9.207
  101SBC   C02Y71029   3.069  -0.197   9.276
  101SBC   C03971030   3.165  -0.119   9.214
  101SBC   C02W71031   3.098  -0.344   9.084
  101SBC   C01Y71032   2.954  -0.541   9.080
  101SBC   C00U71033   2.787  -0.429   9.450
  101SBC   C00S71034   2.717  -0.385   9.561
  101SBC   C00T71035   2.742  -0.257   9.607
  101SBC   C00R71036   2.609  -0.460   9.603
  101SBC   C00Q71037   2.528  -0.404   9.704
  101SBC   C00V71038   2.549  -0.278   9.752
  101SBC   C02471039   2.464  -0.218   9.848
  101SBC   C00X71040   2.361  -0.298   9.891
  101SBC   C00P71041   2.416  -0.477   9.746
  101SBC   C00O71042   2.374  -0.591   9.671
  101SBC   C00K71043   2.609  -0.732   9.372
  101SBC   N00071044   2.337  -0.963   9.324
  101SBC   C00L71045   2.661  -0.778   9.251
  101SBC   H00471046   2.397  -1.277   8.756
  101SBC   C02Q71047   2.627  -1.047   8.867
  101SBC   C00E71048   2.745  -0.844   9.012
  101SBC   C03071049   2.975  -0.857   8.718
  101SBC   O00371050   3.074  -0.786   8.659
  101SBC   C02S71051   2.908  -0.661   9.022
  101SBC   C03871052   3.123  -0.671   8.726
  101SBC   C03L71053   3.229  -0.596   8.671
  101SBC   H00871054   3.263  -0.635   8.577
  101SBC   C02V71055   3.051  -0.460   9.024
  101SBC   C03K71056   3.286  -0.482   8.730
  101SBC   C0BK71057   3.402  -0.419   8.685
  101SBC   H00T71058   3.460  -0.451   8.600
  101SBC   C03H71059   3.197  -0.264   9.020
  101SBC   C0BL71060   3.449  -0.299   8.737
  101SBC   C0GU71061   3.557  -0.233   8.670
  101SBC   H01O71062   3.602  -0.288   8.589
  101SBC   C0GT71063   3.601  -0.107   8.704
  101SBC   H01P71064   3.689  -0.071   8.653
  101SBC   C0GS71065   3.523  -0.038   8.797
  101SBC   C0GV71066   3.545   0.092   8.839
  101SBC   C0GW71067   3.641   0.190   8.805
  101SBC   H01Q71068   3.698   0.170   8.716
  101SBC   C0GX71069   3.646   0.304   8.878
  101SBC   H01R71070   3.714   0.384   8.851
  101SBC   O00L71071   3.579   0.330   8.995
  101SBC   C0GQ71072   3.460   0.121   8.951
  101SBC   C03A71073   3.231  -0.141   9.092
  101SBC   C05L71074   3.472   0.246   9.030
  101SBC   C04W71075   3.284   0.665   9.412
  101SBC   C05I71076   3.292   0.800   9.448
  101SBC   C05O71077   3.384   0.880   9.394
  101SBC   C05271078   3.197   0.854   9.537
  101SBC   C04V71079   3.187   0.589   9.478
  101SBC   C04U71080   3.090   0.645   9.565
  101SBC   N00971081   3.477   0.828   9.303
  101SBC   C0GP71082   3.398   1.013   9.432
  101SBC   C05W71083   3.312   1.062   9.529
  101SBC   C07D71084   3.294   1.368   9.742
  101SBC   C06J71085   3.050   1.237   9.810
  101SBC   C05P71086   3.204   0.988   9.573
  101SBC   C05R71087   2.917   1.040   9.793
  101SBC   C04Z71088   3.095   0.780   9.588
  101SBC   C04C71089   2.800   0.826   9.801
  101SBC   C04G71090   2.686   0.620   9.825
  101SBC   C04J71091   2.682   0.344   9.793
  101SBC   C04T71092   2.983   0.570   9.620
  101SBC   N00371093   3.178   0.451   9.453
  101SBC   C04P71094   3.238   0.255   9.322
  101SBC   C03D71095   3.189   0.002   9.267
  101SBC   C02171096   3.002  -0.148   9.387
  101SBC   C03F71097   2.964   0.168   9.554
  101SBC   C02271098   2.838  -0.177   9.553
  101SBC   C02A71099   2.781   0.147   9.711
  101SBC   C02371100   2.655  -0.200   9.702
  101SBC   C02571101   2.474  -0.086   9.880
  101SBC   C02D71102   2.367  -0.020   9.950
  101SBC   C02E71103   2.262  -0.099   9.994
  101SBC   C02N71104   2.158  -0.039  10.070
  101SBC   C04N71105   2.680   0.205   9.788
  101SBC   C02P71106   2.369   0.117   9.967
  101SBC   C04I71107   2.576   0.403   9.866
  101SBC   C04471108   2.387   0.525  10.019
  101SBC   C04371109   2.264   0.176  10.043
  101SBC   C05N71110   2.163   0.096  10.098
  101SBC   C09U71111   1.866   0.300  10.308
  101SBC   C09V71112   1.764   0.378  10.365
  101SBC   C09X71113   1.647   0.324  10.399
  101SBC   C09Y71114   1.537   0.388  10.450
  101SBC   C0A171115   1.548   0.521  10.467
  101SBC   C0A271116   1.672   0.587  10.435
  101SBC   C0A471117   1.689   0.718  10.465
  101SBC   C07171118   1.811   0.784  10.442
  101SBC   C0A571119   1.823   0.916  10.480
  101SBC   C0A971120   1.725   0.984  10.542
  101SBC   C0A871121   1.611   0.914  10.577
  101SBC   C0AP71122   1.515   0.977  10.651
  101SBC   C0BY71123   1.397   0.913  10.670
  101SBC   C0BX71124   1.367   0.787  10.634
  101SBC   C0C271125   1.243   0.728  10.662
  101SBC   C0C371126   1.219   0.603  10.613
  101SBC   C0CT71127   1.321   0.534  10.550
  101SBC   C0C171128   1.147   0.792  10.740
  101SBC   C0C071129   1.179   0.930  10.781
  101SBC   C0A771130   1.466   0.724  10.560
  101SBC   C0BZ71131   1.300   0.979  10.743
  101SBC   C0BO71132   1.325   1.108  10.793
  101SBC   C0BN71133   1.447   1.175  10.773
  101SBC   C0BM71134   1.457   1.295  10.824
  101SBC   C0B971135   1.575   1.364  10.802
  101SBC   C0B871136   1.672   1.300  10.720
  101SBC   C0AD71137   1.655   1.173  10.668
  101SBC   C0AF71138   1.783   1.372  10.686
  101SBC   C0AG71139   1.813   1.498  10.733
  101SBC   C0B771140   1.712   1.564  10.813
  101SBC   C0AE71141   1.863   1.307  10.600
  101SBC   C0AB71142   1.855   1.173  10.555
  101SBC   C0AA71143   1.955   1.114  10.482
  101SBC   C0AJ71144   1.981   1.373  10.565
  101SBC   C0AK71145   2.078   1.311  10.492
  101SBC   C06W71146   2.184   1.394  10.492
  101SBC   C0AI71147   2.021   1.502  10.606
  101SBC   C0BP71148   1.215   1.155  10.863
  101SBC   C0BQ71149   1.225   1.292  10.910
  101SBC   C0BW71150   1.537   1.108  10.694
  101SBC   C0AC71151   1.742   1.109  10.593
  101SBC   C0A671152   1.589   0.784  10.531
  101SBC   C0A371153   1.445   0.593  10.530
  101SBC   C09Z71154   1.415   0.326  10.479
  101SBC   C09W71155   1.777   0.515  10.387
  101SBC   C07271156   1.897   0.579  10.351
  101SBC   C09H71157   1.645   0.187  10.401
  101SBC   C09G71158   1.524   0.130  10.432
  101SBC   C09P71159   1.537  -0.000  10.395
  101SBC   C02O71160   1.829  -0.144  10.196
  101SBC   C02M71161   2.043  -0.112  10.096
  101SBC   C02F71162   2.260  -0.237   9.970
  101SBC   C00W71163   2.344  -0.422   9.842
  101SBC   C01R71164   2.247  -0.656   9.691
  101SBC   C01N71165   2.032  -0.501   9.941
  101SBC   C01L71166   1.796  -0.533   9.940
  101SBC   C01H71167   1.584  -0.751   9.745
  101SBC   C01K71168   1.950  -0.740   9.674
  101SBC   C01E71169   1.884  -0.955   9.514
  101SBC   C01G71170   1.539  -0.853   9.642
  101SBC   C01D71171   1.853  -1.063   9.437
  101SBC   C01A71172   1.781  -1.291   9.287
  101SBC   H00171173   1.758  -1.383   9.235
  101SBC   C01F71174   1.485  -1.077   9.481
  101SBC   C03P71175   1.225  -1.163   9.419
  101SBC   C03T71176   1.141  -0.985   9.545
  101SBC   C08I71177   0.952  -0.816   9.668
  101SBC   C08J71178   0.864  -0.740   9.744
  101SBC   C08L71179   0.821  -0.543   9.877
  101SBC   C09371180   0.776  -0.333  10.017
  101SBC   C08Z71181   1.046  -0.340  10.078
  101SBC   C09T71182   0.867   0.049  10.298
  101SBC   C09S71183   1.150  -0.166  10.303
  101SBC   C09Q71184   1.413  -0.073  10.384
  101SBC   C09F71185   1.401   0.191  10.467
  101SBC   C09E71186   1.040   0.137  10.437
  101SBC   C0A071187   1.301   0.399  10.518
  101SBC   C0CU71188   1.092   0.548  10.620
  101SBC   C0CR71189   0.991   0.610  10.697
  101SBC   C0CZ71190   0.865   0.559  10.704
  101SBC   C0DA71191   0.908   0.168  10.389
  101SBC   C0D971192   0.599   0.371  10.402
  101SBC   H00V71193   0.589   0.382  10.295
  101SBC   C0CY71194   0.834   0.445  10.621
  101SBC   C0DF71195   0.511   0.435  10.497
  101SBC   C0DE71196   0.411   0.537  10.499
  101SBC   C0GI71197   0.295   0.566  10.423
  101SBC   H01K71198   0.271   0.500  10.341
  101SBC   C0GJ71199   0.209   0.655  10.475
  101SBC   H01J71200   0.123   0.679  10.416
  101SBC   O00I71201   0.227   0.740  10.584
  101SBC   C0GH71202   0.347   0.728  10.650
  101SBC   C0GG71203   0.375   0.840  10.734
  101SBC   O00G71204   0.276   0.931  10.741
  101SBC   C0G871205   0.285   1.036  10.825
  101SBC   C0G971206   0.162   1.101  10.836
  101SBC   H01G71207   0.074   1.070  10.780
  101SBC   C0GA71208   0.155   1.201  10.930
  101SBC   H01H71209   0.064   1.252  10.957
  101SBC   C0GB71210   0.271   1.261  10.998
  101SBC   C0EP71211   0.399   1.204  10.965
  101SBC   C0E871212   0.516   1.267  11.013
  101SBC   C0CK71213   0.652   1.252  10.982
  101SBC   C0CL71214   0.698   1.118  11.004
  101SBC   C0E971215   0.630   1.003  10.961
  101SBC   C0GE71216   0.509   0.983  10.889
  101SBC   C0E771217   0.511   1.359  11.111
  101SBC   C0CJ71218   0.638   1.403  11.158
  101SBC   C0E671219   0.644   1.500  11.260
  101SBC   H00Y71220   0.737   1.544  11.295
  101SBC   C0EO71221   0.518   1.549  11.301
  101SBC   H01171222   0.513   1.624  11.379
  101SBC   C0G671223   0.388   1.510  11.248
  101SBC   C0G571224   0.261   1.568  11.282
  101SBC   H01F71225   0.255   1.644  11.358
  101SBC   C0GD71226   0.147   1.521  11.224
  101SBC   H01I71227   0.055   1.563  11.262
  101SBC   O00H71228   0.142   1.421  11.134
  101SBC   C0EQ71229   0.384   1.410  11.147
  101SBC   C0GC71230   0.261   1.365  11.094
  101SBC   C0G771231   0.403   1.079  10.892
  101SBC   C0DD71232   0.432   0.621  10.618
  101SBC   C0GF71233   0.486   0.856  10.821
  101SBC   C0CO71234   0.720   0.902  10.988
  101SBC   C0D071235   0.767   0.630  10.780
  101SBC   C0C471236   1.024   0.735  10.763
  101SBC   C0CN71237   0.842   0.944  11.034
  101SBC   C0CP71238   1.126   1.048  10.855
  101SBC   C0CM71239   0.830   1.086  11.056
  101SBC   C0CI71240   0.728   1.348  11.056
  101SBC   C0CD71241   1.034   1.716  11.043
  101SBC   C0BR71242   1.108   1.355  10.964
  101SBC   C0CS71243   1.349   1.359  10.891
  101SBC   C0B671244   1.586   1.498  10.835
  101SBC   C0CG71245   1.269   1.694  11.015
  101SBC   C0CF71246   1.161   1.771  11.055
  101SBC   C0E571247   0.936   1.934  11.074
  101SBC   C0DT71248   0.966   2.199  11.139
  101SBC   C0DL71249   1.319   2.102  11.107
  101SBC   C0DM71250   1.445   2.157  11.112
  101SBC   C0DY71251   1.342   2.366  11.171
  101SBC   C0DU71252   0.982   2.327  11.179
  101SBC   C0F071253   0.892   2.544  11.190
  101SBC   C0F471254   0.928   2.807  11.136
  101SBC   C0FG71255   1.249   2.707  11.268
  101SBC   O00B71256   1.088   2.996  11.123
  101SBC   C0FN71257   1.365   2.784  11.248
  101SBC   C0DZ71258   1.357   2.498  11.208
  101SBC   O00C71259   1.694   2.558  11.085
  101SBC   C0FR71260   1.809   2.495  11.066
  101SBC   O00D71261   1.903   2.573  11.043
  101SBC   C0E071262   1.450   2.292  11.135
  101SBC   C0E371263   1.810   2.348  11.058
  101SBC   C0AW71264   1.922   2.281  11.025
  101SBC   C0AV71265   2.061   2.330  11.011
  101SBC   H00Q71266   2.091   2.431  11.034
  101SBC   C0AU71267   2.154   2.255  10.930
  101SBC   H00R71268   2.254   2.293  10.915
  101SBC   C0AT71269   2.114   2.124  10.890
  101SBC   C0AS71270   2.176   2.018  10.806
  101SBC   C0AR71271   2.287   2.055  10.717
  101SBC   C0BE71272   1.996   2.074  10.923
  101SBC   C0DN71273   1.550   2.079  11.074
  101SBC   C0AX71274   1.897   2.146  10.995
  101SBC   C0BB71275   1.650   1.875  10.987
  101SBC   C0BD71276   1.980   1.942  10.872
  101SBC   C0B271277   1.734   1.687  10.863
  101SBC   C0AH71278   1.933   1.572  10.697
  101SBC   C0BF71279   2.087   1.902  10.791
  101SBC   C0AL71280   2.152   1.520  10.551
  101SBC   C07U71281   2.319   1.829  10.596
  101SBC   C0AQ71282   2.356   1.953  10.650
  101SBC   C0BG71283   2.381   2.165  10.727
  101SBC   C0FY71284   2.655   2.256  10.541
  101SBC   C0BJ71285   2.371   2.309  10.693
  101SBC   H00S71286   2.277   2.359  10.675
  101SBC   C0FZ71287   2.648   2.390  10.511
  101SBC   C07S71288   2.691   2.160  10.435
  101SBC   C0G171289   2.813   2.407  10.192
  101SBC   C07K71290   2.926   2.099  10.024
  101SBC   C07H71291   2.774   1.976  10.234
  101SBC   C06B71292   2.984   1.705  10.163
  101SBC   C06N71293   2.825   1.542  10.143
  101SBC   C06671294   2.619   1.799  10.350
  101SBC   C06271295   2.437   1.539  10.393
  101SBC   C05Y71296   2.652   1.344  10.127
  101SBC   C06171297   2.411   1.405  10.405
  101SBC   C05H71298   2.410   1.117  10.182
  101SBC   C06V71299   2.284   1.347  10.418
  101SBC   C06Y71300   2.069   1.176  10.447
  101SBC   C05C71301   2.238   0.923  10.241
  101SBC   C06Z71302   1.942   0.986  10.446
  101SBC   C07071303   1.914   0.714  10.378
  101SBC   C05B71304   2.217   0.787  10.211
  101SBC   C05771305   2.199   0.511  10.169
  101SBC   C05971306   1.997   0.507  10.286
  102SBC   C05871307   9.709   4.172   6.220
  102SBC   C05A71308   9.575   4.215   6.201
  102SBC   C06Q71309   9.479   4.131   6.149
  102SBC   C06R71310   9.344   4.171   6.128
  102SBC   C06S71311   9.305   4.304   6.156
  102SBC   C06T71312   9.171   4.345   6.127
  102SBC   C06U71313   9.099   4.476   6.135
  102SBC   C06X71314   9.145   4.605   6.172
  102SBC   C06071315   9.030   4.695   6.183
  102SBC   C05Z71316   9.027   4.836   6.155
  102SBC   C06871317   8.902   4.849   6.072
  102SBC   C06771318   8.837   4.974   6.021
  102SBC   C06971319   8.876   5.100   6.076
  102SBC   C06A71320   8.824   5.235   6.053
  102SBC   C07371321   8.787   5.295   5.933
  102SBC   C07P71322   8.840   5.426   5.902
  102SBC   C07O71323   8.950   5.492   5.958
  102SBC   H00D71324   9.020   5.437   6.020
  102SBC   C07N71325   8.991   5.615   5.915
  102SBC   H00E71326   9.076   5.662   5.963
  102SBC   C07M71327   8.916   5.687   5.822
  102SBC   H00F71328   8.933   5.787   5.785
  102SBC   C07L71329   8.805   5.620   5.761
  102SBC   C07Q71330   8.731   5.686   5.657
  102SBC   H00G71331   8.757   5.782   5.616
  102SBC   O00F71332   8.624   5.627   5.595
  102SBC   C07J71333   8.578   5.508   5.647
  102SBC   C07I71334   8.651   5.441   5.748
  102SBC   N00471335   8.607   5.311   5.779
  102SBC   C07R71336   8.480   5.266   5.732
  102SBC   C07T71337   8.418   5.341   5.629
  102SBC   C0FX71338   8.306   5.299   5.561
  102SBC   C0FW71339   8.260   5.342   5.438
  102SBC   C0G071340   8.323   5.456   5.392
  102SBC   C0G271341   8.286   5.512   5.268
  102SBC   H01E71342   8.325   5.602   5.222
  102SBC   C0G371343   8.177   5.457   5.204
  102SBC   H01C71344   8.155   5.498   5.106
  102SBC   C0G471345   8.116   5.337   5.246
  102SBC   H01D71346   8.032   5.290   5.197
  102SBC   O00E71347   8.422   5.519   5.469
  102SBC   C0FV71348   8.156   5.278   5.370
  102SBC   C0FU71349   8.106   5.158   5.425
  102SBC   H01B71350   8.026   5.114   5.368
  102SBC   C0FT71351   8.149   5.108   5.553
  102SBC   C0FS71352   8.160   4.982   5.618
  102SBC   C0BI71353   8.212   4.999   5.754
  102SBC   C0BH71354   8.255   4.874   5.803
  102SBC   C07F71355   8.394   4.846   5.826
  102SBC   C07E71356   8.499   4.926   5.865
  102SBC   C07G71357   8.515   5.057   5.840
  102SBC   C07471358   8.640   5.093   5.882
  102SBC   C06571359   8.619   4.870   5.914
  102SBC   C06471360   8.632   4.731   5.907
  102SBC   C06371361   8.740   4.661   5.948
  102SBC   C07571362   8.708   4.519   5.912
  102SBC   C0AM71363   8.582   4.508   5.835
  102SBC   C0AN71364   8.517   4.395   5.764
  102SBC   C0AO71365   8.564   4.252   5.741
  102SBC   C0B171366   8.506   4.165   5.643
  102SBC   C0B071367   8.394   4.198   5.574
  102SBC   C0AZ71368   8.327   4.122   5.478
  102SBC   C0AY71369   8.214   4.175   5.410
  102SBC   N00771370   8.157   4.104   5.308
  102SBC   C0E271371   8.049   4.164   5.229
  102SBC   C0E171372   7.987   4.084   5.139
  102SBC   C0E471373   7.874   4.132   5.080
  102SBC   C0FF71374   7.782   4.057   5.012
  102SBC   C0FJ71375   7.672   4.084   4.925
  102SBC   C0FK71376   7.653   4.201   4.846
  102SBC   H01671377   7.700   4.297   4.859
  102SBC   C0FL71378   7.578   4.157   4.726
  102SBC   H01771379   7.548   4.210   4.637
  102SBC   C0FM71380   7.555   4.014   4.735
  102SBC   C0FH71381   7.531   3.886   4.661
  102SBC   C0FI71382   7.585   3.797   4.753
  102SBC   C0F371383   7.639   3.675   4.707
  102SBC   C0F271384   7.735   3.626   4.794
  102SBC   C0DW71385   7.796   3.699   4.897
  102SBC   C0FE71386   7.744   3.816   4.940
  102SBC   C0DV71387   7.915   3.661   4.943
  102SBC   C0DX71388   7.991   3.744   5.020
  102SBC   C0DK71389   8.116   3.702   5.060
  102SBC   C0DJ71390   8.173   3.582   5.017
  102SBC   C0DI71391   8.291   3.539   5.066
  102SBC   C0DH71392   8.354   3.613   5.171
  102SBC   C0DG71393   8.304   3.733   5.212
  102SBC   C0BV71394   8.366   3.807   5.307
  102SBC   C0BC71395   8.321   3.935   5.337
  102SBC   C0BA71396   8.475   3.755   5.371
  102SBC   C0B471397   8.538   3.824   5.477
  102SBC   C0B371398   8.490   3.952   5.515
  102SBC   C0B571399   8.647   3.771   5.540
  102SBC   C0BU71400   8.697   3.645   5.498
  102SBC   C0BT71401   8.633   3.568   5.400
  102SBC   C0BS71402   8.675   3.437   5.366
  102SBC   C0CC71403   8.612   3.370   5.265
  102SBC   C0CB71404   8.656   3.245   5.222
  102SBC   C0CH71405   8.622   3.208   5.090
  102SBC   C0DO71406   8.516   3.265   5.020
  102SBC   C0DP71407   8.476   3.213   4.899
  102SBC   C0EA71408   8.543   3.095   4.840
  102SBC   H01271409   8.635   3.056   4.881
  102SBC   O00971410   8.483   3.028   4.738
  102SBC   C0EH71411   8.366   3.071   4.681
  102SBC   C0EG71412   8.304   2.994   4.579
  102SBC   C0EJ71413   8.353   2.885   4.494
  102SBC   H01071414   8.444   2.827   4.503
  102SBC   C0EK71415   8.248   2.859   4.392
  102SBC   H00Z71416   8.258   2.781   4.317
  102SBC   C0EL71417   8.151   2.957   4.420
  102SBC   C0EM71418   8.033   2.988   4.343
  102SBC   C0EW71419   7.978   2.919   4.235
  102SBC   H01371420   8.018   2.821   4.217
  102SBC   C0EX71421   7.864   2.967   4.164
  102SBC   H01471422   7.828   2.919   4.074
  102SBC   C0F171423   7.800   3.090   4.211
  102SBC   C0EU71424   7.851   3.156   4.323
  102SBC   C0ET71425   7.803   3.273   4.389
  102SBC   C0ES71426   7.897   3.294   4.493
  102SBC   C0EE71427   8.002   3.199   4.488
  102SBC   C0ED71428   8.111   3.150   4.568
  102SBC   C0EC71429   8.161   3.216   4.687
  102SBC   C0EB71430   8.096   3.321   4.762
  102SBC   C0EN71431   7.963   3.372   4.721
  102SBC   C0ER71432   7.910   3.470   4.802
  102SBC   C0DS71433   8.160   3.390   4.867
  102SBC   C0DR71434   8.288   3.356   4.904
  102SBC   C0EY71435   7.870   3.359   4.613
  102SBC   C0EZ71436   7.762   3.445   4.627
  102SBC   C0F571437   7.664   3.507   4.533
  102SBC   C0F671438   7.636   3.457   4.402
  102SBC   N00871439   7.531   3.531   4.328
  102SBC   C0F771440   7.478   3.655   4.384
  102SBC   C0FQ71441   7.373   3.715   4.323
  102SBC   H01871442   7.346   3.809   4.368
  102SBC   C0FP71443   7.305   3.653   4.215
  102SBC   H01971444   7.217   3.690   4.166
  102SBC   C0FO71445   7.358   3.542   4.156
  102SBC   H01A71446   7.298   3.512   4.072
  102SBC   C0F871447   7.533   3.711   4.504
  102SBC   C0F971448   7.470   3.468   4.215
  102SBC   C0FA71449   7.524   3.354   4.154
  102SBC   H01571450   7.486   3.318   4.060
  102SBC   C0FB71451   7.636   3.282   4.216
  102SBC   C0FD71452   7.684   3.338   4.338
  102SBC   C0FC71453   7.687   3.158   4.150
  102SBC   O00A71454   7.641   3.109   4.046
  102SBC   C0EV71455   7.972   3.111   4.379
  102SBC   C0EF71456   8.181   3.032   4.530
  102SBC   C0EI71457   8.292   3.187   4.734
  102SBC   C0DQ71458   8.349   3.246   4.846
  102SBC   C0CE71459   8.455   3.371   5.077
  102SBC   H00U71460   8.691   3.144   5.038
  102SBC   C0CA71461   8.744   3.168   5.304
  102SBC   C0C971462   8.816   3.232   5.406
  102SBC   C0C871463   8.910   3.152   5.486
  102SBC   C0C771464   9.019   3.181   5.575
  102SBC   C0C671465   9.093   3.072   5.632
  102SBC   C0C571466   9.226   3.038   5.677
  102SBC   C0CQ71467   9.262   2.902   5.666
  102SBC   C0D171468   9.188   2.816   5.587
  102SBC   C0D871469   9.274   2.739   5.513
  102SBC   C0D771470   9.399   2.740   5.587
  102SBC   C0D671471   9.522   2.670   5.554
  102SBC   C0D571472   9.648   2.687   5.626
  102SBC   C0D471473   9.695   2.790   5.706
  102SBC   C0D371474   9.835   2.810   5.680
  102SBC   C0CX71475   9.871   2.946   5.720
  102SBC   C0CW71476   9.743   3.016   5.747
  102SBC   C0CV71477   9.700   3.147   5.803
  102SBC   C0D271478   9.788   3.229   5.874
  102SBC   C09D71479   9.916   3.191   5.918
  102SBC   C09C71480   9.979   3.272   6.014
  102SBC   C09B71481  10.107   3.247   6.077
  102SBC   C09A71482  10.173   3.135   6.030
  102SBC   C09971483  10.111   3.049   5.954
  102SBC   C09871484  10.206   2.961   5.903
  102SBC   C08Y71485  10.337   3.009   5.939
  102SBC   C08X71486  10.468   2.980   5.889
  102SBC   C08W71487  10.489   2.883   5.790
  102SBC   C08U71488  10.378   2.815   5.711
  102SBC   C08V71489  10.234   2.824   5.695
  102SBC   C0DC71490  10.192   2.712   5.623
  102SBC   H00W71491  10.087   2.690   5.608
  102SBC   C0DB71492  10.307   2.634   5.587
  102SBC   H00X71493  10.313   2.534   5.547
  102SBC   C08T71494  10.422   2.701   5.641
  102SBC   C08S71495  10.549   2.649   5.628
  102SBC   H00N71496  10.568   2.557   5.573
  102SBC   C08R71497  10.651   2.712   5.699
  102SBC   C08Q71498  10.785   2.663   5.706
  102SBC   H00O71499  10.787   2.564   5.662
  102SBC   C08P71500  10.898   2.731   5.744
  102SBC   C08O71501  11.037   2.683   5.751
  102SBC   H00P71502  11.059   2.581   5.723
  102SBC   C08N71503  11.147   2.765   5.791
  102SBC   C08M71504  11.285   2.720   5.785
  102SBC   O00871505  11.319   2.612   5.739
  102SBC   O00771506  11.382   2.806   5.830
  102SBC   C08H71507  11.349   2.921   5.898
  102SBC   C08G71508  11.450   3.004   5.961
  102SBC   C03V71509  11.590   2.984   5.969
  102SBC   H00971510  11.631   2.890   5.933
  102SBC   C03U71511  11.686   3.086   6.010
  102SBC   C03W71512  11.829   3.076   6.006
  102SBC   H00A71513  11.874   2.986   5.966
  102SBC   C03X71514  11.907   3.165   6.063
  102SBC   H00B71515  12.012   3.138   6.069
  102SBC   O00571516  11.862   3.282   6.125
  102SBC   C03O71517  11.727   3.307   6.108
  102SBC   C03N71518  11.671   3.429   6.148
  102SBC   O00071519  11.757   3.527   6.184
  102SBC   C01971520  11.712   3.654   6.212
  102SBC   C01871521  11.575   3.680   6.219
  102SBC   C01771522  11.483   3.576   6.192
  102SBC   C01671523  11.344   3.602   6.195
  102SBC   C01571524  11.313   3.735   6.229
  102SBC   C01471525  11.180   3.757   6.259
  102SBC   C01371526  11.078   3.658   6.241
  102SBC   C01271527  10.956   3.725   6.288
  102SBC   C01171528  11.004   3.850   6.329
  102SBC   C01071529  10.921   3.943   6.384
  102SBC   C00Z71530  10.944   4.062   6.436
  102SBC   C00Y71531  10.817   4.106   6.475
  102SBC   C01O71532  10.718   4.011   6.462
  102SBC   C01P71533  10.586   4.039   6.443
  102SBC   C02L71534  10.511   3.935   6.394
  102SBC   C02K71535  10.583   3.818   6.353
  102SBC   C01M71536  10.726   3.800   6.349
  102SBC   C02J71537  10.493   3.710   6.317
  102SBC   C02I71538  10.522   3.580   6.294
  102SBC   C02H71539  10.649   3.516   6.281
  102SBC   C01Q71540  10.774   3.566   6.279
  102SBC   C02G71541  10.858   3.464   6.232
  102SBC   C08971542  10.781   3.344   6.220
  102SBC   C08871543  10.839   3.270   6.119
  102SBC   C08771544  10.972   3.317   6.108
  102SBC   C08671545  11.082   3.254   6.043
  102SBC   C03S71546  11.223   3.273   6.069
  102SBC   N00671547  11.281   3.159   6.011
  102SBC   C08F71548  11.193   3.081   5.961
  102SBC   C01J71549  11.302   3.375   6.119
  102SBC   C03R71550  11.441   3.353   6.113
  102SBC   C03Q71551  11.497   3.232   6.063
  102SBC   C08E71552  11.071   3.135   5.964
  102SBC   C08D71553  10.956   3.057   5.921
  102SBC   C08K71554  10.978   2.932   5.855
  102SBC   C08C71555  10.818   3.085   5.949
  102SBC   C09171556  10.718   3.006   5.893
  102SBC   C09271557  10.739   2.899   5.802
  102SBC   C08B71558  10.756   3.185   6.034
  102SBC   C09071559  10.612   3.150   6.030
  102SBC   C09471560  10.516   3.201   6.119
  102SBC   C09571561  10.380   3.191   6.111
  102SBC   C09R71562  10.317   3.294   6.170
  102SBC   C09771563  10.414   3.378   6.222
  102SBC   C09671564  10.532   3.314   6.202
  102SBC   C01I71565  10.990   3.440   6.182
  102SBC   C08A71566  10.648   3.383   6.242
  102SBC   C09L71567  10.402   3.514   6.272
  102SBC   C09K71568  10.295   3.603   6.295
  102SBC   C09J71569  10.166   3.582   6.244
  102SBC   C09I71570  10.066   3.686   6.218
  102SBC   C09O71571  10.048   3.826   6.241
  102SBC   C09N71572  10.150   3.907   6.292
  102SBC   C09M71573  10.286   3.873   6.330
  102SBC   C06O71574  10.113   4.041   6.307
  102SBC   C05M71575   9.983   4.092   6.268
  102SBC   C06P71576   9.883   4.004   6.226
  102SBC   C04271577   9.940   4.226   6.290
  102SBC   C04171578  10.031   4.315   6.344
  102SBC   C04071579  10.001   4.448   6.368
  102SBC   C03Z71580  10.089   4.541   6.420
  102SBC   C03Y71581  10.209   4.497   6.458
  102SBC   C02771582  10.304   4.591   6.504
  102SBC   C02671583  10.436   4.553   6.520
  102SBC   C02871584  10.532   4.642   6.565
  102SBC   C02971585  10.496   4.777   6.594
  102SBC   C02B71586  10.593   4.873   6.623
  102SBC   C02C71587  10.558   5.005   6.637
  102SBC   C02X71588  10.660   5.103   6.637
  102SBC   C03E71589  10.613   5.229   6.650
  102SBC   C03G71590  10.483   5.272   6.645
  102SBC   C04Q71591  10.385   5.176   6.627
  102SBC   C04R71592  10.253   5.209   6.607
  102SBC   C04S71593  10.158   5.116   6.572
  102SBC   C04L71594  10.193   4.981   6.565
  102SBC   C04M71595  10.324   4.944   6.595
  102SBC   C04K71596  10.101   4.889   6.514
  102SBC   C04F71597   9.978   4.932   6.487
  102SBC   C04E71598   9.937   5.063   6.514
  102SBC   C04D71599   9.803   5.099   6.488
  102SBC   C05071600   9.765   5.234   6.501
  102SBC   C05171601   9.630   5.269   6.477
  102SBC   C05Q71602   9.596   5.401   6.481
  102SBC   C05V71603   9.469   5.439   6.452
  102SBC   N00571604   9.432   5.576   6.467
  102SBC   C07V71605   9.523   5.670   6.519
  102SBC   C08271606   9.487   5.807   6.539
  102SBC   C08171607   9.354   5.850   6.506
  102SBC   C07C71608   9.262   5.758   6.457
  102SBC   C07B71609   9.130   5.796   6.432
  102SBC   C08071610   9.089   5.930   6.451
  102SBC   C07Z71611   8.951   5.957   6.445
  102SBC   H00L71612   8.934   6.060   6.474
  102SBC   C07971613   8.856   5.854   6.422
  102SBC   C07871614   8.905   5.731   6.380
  102SBC   C07771615   8.817   5.638   6.324
  102SBC   C07X71616   8.680   5.656   6.341
  102SBC   H00I71617   8.610   5.582   6.304
  102SBC   C07Y71618   8.627   5.772   6.400
  102SBC   H00H71619   8.520   5.785   6.405
  102SBC   C07671620   8.867   5.524   6.272
  102SBC   C06C71621   8.787   5.440   6.190
  102SBC   H00C71622   8.692   5.474   6.150
  102SBC   C06F71623   8.995   5.489   6.304
  102SBC   C06E71624   9.039   5.357   6.283
  102SBC   C06G71625   9.160   5.302   6.313
  102SBC   C06H71626   9.248   5.393   6.378
  102SBC   C06I71627   9.211   5.531   6.396
  102SBC   C06L71628   9.191   5.165   6.291
  102SBC   C06M71629   9.100   5.073   6.222
  102SBC   C06K71630   9.315   5.122   6.335
  102SBC   C05S71631   9.411   5.215   6.394
  102SBC   C05U71632   9.347   4.984   6.322
  102SBC   C05X71633   9.255   4.884   6.274
  102SBC   C05G71634   9.312   4.751   6.276
  102SBC   C05F71635   9.441   4.732   6.313
  102SBC   C05E71636   9.479   4.602   6.291
  102SBC   C04871637   9.613   4.561   6.305
  102SBC   C05671638   9.644   4.434   6.271
  102SBC   C04571639   9.773   4.395   6.297
  102SBC   C04771640   9.697   4.657   6.353
  102SBC   C04971641   9.655   4.787   6.390
  102SBC   C04B71642   9.749   4.876   6.432
  102SBC   C04671643   9.830   4.620   6.369
  102SBC   C04H71644   9.922   4.713   6.416
  102SBC   C05D71645   9.375   4.528   6.238
  102SBC   C04A71646   9.527   4.826   6.366
  102SBC   C05T71647   9.479   4.951   6.365
  102SBC   C05571648   9.578   5.045   6.412
  102SBC   C06D71649   8.959   5.269   6.208
  102SBC   C07W71650   9.084   5.574   6.362
  102SBC   C08571651   8.717   5.869   6.434
  102SBC   H00M71652   8.686   5.960   6.485
  102SBC   C08471653   9.184   6.027   6.486
  102SBC   H00J71654   9.153   6.127   6.511
  102SBC   C07A71655   9.038   5.703   6.386
  102SBC   C08371656   9.313   5.984   6.514
  102SBC   H00K71657   9.396   6.044   6.548
  102SBC   O00K71658   9.576   5.897   6.590
  102SBC   C0GO71659   9.703   5.854   6.603
  102SBC   C0GN71660   9.797   5.957   6.629
  102SBC   H01L71661   9.753   6.053   6.649
  102SBC   C0GM71662   9.932   5.915   6.647
  102SBC   C0GL71663  10.018   6.013   6.672
  102SBC   H01M71664   9.978   6.111   6.696
  102SBC   O00J71665  10.153   5.998   6.669
  102SBC   C0GK71666  10.193   5.865   6.649
  102SBC   H01N71667  10.301   5.861   6.659
  102SBC   C05K71668  10.106   5.762   6.626
  102SBC   C05J71669  10.152   5.626   6.616
  102SBC   C04Y71670  10.284   5.577   6.621
  102SBC   C04X71671  10.324   5.442   6.630
  102SBC   O00671672  10.388   5.670   6.629
  102SBC   C05371673  10.516   5.638   6.594
  102SBC   C04O71674  10.559   5.507   6.625
  102SBC   C03C71675  10.699   5.459   6.629
  102SBC   C03B71676  10.833   5.510   6.615
  102SBC   C05471677  10.848   5.627   6.544
  102SBC   C0GR71678  10.969   5.676   6.495
  102SBC   C03M71679  11.105   5.620   6.464
  102SBC   C03I71680  11.140   5.482   6.474
  102SBC   C03J71681  11.260   5.441   6.414
  102SBC   N00271682  11.307   5.303   6.420
  102SBC   C02U71683  11.429   5.260   6.360
  102SBC   C02T71684  11.463   5.121   6.348
  102SBC   C02Z71685  11.564   5.079   6.260
  102SBC   N00171686  11.597   4.944   6.248
  102SBC   C02R71687  11.694   4.910   6.153
  102SBC   C03271688  11.754   5.006   6.071
  102SBC   C03171689  11.724   5.141   6.092
  102SBC   H00771690  11.767   5.221   6.033
  102SBC   C03371691  11.836   4.961   5.962
  102SBC   H00371692  11.884   5.025   5.888
  102SBC   O00471693  11.869   4.832   5.946
  102SBC   C03471694  11.810   4.737   6.036
  102SBC   C03571695  11.829   4.607   5.992
  102SBC   C03671696  11.765   4.512   6.058
  102SBC   H00571697  11.772   4.405   6.042
  102SBC   C03771698  11.664   4.546   6.147
  102SBC   H00671699  11.594   4.469   6.175
  102SBC   C00D71700  11.645   4.679   6.203
  102SBC   C00C71701  11.559   4.711   6.308
  102SBC   C00B71702  11.481   4.606   6.378
  102SBC   C00A71703  11.441   4.460   6.360
  102SBC   C00971704  11.325   4.454   6.440
  102SBC   C00871705  11.230   4.350   6.436
  102SBC   C00771706  11.271   4.230   6.378
  102SBC   C00671707  11.179   4.120   6.378
  102SBC   C00571708  11.222   3.997   6.318
  102SBC   C00471709  11.359   3.970   6.293
  102SBC   C00371710  11.447   4.079   6.299
  102SBC   C00271711  11.581   4.051   6.281
  102SBC   C01C71712  11.626   3.918   6.261
  102SBC   C01B71713  11.768   3.877   6.257
  102SBC   H00071714  11.851   3.946   6.267
  102SBC   C00171715  11.673   4.157   6.304
  102SBC   C00071716  11.623   4.286   6.330
  102SBC   C01U71717  11.737   4.361   6.369
  102SBC   H00271718  11.754   4.461   6.406
  102SBC   C01T71719  11.858   4.272   6.342
  102SBC   O00271720  11.978   4.301   6.347
  102SBC   O00171721  11.807   4.155   6.295
  102SBC   C01S71722  11.403   4.210   6.333
  102SBC   C00N71723  11.106   4.379   6.490
  102SBC   C00M71724  11.071   4.506   6.529
  102SBC   C00J71725  11.161   4.610   6.532
  102SBC   C00I71726  11.131   4.739   6.553
  102SBC   C00H71727  11.224   4.838   6.523
  102SBC   C00G71728  11.352   4.806   6.473
  102SBC   C00F71729  11.429   4.894   6.409
  102SBC   C01X71730  11.187   4.971   6.532
  102SBC   C01W71731  11.062   5.002   6.566
  102SBC   C01V71732  10.960   4.905   6.588
  102SBC   C02071733  10.830   4.932   6.615
  102SBC   C01Z71734  11.022   5.139   6.576
  102SBC   C02Y71735  10.892   5.159   6.620
  102SBC   C03971736  10.846   5.290   6.626
  102SBC   C02W71737  11.103   5.240   6.530
  102SBC   C01Y71738  11.273   5.070   6.483
  102SBC   C00U71739  10.998   4.774   6.578
  102SBC   C00S71740  10.901   4.677   6.580
  102SBC   C00T71741  10.766   4.706   6.592
  102SBC   C00R71742  10.939   4.542   6.552
  102SBC   C00Q71743  10.841   4.450   6.528
  102SBC   C00V71744  10.706   4.482   6.538
  102SBC   C02471745  10.607   4.393   6.510
  102SBC   C00X71746  10.642   4.260   6.501
  102SBC   C00P71747  10.879   4.322   6.501
  102SBC   C00O71748  11.015   4.283   6.479
  102SBC   C00K71749  11.288   4.577   6.499
  102SBC   N00071750  11.489   4.320   6.343
  102SBC   C00L71751  11.380   4.667   6.461
  102SBC   H00471752  11.891   4.583   5.907
  102SBC   C02Q71753  11.718   4.777   6.142
  102SBC   C00E71754  11.532   4.846   6.326
  102SBC   C03071755  11.629   5.179   6.184
  102SBC   O00371756  11.595   5.312   6.198
  102SBC   C02S71757  11.396   5.032   6.423
  102SBC   C03871758  11.503   5.350   6.285
  102SBC   C03L71759  11.466   5.486   6.299
  102SBC   H00871760  11.533   5.551   6.246
  102SBC   C02V71761  11.226   5.206   6.480
  102SBC   C03K71762  11.347   5.535   6.357
  102SBC   C0BK71763  11.315   5.671   6.361
  102SBC   H00T71764  11.379   5.746   6.317
  102SBC   C03H71765  11.064   5.378   6.537
  102SBC   C0BL71766  11.192   5.717   6.410
  102SBC   C0GU71767  11.160   5.856   6.405
  102SBC   H01O71768  11.236   5.928   6.378
  102SBC   C0GT71769  11.042   5.903   6.427
  102SBC   H01P71770  11.023   6.009   6.421
  102SBC   C0GS71771  10.944   5.811   6.462
  102SBC   C0GV71772  10.807   5.837   6.467
  102SBC   C0GW71773  10.743   5.957   6.433
  102SBC   H01Q71774  10.805   6.031   6.384
  102SBC   C0GX71775  10.617   5.966   6.467
  102SBC   H01R71776  10.564   6.058   6.446
  102SBC   O00L71777  10.546   5.868   6.533
  102SBC   C0GQ71778  10.745   5.726   6.526
  102SBC   C03A71779  10.929   5.401   6.597
  102SBC   C05L71780  10.603   5.741   6.553
  102SBC   C04W71781  10.054   5.526   6.600
  102SBC   C05I71782   9.920   5.557   6.586
  102SBC   C05O71783   9.875   5.687   6.601
  102SBC   C05271784   9.824   5.461   6.544
  102SBC   C04V71785  10.087   5.392   6.588
  102SBC   C04U71786   9.994   5.290   6.558
  102SBC   N00971787   9.968   5.786   6.620
  102SBC   C0GP71788   9.747   5.720   6.583
  102SBC   C05W71789   9.653   5.627   6.538
  102SBC   C07D71790   9.298   5.622   6.445
  102SBC   C06J71791   9.377   5.349   6.411
  102SBC   C05P71792   9.687   5.494   6.523
  102SBC   C05R71793   9.539   5.171   6.431
  102SBC   C04Z71794   9.859   5.328   6.534
  102SBC   C04C71795   9.710   5.007   6.445
  102SBC   C04G71796   9.882   4.839   6.448
  102SBC   C04J71797  10.139   4.757   6.506
  102SBC   C04T71798  10.030   5.158   6.555
  102SBC   N00371799  10.221   5.347   6.601
  102SBC   C04P71800  10.458   5.413   6.646
  102SBC   C03D71801  10.713   5.324   6.647
  102SBC   C02171802  10.794   5.065   6.629
  102SBC   C03F71803  10.422   5.042   6.621
  102SBC   C02271804  10.728   4.840   6.615
  102SBC   C02A71805  10.363   4.815   6.579
  102SBC   C02371806  10.667   4.608   6.573
  102SBC   C02571807  10.475   4.423   6.502
  102SBC   C02D71808  10.380   4.329   6.467
  102SBC   C02E71809  10.420   4.199   6.443
  102SBC   C02N71810  10.330   4.102   6.393
  102SBC   C04N71811  10.269   4.723   6.532
  102SBC   C02P71812  10.252   4.364   6.432
  102SBC   C04I71813  10.047   4.665   6.449
  102SBC   C04471814   9.869   4.484   6.343
  102SBC   C04371815  10.162   4.271   6.371
  102SBC   C05N71816  10.203   4.137   6.359
  102SBC   C09U71817   9.917   3.871   6.207
  102SBC   C09V71818   9.825   3.789   6.138
  102SBC   C09X71819   9.853   3.665   6.099
  102SBC   C09Y71820   9.771   3.576   6.030
  102SBC   C0A171821   9.645   3.615   6.003
  102SBC   C0A271822   9.603   3.742   6.048
  102SBC   C0A471823   9.471   3.782   6.028
  102SBC   C07171824   9.427   3.909   6.064
  102SBC   C0A571825   9.299   3.950   6.029
  102SBC   C0A971826   9.216   3.863   5.965
  102SBC   C0A871827   9.262   3.738   5.922
  102SBC   C0AP71828   9.178   3.655   5.852
  102SBC   C0BY71829   9.225   3.532   5.818
  102SBC   C0BX71830   9.348   3.481   5.846
  102SBC   C0C271831   9.390   3.349   5.805
  102SBC   C0C371832   9.522   3.306   5.834
  102SBC   C0CT71833   9.606   3.394   5.896
  102SBC   C0C171834   9.298   3.264   5.730
  102SBC   C0C071835   9.178   3.329   5.676
  102SBC   C0A771836   9.433   3.572   5.913
  102SBC   C0BZ71837   9.146   3.454   5.733
  102SBC   C0BO71838   9.034   3.509   5.678
  102SBC   C0BN71839   8.986   3.633   5.716
  102SBC   C0BM71840   8.869   3.672   5.653
  102SBC   C0B971841   8.822   3.800   5.699
  102SBC   C0B871842   8.892   3.876   5.788
  102SBC   C0AD71843   9.010   3.825   5.848
  102SBC   C0AF71844   8.846   4.003   5.822
  102SBC   C0AG71845   8.725   4.058   5.769
  102SBC   C0B771846   8.659   3.977   5.677
  102SBC   C0AE71847   8.932   4.075   5.901
  102SBC   C0AB71848   9.052   4.037   5.945
  102SBC   C0AA71849   9.135   4.121   6.022
  102SBC   C0AJ71850   8.891   4.204   5.932
  102SBC   C0AK71851   8.969   4.287   6.009
  102SBC   C06W71852   8.897   4.403   6.027
  102SBC   C0AI71853   8.772   4.269   5.891
  102SBC   C0BP71854   8.978   3.420   5.589
  102SBC   C0BQ71855   8.849   3.456   5.531
  102SBC   C0BW71856   9.055   3.702   5.807
  102SBC   C0AC71857   9.092   3.907   5.921
  102SBC   C0A671858   9.391   3.696   5.952
  102SBC   C0A371859   9.562   3.525   5.940
  102SBC   C09Z71860   9.813   3.448   5.997
  102SBC   C09W71861   9.694   3.833   6.112
  102SBC   C07271862   9.652   3.960   6.144
  102SBC   C09H71863   9.968   3.615   6.151
  102SBC   C09G71864   9.992   3.479   6.140
  102SBC   C09P71865  10.120   3.457   6.190
  102SBC   C02O71866  10.348   3.736   6.311
  102SBC   C02M71867  10.377   3.968   6.371
  102SBC   C02F71868  10.550   4.164   6.469
  102SBC   C00W71869  10.778   4.234   6.497
  102SBC   C01R71870  11.051   4.156   6.435
  102SBC   C01N71871  10.785   3.912   6.402
  102SBC   C01L71872  10.812   3.697   6.295
  102SBC   C01H71873  11.104   3.524   6.192
  102SBC   C01K71874  11.137   3.879   6.300
  102SBC   C01E71875  11.401   3.837   6.264
  102SBC   C01G71876  11.247   3.498   6.169
  102SBC   C01D71877  11.535   3.809   6.249
  102SBC   C01A71878  11.812   3.748   6.235
  102SBC   H00171879  11.915   3.719   6.228
  102SBC   C01F71880  11.531   3.452   6.157
  102SBC   C03P71881  11.635   3.208   6.057
  102SBC   C03T71882  11.416   3.131   6.002
  102SBC   C08I71883  11.220   2.964   5.899
  102SBC   C08J71884  11.115   2.889   5.846
  102SBC   C08L71885  10.873   2.858   5.798
  102SBC   C09371886  10.621   2.831   5.765
  102SBC   C08Z71887  10.587   3.044   5.931
  102SBC   C09T71888  10.147   2.905   5.783
  102SBC   C09S71889  10.306   3.103   6.038
  102SBC   C09Q71890  10.181   3.330   6.158
  102SBC   C09F71891   9.924   3.394   6.049
  102SBC   C09E71892   9.994   3.075   5.884
  102SBC   C0A071893   9.738   3.357   5.923
  102SBC   C0CU71894   9.562   3.181   5.791
  102SBC   C0CR71895   9.462   3.094   5.735
  102SBC   C0CZ71896   9.498   2.956   5.710
  102SBC   C0DA71897  10.004   2.979   5.780
  102SBC   C0D971898   9.857   2.743   5.556
  102SBC   H00V71899   9.921   2.774   5.474
  102SBC   C0CY71900   9.640   2.920   5.717
  102SBC   C0DF71901   9.750   2.652   5.529
  102SBC   C0DE71902   9.689   2.603   5.414
  102SBC   C0GI71903   9.745   2.516   5.315
  102SBC   H01K71904   9.849   2.486   5.315
  102SBC   C0GJ71905   9.664   2.476   5.215
  102SBC   H01J71906   9.699   2.411   5.135
  102SBC   O00I71907   9.529   2.508   5.210
  102SBC   C0GH71908   9.469   2.583   5.318
  102SBC   C0GG71909   9.337   2.620   5.299
  102SBC   O00G71910   9.286   2.578   5.182
  102SBC   C0G871911   9.166   2.616   5.127
  102SBC   C0G971912   9.138   2.561   5.009
  102SBC   H01G71913   9.214   2.492   4.975
  102SBC   C0GA71914   9.021   2.590   4.943
  102SBC   H01H71915   9.003   2.548   4.845
  102SBC   C0GB71916   8.920   2.668   4.999
  102SBC   C0EP71917   8.951   2.735   5.124
  102SBC   C0E871918   8.870   2.849   5.168
  102SBC   C0CK71919   8.874   2.956   5.261
  102SBC   C0CL71920   8.934   2.928   5.383
  102SBC   C0E971921   9.039   2.832   5.404
  102SBC   C0GE71922   9.122   2.747   5.320
  102SBC   C0E771923   8.736   2.847   5.128
  102SBC   C0CJ71924   8.656   2.947   5.186
  102SBC   C0E671925   8.521   2.959   5.146
  102SBC   H00Y71926   8.454   3.034   5.187
  102SBC   C0EO71927   8.481   2.884   5.036
  102SBC   H01171928   8.379   2.897   5.002
  102SBC   C0G671929   8.568   2.790   4.972
  102SBC   C0G571930   8.535   2.715   4.853
  102SBC   H01F71931   8.437   2.734   4.813
  102SBC   C0GD71932   8.622   2.638   4.790
  102SBC   H01I71933   8.590   2.576   4.707
  102SBC   O00H71934   8.743   2.605   4.847
  102SBC   C0EQ71935   8.697   2.772   5.019
  102SBC   C0GC71936   8.787   2.680   4.955
  102SBC   C0G771937   9.077   2.709   5.191
  102SBC   C0DD71938   9.549   2.621   5.424
  102SBC   C0GF71939   9.246   2.697   5.381
  102SBC   C0CO71940   9.072   2.856   5.543
  102SBC   C0D071941   9.396   2.867   5.654
  102SBC   C0C471942   9.328   3.132   5.712
  102SBC   C0CN71943   9.001   2.967   5.598
  102SBC   C0CP71944   9.072   3.308   5.580
  102SBC   C0CM71945   8.915   3.012   5.494
  102SBC   C0CI71946   8.750   3.032   5.256
  102SBC   C0CD71947   8.511   3.434   5.193
  102SBC   C0BR71948   8.786   3.373   5.432
  102SBC   C0CS71949   8.805   3.589   5.562
  102SBC   C0B671950   8.703   3.846   5.644
  102SBC   C0CG71951   8.523   3.626   5.340
  102SBC   C0CF71952   8.464   3.558   5.235
  102SBC   C0E571953   8.348   3.424   5.010
  102SBC   C0DT71954   8.104   3.503   4.928
  102SBC   C0DL71955   8.185   3.778   5.152
  102SBC   C0DM71956   8.137   3.904   5.176
  102SBC   C0DY71957   7.943   3.874   5.047
  102SBC   C0DU71958   7.976   3.548   4.896
  102SBC   C0F071959   7.793   3.513   4.746
  102SBC   C0F471960   7.613   3.628   4.584
  102SBC   C0FG71961   7.631   3.860   4.874
  102SBC   O00B71962   7.500   3.845   4.534
  102SBC   C0FN71963   7.590   3.989   4.868
  102SBC   C0DZ71964   7.821   3.917   5.003
  102SBC   O00C71965   7.847   4.270   5.080
  102SBC   C0FR71966   7.899   4.355   5.170
  102SBC   O00D71967   7.855   4.467   5.170
  102SBC   C0E071968   8.021   3.954   5.126
  102SBC   C0E371969   8.002   4.293   5.256
  102SBC   C0AW71970   8.059   4.357   5.368
  102SBC   C0AV71971   8.014   4.482   5.414
  102SBC   H00Q71972   7.929   4.535   5.375
  102SBC   C0AU71973   8.081   4.548   5.522
  102SBC   H00R71974   8.039   4.641   5.556
  102SBC   C0AT71975   8.197   4.488   5.576
  102SBC   C0AS71976   8.300   4.529   5.671
  102SBC   C0AR71977   8.311   4.660   5.723
  102SBC   C0BE71978   8.229   4.366   5.533
  102SBC   C0DN71979   8.207   3.980   5.271
  102SBC   C0AX71980   8.160   4.292   5.434
  102SBC   C0BB71981   8.382   4.002   5.443
  102SBC   C0BD71982   8.341   4.322   5.605
  102SBC   C0B271983   8.548   4.030   5.615
  102SBC   C0AH71984   8.685   4.195   5.797
  102SBC   C0BF71985   8.393   4.419   5.696
  102SBC   C0AL71986   8.774   4.402   5.954
  102SBC   C07U71987   8.538   4.644   5.847
  102SBC   C0AQ71988   8.420   4.711   5.800
  102SBC   C0BG71989   8.216   4.772   5.711
  102SBC   C0FY71990   8.292   5.119   5.736
  102SBC   C0BJ71991   8.179   4.843   5.583
  102SBC   H00S71992   8.187   4.793   5.487
  102SBC   C0FZ71993   8.246   5.182   5.616
  102SBC   C07S71994   8.428   5.144   5.775
  102SBC   C0G171995   8.471   5.456   5.579
  102SBC   C07K71996   8.767   5.492   5.799
  102SBC   C07H71997   8.682   5.231   5.872
  102SBC   C06B71998   8.839   5.315   6.166
  102SBC   C06N71999   8.983   5.141   6.168
  102SBC   C06672000   8.714   4.978   5.944
  102SBC   C06272001   8.847   4.714   6.041
  102SBC   C05Y72002   9.127   4.929   6.212
  102SBC   C06172003   8.921   4.632   6.125
  102SBC   C05H72004   9.271   4.627   6.220
  102SBC   C06V72005   8.961   4.500   6.096
  102SBC   C06Y72006   9.095   4.247   6.059
  102SBC   C05C72007   9.405   4.388   6.214
  102SBC   C06Z72008   9.260   4.082   6.062
  102SBC   C07072009   9.518   4.001   6.120
  102SBC   C05B72010   9.541   4.349   6.229
  102SBC   C05772011   9.806   4.264   6.266
  102SBC   C05972012   9.751   4.046   6.193
  103SBC   C05872013   9.744   7.895  12.209
  103SBC   C05A72014   9.609   7.918  12.171
  103SBC   C06Q72015   9.514   7.817  12.192
  103SBC   C06R72016   9.377   7.849  12.168
  103SBC   C06S72017   9.334   7.978  12.127
  103SBC   C06T72018   9.198   8.001  12.117
  103SBC   C06U72019   9.128   8.129  12.104
  103SBC   C06X72020   9.172   8.258  12.062
  103SBC   C06072021   9.071   8.356  12.091
  103SBC   C05Z72022   9.017   8.454  11.994
  103SBC   C06872023   8.871   8.441  11.991
  103SBC   C06772024   8.771   8.521  11.913
  103SBC   C06972025   8.817   8.627  11.816
  103SBC   C06A72026   8.731   8.700  11.725
  103SBC   C07372027   8.604   8.674  11.675
  103SBC   C07P72028   8.582   8.677  11.532
  103SBC   C07O72029   8.683   8.671  11.432
  103SBC   H00D72030   8.787   8.666  11.459
  103SBC   C07N72031   8.641   8.647  11.297
  103SBC   H00E72032   8.723   8.632  11.227
  103SBC   C07M72033   8.512   8.668  11.259
  103SBC   H00F72034   8.489   8.655  11.154
  103SBC   C07L72035   8.416   8.712  11.352
  103SBC   C07Q72036   8.287   8.764  11.320
  103SBC   H00G72037   8.268   8.780  11.215
  103SBC   O00F72038   8.191   8.798  11.411
  103SBC   C07J72039   8.218   8.773  11.545
  103SBC   C07I72040   8.349   8.736  11.584
  103SBC   N00472041   8.373   8.698  11.721
  103SBC   C07R72042   8.268   8.704  11.816
  103SBC   C07T72043   8.136   8.740  11.769
  103SBC   C0FX72044   8.019   8.732  11.848
  103SBC   C0FW72045   7.890   8.748  11.804
  103SBC   C0G072046   7.879   8.805  11.674
  103SBC   C0G272047   7.749   8.844  11.625
  103SBC   H01E72048   7.732   8.886  11.527
  103SBC   C0G372049   7.636   8.821  11.709
  103SBC   H01C72050   7.545   8.870  11.678
  103SBC   C0G472051   7.652   8.757  11.834
  103SBC   H01D72052   7.565   8.740  11.895
  103SBC   O00E72053   7.990   8.814  11.591
  103SBC   C0FV72054   7.778   8.715  11.887
  103SBC   C0FU72055   7.802   8.645  12.008
  103SBC   H01B72056   7.722   8.619  12.076
  103SBC   C0FT72057   7.937   8.623  12.049
  103SBC   C0FS72058   8.009   8.546  12.151
  103SBC   C0BI72059   8.145   8.601  12.161
  103SBC   C0BH72060   8.227   8.514  12.229
  103SBC   C07F72061   8.343   8.448  12.174
  103SBC   C07E72062   8.432   8.506  12.078
  103SBC   C07G72063   8.407   8.600  11.979
  103SBC   C07472064   8.513   8.604  11.893
  103SBC   C06572065   8.561   8.455  12.057
  103SBC   C06472066   8.584   8.330  12.115
  103SBC   C06372067   8.706   8.265  12.114
  103SBC   C07572068   8.681   8.133  12.171
  103SBC   C0AM72069   8.546   8.126  12.225
  103SBC   C0AN72070   8.479   8.010  12.289
  103SBC   C0AO72071   8.521   7.865  12.305
  103SBC   C0B172072   8.431   7.765  12.353
  103SBC   C0B072073   8.300   7.793  12.380
  103SBC   C0AZ72074   8.204   7.703  12.428
  103SBC   C0AY72075   8.073   7.741  12.451
  103SBC   N00772076   7.978   7.655  12.498
  103SBC   C0E272077   7.848   7.700  12.521
  103SBC   C0E172078   7.754   7.608  12.561
  103SBC   C0E472079   7.628   7.653  12.597
  103SBC   C0FF72080   7.529   7.563  12.632
  103SBC   C0FJ72081   7.399   7.588  12.696
  103SBC   C0FK72082   7.383   7.693  12.794
  103SBC   H01672083   7.450   7.777  12.805
  103SBC   C0FL72084   7.271   7.649  12.874
  103SBC   H01772085   7.224   7.694  12.961
  103SBC   C0FM72086   7.230   7.519  12.831
  103SBC   C0FH72087   7.186   7.389  12.885
  103SBC   C0FI72088   7.258   7.299  12.802
  103SBC   C0F372089   7.312   7.180  12.858
  103SBC   C0F272090   7.426   7.138  12.800
  103SBC   C0DW72091   7.507   7.205  12.707
  103SBC   C0FE72092   7.464   7.325  12.658
  103SBC   C0DV72093   7.634   7.164  12.680
  103SBC   C0DX72094   7.725   7.250  12.626
  103SBC   C0DK72095   7.858   7.212  12.621
  103SBC   C0DJ72096   7.900   7.085  12.664
  103SBC   C0DI72097   8.032   7.041  12.656
  103SBC   C0DH72098   8.130   7.132  12.610
  103SBC   C0DG72099   8.087   7.259  12.572
  103SBC   C0BV72100   8.186   7.352  12.533
  103SBC   C0BC72101   8.152   7.485  12.497
  103SBC   C0BA72102   8.325   7.317  12.522
  103SBC   C0B472103   8.418   7.407  12.473
  103SBC   C0B372104   8.377   7.537  12.439
  103SBC   C0B572105   8.549   7.369  12.464
  103SBC   C0BU72106   8.587   7.240  12.503
  103SBC   C0BT72107   8.496   7.149  12.552
  103SBC   C0BS72108   8.538   7.031  12.610
  103SBC   C0CC72109   8.445   6.941  12.667
  103SBC   C0CB72110   8.481   6.823  12.729
  103SBC   C0CH72111   8.379   6.728  12.757
  103SBC   C0DO72112   8.244   6.764  12.759
  103SBC   C0DP72113   8.148   6.681  12.824
  103SBC   C0EA72114   8.190   6.549  12.871
  103SBC   H01272115   8.286   6.503  12.851
  103SBC   O00972116   8.100   6.462  12.927
  103SBC   C0EH72117   7.984   6.522  12.960
  103SBC   C0EG72118   7.907   6.446  13.053
  103SBC   C0EJ72119   7.921   6.323  13.122
  103SBC   H01072120   7.998   6.249  13.103
  103SBC   C0EK72121   7.805   6.307  13.210
  103SBC   H00Z72122   7.782   6.224  13.276
  103SBC   C0EL72123   7.743   6.436  13.202
  103SBC   C0EM72124   7.626   6.479  13.267
  103SBC   C0EW72125   7.556   6.417  13.374
  103SBC   H01372126   7.596   6.326  13.416
  103SBC   C0EX72127   7.419   6.463  13.411
  103SBC   H01472128   7.359   6.412  13.485
  103SBC   C0F172129   7.371   6.590  13.358
  103SBC   C0EU72130   7.448   6.653  13.262
  103SBC   C0ET72131   7.414   6.766  13.190
  103SBC   C0ES72132   7.519   6.778  13.093
  103SBC   C0EE72133   7.609   6.676  13.110
  103SBC   C0ED72134   7.731   6.626  13.050
  103SBC   C0EC72135   7.803   6.696  12.947
  103SBC   C0EB72136   7.762   6.809  12.880
  103SBC   C0EN72137   7.630   6.861  12.892
  103SBC   C0ER72138   7.591   6.969  12.810
  103SBC   C0DS72139   7.846   6.887  12.791
  103SBC   C0DR72140   7.979   6.844  12.781
  103SBC   C0EY72141   7.515   6.853  12.980
  103SBC   C0EZ72142   7.419   6.951  12.962
  103SBC   C0F572143   7.304   7.008  13.028
  103SBC   C0F672144   7.246   6.952  13.147
  103SBC   N00872145   7.131   7.026  13.199
  103SBC   C0F772146   7.086   7.153  13.143
  103SBC   C0FQ72147   6.978   7.212  13.213
  103SBC   H01872148   6.944   7.307  13.175
  103SBC   C0FP72149   6.918   7.157  13.330
  103SBC   H01972150   6.852   7.224  13.383
  103SBC   C0FO72151   6.950   7.033  13.368
  103SBC   H01A72152   6.913   6.984  13.457
  103SBC   C0F872153   7.162   7.208  13.038
  103SBC   C0F972154   7.063   6.968  13.310
  103SBC   C0FA72155   7.103   6.847  13.373
  103SBC   H01572156   7.044   6.805  13.453
  103SBC   C0FB72157   7.224   6.781  13.329
  103SBC   C0FD72158   7.291   6.837  13.218
  103SBC   C0FC72159   7.252   6.657  13.401
  103SBC   O00A72160   7.185   6.613  13.493
  103SBC   C0EV72161   7.568   6.599  13.213
  103SBC   C0EF72162   7.794   6.508  13.097
  103SBC   C0EI72163   7.937   6.652  12.919
  103SBC   C0DQ72164   8.023   6.726  12.841
  103SBC   C0CE72165   8.207   6.888  12.709
  103SBC   H00U72166   8.417   6.638  12.803
  103SBC   C0CA72167   8.620   6.805  12.749
  103SBC   C0C972168   8.712   6.867  12.665
  103SBC   C0C872169   8.835   6.791  12.646
  103SBC   C0C772170   8.963   6.820  12.589
  103SBC   C0C672171   9.055   6.715  12.571
  103SBC   C0C572172   9.201   6.708  12.578
  103SBC   C0CQ72173   9.246   6.585  12.629
  103SBC   C0D172174   9.160   6.502  12.699
  103SBC   C0D872175   9.223   6.442  12.805
  103SBC   C0D772176   9.362   6.461  12.783
  103SBC   C0D672177   9.467   6.406  12.870
  103SBC   C0D572178   9.602   6.419  12.835
  103SBC   C0D472179   9.670   6.518  12.751
  103SBC   C0D372180   9.773   6.574  12.830
  103SBC   C0CX72181   9.808   6.703  12.784
  103SBC   C0CW72182   9.705   6.746  12.694
  103SBC   C0CV72183   9.676   6.859  12.598
  103SBC   C0D272184   9.780   6.941  12.547
  103SBC   C09D72185   9.916   6.931  12.577
  103SBC   C09C72186  10.013   7.021  12.526
  103SBC   C09B72187  10.147   7.028  12.565
  103SBC   C09A72188  10.198   6.922  12.639
  103SBC   C09972189  10.124   6.814  12.660
  103SBC   C09872190  10.178   6.746  12.773
  103SBC   C08Y72191  10.293   6.814  12.824
  103SBC   C08X72192  10.366   6.790  12.946
  103SBC   C08W72193  10.340   6.679  13.033
  103SBC   C08U72194  10.228   6.585  13.023
  103SBC   C08V72195  10.102   6.587  12.944
  103SBC   C0DC72196  10.065   6.447  12.948
  103SBC   H00W72197   9.994   6.404  12.878
  103SBC   C0DB72198  10.139   6.377  13.049
  103SBC   H00X72199  10.120   6.277  13.084
  103SBC   C08T72200  10.240   6.463  13.093
  103SBC   C08S72201  10.337   6.434  13.184
  103SBC   H00N72202  10.345   6.345  13.245
  103SBC   C08R72203  10.435   6.531  13.214
  103SBC   C08Q72204  10.538   6.518  13.312
  103SBC   H00O72205  10.537   6.427  13.369
  103SBC   C08P72206  10.645   6.606  13.343
  103SBC   C08O72207  10.752   6.587  13.441
  103SBC   H00P72208  10.763   6.491  13.490
  103SBC   C08N72209  10.846   6.687  13.472
  103SBC   C08M72210  10.947   6.665  13.573
  103SBC   O00872211  10.970   6.560  13.627
  103SBC   O00772212  11.027   6.772  13.600
  103SBC   C08H72213  11.020   6.895  13.539
  103SBC   C08G72214  11.103   7.007  13.580
  103SBC   C03V72215  11.200   7.021  13.678
  103SBC   H00972216  11.225   6.927  13.725
  103SBC   C03U72217  11.262   7.141  13.723
  103SBC   C03W72218  11.355   7.158  13.831
  103SBC   H00A72219  11.382   7.070  13.887
  103SBC   C03X72220  11.400   7.281  13.860
  103SBC   H00B72221  11.467   7.280  13.944
  103SBC   O00572222  11.369   7.396  13.784
  103SBC   C03O72223  11.289   7.374  13.672
  103SBC   C03N72224  11.260   7.490  13.595
  103SBC   O00072225  11.331   7.603  13.631
  103SBC   C01972226  11.295   7.720  13.578
  103SBC   C01872227  11.201   7.723  13.464
  103SBC   C01772228  11.135   7.606  13.428
  103SBC   C01672229  11.047   7.609  13.318
  103SBC   C01572230  11.028   7.733  13.256
  103SBC   C01472231  10.940   7.736  13.147
  103SBC   C01372232  10.869   7.622  13.096
  103SBC   C01272233  10.794   7.674  12.984
  103SBC   C01172234  10.835   7.813  12.975
  103SBC   C01072235  10.785   7.888  12.879
  103SBC   C00Z72236  10.793   8.026  12.866
  103SBC   C00Y72237  10.710   8.043  12.757
  103SBC   C01O72238  10.661   7.932  12.697
  103SBC   C01P72239  10.549   7.935  12.618
  103SBC   C02L72240  10.482   7.819  12.611
  103SBC   C02K72241  10.528   7.715  12.688
  103SBC   C01M72242  10.635   7.714  12.790
  103SBC   C02J72243  10.463   7.594  12.658
  103SBC   C02I72244  10.496   7.469  12.706
  103SBC   C02H72245  10.590   7.422  12.800
  103SBC   C01Q72246  10.676   7.486  12.888
  103SBC   C02G72247  10.742   7.395  12.971
  103SBC   C08972248  10.708   7.273  12.919
  103SBC   C08872249  10.708   7.176  13.020
  103SBC   C08772250  10.796   7.242  13.121
  103SBC   C08672251  10.859   7.185  13.232
  103SBC   C03S72252  10.950   7.240  13.318
  103SBC   N00672253  10.992   7.132  13.403
  103SBC   C08F72254  10.912   7.023  13.372
  103SBC   C01J72255  11.009   7.365  13.347
  103SBC   C03R72256  11.107   7.364  13.453
  103SBC   C03Q72257  11.141   7.249  13.530
  103SBC   C08E72258  10.840   7.046  13.264
  103SBC   C08D72259  10.744   6.946  13.220
  103SBC   C08K72260  10.739   6.827  13.299
  103SBC   C08C72261  10.650   6.948  13.119
  103SBC   C09172262  10.551   6.852  13.097
  103SBC   C09272263  10.544   6.737  13.170
  103SBC   C08B72264  10.633   7.049  13.020
  103SBC   C09072265  10.531   6.998  12.928
  103SBC   C09472266  10.505   7.058  12.797
  103SBC   C09572267  10.390   7.022  12.720
  103SBC   C09R72268  10.356   7.125  12.628
  103SBC   C09772269  10.433   7.238  12.668
  103SBC   C09672270  10.531   7.194  12.756
  103SBC   C01I72271  10.814   7.384  13.096
  103SBC   C08A72272  10.610   7.290  12.820
  103SBC   C09L72273  10.410   7.378  12.643
  103SBC   C09K72274  10.320   7.448  12.564
  103SBC   C09J72275  10.219   7.385  12.478
  103SBC   C09I72276  10.114   7.458  12.419
  103SBC   C09O72277  10.081   7.600  12.400
  103SBC   C09N72278  10.171   7.707  12.424
  103SBC   C09M72279  10.289   7.706  12.505
  103SBC   C06O72280  10.130   7.834  12.373
  103SBC   C05M72281  10.006   7.852  12.312
  103SBC   C06P72282   9.916   7.746  12.301
  103SBC   C04272283   9.965   7.976  12.269
  103SBC   C04172284  10.047   8.089  12.281
  103SBC   C04072285  10.007   8.214  12.233
  103SBC   C03Z72286  10.081   8.327  12.259
  103SBC   C03Y72287  10.194   8.316  12.331
  103SBC   C02772288  10.260   8.435  12.375
  103SBC   C02672289  10.365   8.426  12.463
  103SBC   C02872290  10.420   8.539  12.520
  103SBC   C02972291  10.377   8.662  12.481
  103SBC   C02B72292  10.443   8.772  12.535
  103SBC   C02C72293  10.400   8.894  12.494
  103SBC   C02X72294  10.463   9.006  12.548
  103SBC   C03E72295  10.412   9.124  12.512
  103SBC   C03G72296  10.310   9.153  12.433
  103SBC   C04Q72297  10.247   9.044  12.380
  103SBC   C04R72298  10.129   9.056  12.307
  103SBC   C04S72299  10.067   8.945  12.256
  103SBC   C04L72300  10.118   8.815  12.277
  103SBC   C04M72301  10.232   8.800  12.352
  103SBC   C04K72302  10.052   8.702  12.232
  103SBC   C04F72303   9.933   8.720  12.165
  103SBC   C04E72304   9.880   8.847  12.146
  103SBC   C04D72305   9.754   8.856  12.089
  103SBC   C05072306   9.695   8.983  12.077
  103SBC   C05172307   9.563   8.992  12.032
  103SBC   C05Q72308   9.506   9.118  12.027
  103SBC   C05V72309   9.376   9.128  11.979
  103SBC   N00572310   9.312   9.256  11.967
  103SBC   C07V72311   9.386   9.364  12.010
  103SBC   C08272312   9.334   9.496  11.997
  103SBC   C08172313   9.206   9.517  11.946
  103SBC   C07C72314   9.134   9.407  11.901
  103SBC   C07B72315   9.006   9.419  11.838
  103SBC   C08072316   8.943   9.539  11.838
  103SBC   C07Z72317   8.820   9.550  11.770
  103SBC   H00L72318   8.786   9.651  11.752
  103SBC   C07972319   8.742   9.440  11.723
  103SBC   C07872320   8.797   9.318  11.750
  103SBC   C07772321   8.731   9.197  11.706
  103SBC   C07X72322   8.613   9.202  11.631
  103SBC   H00I72323   8.555   9.118  11.595
  103SBC   C07Y72324   8.555   9.323  11.608
  103SBC   H00H72325   8.460   9.331  11.557
  103SBC   C07672326   8.792   9.074  11.726
  103SBC   C06C72327   8.719   8.957  11.697
  103SBC   H00C72328   8.613   8.950  11.675
  103SBC   C06F72329   8.922   9.062  11.781
  103SBC   C06E72330   8.978   8.938  11.808
  103SBC   C06G72331   9.106   8.920  11.853
  103SBC   C06H72332   9.178   9.032  11.894
  103SBC   C06I72333   9.120   9.158  11.873
  103SBC   C06L72334   9.152   8.785  11.880
  103SBC   C06M72335   9.063   8.670  11.882
  103SBC   C06K72336   9.285   8.776  11.918
  103SBC   C05S72337   9.361   8.889  11.951
  103SBC   C05U72338   9.341   8.651  11.941
  103SBC   C05X72339   9.256   8.537  11.946
  103SBC   C05G72340   9.334   8.414  11.959
  103SBC   C05F72341   9.471   8.410  11.963
  103SBC   C05E72342   9.516   8.282  12.005
  103SBC   C04872343   9.649   8.259  12.054
  103SBC   C05672344   9.672   8.138  12.113
  103SBC   C04572345   9.800   8.121  12.161
  103SBC   C04772346   9.728   8.371  12.063
  103SBC   C04972347   9.677   8.500  12.024
  103SBC   C04B72348   9.744   8.613  12.063
  103SBC   C04672349   9.842   8.359  12.127
  103SBC   C04H72350   9.911   8.476  12.157
  103SBC   C05D72351   9.406   8.201  12.028
  103SBC   C04A72352   9.551   8.522  11.970
  103SBC   C05T72353   9.479   8.642  11.967
  103SBC   C05572354   9.555   8.750  11.998
  103SBC   C06D72355   8.904   8.826  11.775
  103SBC   C07W72356   8.990   9.178  11.816
  103SBC   C08572357   8.617   9.442  11.654
  103SBC   H00M72358   8.581   9.541  11.630
  103SBC   C08472359   9.015   9.652  11.887
  103SBC   H00J72360   8.960   9.744  11.881
  103SBC   C07A72361   8.932   9.307  11.799
  103SBC   C08372362   9.139   9.640  11.944
  103SBC   H00K72363   9.178   9.733  11.984
  103SBC   O00K72364   9.396   9.612  12.036
  103SBC   C0GO72365   9.524   9.597  12.076
  103SBC   C0GN72366   9.589   9.703  12.123
  103SBC   H01L72367   9.535   9.797  12.127
  103SBC   C0GM72368   9.720   9.697  12.177
  103SBC   C0GL72369   9.780   9.813  12.216
  103SBC   H01M72370   9.739   9.912  12.198
  103SBC   O00J72371   9.908   9.813  12.266
  103SBC   C0GK72372   9.969   9.686  12.258
  103SBC   H01N72373  10.076   9.689  12.273
  103SBC   C05K72374   9.904   9.570  12.225
  103SBC   C05J72375   9.966   9.444  12.253
  103SBC   C04Y72376  10.086   9.426  12.332
  103SBC   C04X72377  10.144   9.301  12.348
  103SBC   O00672378  10.143   9.531  12.396
  103SBC   C05372379  10.251   9.521  12.476
  103SBC   C04O72380  10.314   9.396  12.492
  103SBC   C03C72381  10.434   9.366  12.570
  103SBC   C03B72382  10.521   9.431  12.660
  103SBC   C05472383  10.510   9.568  12.687
  103SBC   C0GR72384  10.588   9.636  12.783
  103SBC   C03M72385  10.696   9.596  12.872
  103SBC   C03I72386  10.743   9.462  12.899
  103SBC   C03J72387  10.844   9.440  12.997
  103SBC   N00272388  10.895   9.309  13.037
  103SBC   C02U72389  10.990   9.291  13.142
  103SBC   C02T72390  11.034   9.160  13.178
  103SBC   C02Z72391  11.119   9.137  13.284
  103SBC   N00172392  11.164   9.007  13.324
  103SBC   C02R72393  11.256   8.986  13.428
  103SBC   C03272394  11.294   9.099  13.497
  103SBC   C03172395  11.253   9.229  13.452
  103SBC   H00772396  11.289   9.320  13.499
  103SBC   C03372397  11.381   9.079  13.609
  103SBC   H00372398  11.408   9.161  13.675
  103SBC   O00472399  11.441   8.958  13.637
  103SBC   C03472400  11.401   8.851  13.559
  103SBC   C03572401  11.455   8.723  13.586
  103SBC   C03672402  11.423   8.611  13.504
  103SBC   H00572403  11.469   8.515  13.521
  103SBC   C03772404  11.326   8.627  13.405
  103SBC   H00672405  11.319   8.544  13.336
  103SBC   C00D72406  11.263   8.750  13.383
  103SBC   C00C72407  11.165   8.762  13.287
  103SBC   C00B72408  11.101   8.636  13.221
  103SBC   C00A72409  11.087   8.481  13.215
  103SBC   C00972410  11.002   8.465  13.103
  103SBC   C00872411  10.948   8.348  13.052
  103SBC   C00772412  10.981   8.230  13.116
  103SBC   C00672413  10.925   8.112  13.060
  103SBC   C00572414  10.960   7.988  13.120
  103SBC   C00472415  11.049   7.985  13.229
  103SBC   C00372416  11.104   8.105  13.283
  103SBC   C00272417  11.185   8.094  13.398
  103SBC   C01C72418  11.226   7.969  13.452
  103SBC   C01B72419  11.319   7.958  13.562
  103SBC   H00072420  11.364   8.047  13.604
  103SBC   C00172421  11.220   8.219  13.457
  103SBC   C00072422  11.171   8.341  13.407
  103SBC   C01U72423  11.171   8.423  13.519
  103SBC   H00272424  11.132   8.522  13.535
  103SBC   C01T72425  11.260   8.361  13.617
  103SBC   O00272426  11.309   8.410  13.719
  103SBC   O00172427  11.285   8.240  13.581
  103SBC   C01S72428  11.067   8.231  13.227
  103SBC   C00N72429  10.859   8.361  12.946
  103SBC   C00M72430  10.816   8.481  12.900
  103SBC   C00J72431  10.870   8.595  12.952
  103SBC   C00I72432  10.832   8.725  12.915
  103SBC   C00H72433  10.887   8.835  12.976
  103SBC   C00G72434  10.976   8.818  13.077
  103SBC   C00F72435  11.025   8.922  13.149
  103SBC   C01X72436  10.853   8.960  12.937
  103SBC   C01W72437  10.753   8.970  12.841
  103SBC   C01V72438  10.700   8.858  12.779
  103SBC   C02072439  10.609   8.872  12.678
  103SBC   C01Z72440  10.704   9.095  12.810
  103SBC   C02Y72441  10.618   9.100  12.705
  103SBC   C03972442  10.567   9.224  12.671
  103SBC   C02W72443  10.748   9.211  12.874
  103SBC   C01Y72444  10.900   9.071  13.006
  103SBC   C00U72445  10.742   8.738  12.814
  103SBC   C00S72446  10.688   8.629  12.752
  103SBC   C00T72447  10.587   8.637  12.660
  103SBC   C00R72448  10.726   8.503  12.794
  103SBC   C00Q72449  10.676   8.391  12.735
  103SBC   C00V72450  10.577   8.404  12.642
  103SBC   C02472451  10.524   8.296  12.577
  103SBC   C00X72452  10.571   8.173  12.616
  103SBC   C00P72453  10.715   8.270  12.781
  103SBC   C00O72454  10.802   8.254  12.891
  103SBC   C00K72455  10.950   8.584  13.062
  103SBC   N00072456  11.115   8.354  13.283
  103SBC   C00L72457  11.006   8.686  13.129
  103SBC   H00472458  11.530   8.706  13.662
  103SBC   C02Q72459  11.306   8.866  13.452
  103SBC   C00E72460  11.118   8.893  13.250
  103SBC   C03072461  11.171   9.246  13.348
  103SBC   O00372462  11.137   9.376  13.307
  103SBC   C02S72463  10.992   9.051  13.109
  103SBC   C03872464  11.047   9.398  13.203
  103SBC   C03L72465  11.004   9.525  13.164
  103SBC   H00872466  11.047   9.604  13.223
  103SBC   C02V72467  10.843   9.197  12.976
  103SBC   C03K72468  10.905   9.549  13.064
  103SBC   C0BK72469  10.861   9.676  13.027
  103SBC   H00T72470  10.907   9.754  13.085
  103SBC   C03H72471  10.701   9.338  12.837
  103SBC   C0BL72472  10.759   9.708  12.935
  103SBC   C0GU72473  10.727   9.843  12.895
  103SBC   H01O72474  10.791   9.913  12.946
  103SBC   C0GT72475  10.617   9.879  12.818
  103SBC   H01P72476  10.577   9.979  12.808
  103SBC   C0GS72477  10.552   9.770  12.759
  103SBC   C0GV72478  10.438   9.783  12.681
  103SBC   C0GW72479  10.362   9.899  12.640
  103SBC   H01Q72480  10.376   9.998  12.681
  103SBC   C0GX72481  10.258   9.879  12.556
  103SBC   H01R72482  10.188   9.955  12.524
  103SBC   O00L72483  10.227   9.754  12.500
  103SBC   C0GQ72484  10.410   9.656  12.629
  103SBC   C03A72485  10.602   9.340  12.733
  103SBC   C05L72486  10.299   9.642  12.541
  103SBC   C04W72487   9.906   9.328  12.202
  103SBC   C05I72488   9.778   9.334  12.143
  103SBC   C05O72489   9.713   9.454  12.135
  103SBC   C05272490   9.706   9.220  12.108
  103SBC   C04V72491   9.960   9.198  12.222
  103SBC   C04U72492   9.891   9.087  12.173
  103SBC   N00972493   9.773   9.571  12.175
  103SBC   C0GP72494   9.584   9.467  12.086
  103SBC   C05W72495   9.516   9.354  12.053
  103SBC   C07D72496   9.185   9.277  11.910
  103SBC   C06J72497   9.305   9.017  11.944
  103SBC   C05P72498   9.576   9.228  12.064
  103SBC   C05R72499   9.497   8.880  11.989
  103SBC   C04Z72500   9.767   9.099  12.113
  103SBC   C04C72501   9.689   8.742  12.042
  103SBC   C04G72502   9.865   8.603  12.125
  103SBC   C04J72503  10.099   8.575  12.263
  103SBC   C04T72504   9.947   8.960  12.184
  103SBC   N00372505  10.077   9.188  12.292
  103SBC   C04P72506  10.261   9.283  12.421
  103SBC   C03D72507  10.473   9.236  12.575
  103SBC   C02172508  10.567   8.992  12.641
  103SBC   C03F72509  10.292   8.912  12.408
  103SBC   C02272510  10.546   8.761  12.626
  103SBC   C02A72511  10.276   8.674  12.395
  103SBC   C02372512  10.522   8.528  12.613
  103SBC   C02572513  10.409   8.300  12.500
  103SBC   C02D72514  10.350   8.182  12.455
  103SBC   C02E72515  10.393   8.061  12.500
  103SBC   C02N72516  10.327   7.940  12.474
  103SBC   C04N72517  10.211   8.559  12.344
  103SBC   C02P72518  10.239   8.189  12.375
  103SBC   C04I72519  10.031   8.458  12.226
  103SBC   C04472520   9.883   8.231  12.172
  103SBC   C04372521  10.167   8.072  12.341
  103SBC   C05N72522  10.207   7.950  12.392
  103SBC   C09U72523   9.954   7.615  12.342
  103SBC   C09V72524   9.859   7.510  12.332
  103SBC   C09X72525   9.888   7.383  12.369
  103SBC   C09Y72526   9.799   7.273  12.373
  103SBC   C0A172527   9.666   7.303  12.355
  103SBC   C0A272528   9.630   7.433  12.314
  103SBC   C0A472529   9.494   7.462  12.293
  103SBC   C07172530   9.459   7.591  12.249
  103SBC   C0A572531   9.324   7.624  12.246
  103SBC   C0A972532   9.227   7.527  12.275
  103SBC   C0A872533   9.264   7.406  12.321
  103SBC   C0AP72534   9.168   7.319  12.361
  103SBC   C0BY72535   9.214   7.192  12.397
  103SBC   C0BX72536   9.342   7.148  12.416
  103SBC   C0C272537   9.374   7.022  12.470
  103SBC   C0C372538   9.506   6.992  12.494
  103SBC   C0CT72539   9.604   7.084  12.455
  103SBC   C0C172540   9.272   6.934  12.506
  103SBC   C0C072541   9.133   6.986  12.496
  103SBC   C0A772542   9.436   7.238  12.380
  103SBC   C0BZ72543   9.117   7.110  12.449
  103SBC   C0BO72544   8.982   7.144  12.459
  103SBC   C0BN72545   8.944   7.268  12.417
  103SBC   C0BM72546   8.814   7.302  12.444
  103SBC   C0B972547   8.770   7.425  12.400
  103SBC   C0B872548   8.859   7.512  12.345
  103SBC   C0AD72549   8.993   7.471  12.321
  103SBC   C0AF72550   8.816   7.630  12.300
  103SBC   C0AG72551   8.681   7.677  12.311
  103SBC   C0B772552   8.592   7.589  12.367
  103SBC   C0AE72553   8.913   7.712  12.251
  103SBC   C0AB72554   9.049   7.683  12.236
  103SBC   C0AA72555   9.147   7.777  12.198
  103SBC   C0AJ72556   8.876   7.840  12.224
  103SBC   C0AK72557   8.972   7.926  12.169
  103SBC   C06W72558   8.915   8.048  12.161
  103SBC   C0AI72559   8.750   7.899  12.242
  103SBC   C0BP72560   8.905   7.051  12.526
  103SBC   C0BQ72561   8.764   7.081  12.538
  103SBC   C0BW72562   9.036   7.353  12.364
  103SBC   C0AC72563   9.092   7.564  12.276
  103SBC   C0A672564   9.401   7.369  12.330
  103SBC   C0A372565   9.569   7.208  12.393
  103SBC   C09Z72566   9.830   7.149  12.428
  103SBC   C09W72567   9.724   7.537  12.301
  103SBC   C07272568   9.689   7.666  12.261
  103SBC   C09H72569  10.019   7.360  12.392
  103SBC   C09G72570  10.058   7.233  12.427
  103SBC   C09P72571  10.181   7.247  12.487
  103SBC   C02O72572  10.342   7.584  12.570
  103SBC   C02M72573  10.369   7.820  12.525
  103SBC   C02F72574  10.508   8.057  12.575
  103SBC   C00W72575  10.669   8.167  12.711
  103SBC   C01R72576  10.839   8.133  12.949
  103SBC   C01N72577  10.690   7.836  12.789
  103SBC   C01L72578  10.692   7.620  12.886
  103SBC   C01H72579  10.888   7.492  13.158
  103SBC   C01K72580  10.914   7.858  13.081
  103SBC   C01E72581  11.085   7.858  13.289
  103SBC   C01G72582  10.984   7.486  13.274
  103SBC   C01D72583  11.173   7.849  13.401
  103SBC   C01A72584  11.350   7.836  13.629
  103SBC   H00172585  11.411   7.835  13.718
  103SBC   C01F72586  11.162   7.486  13.492
  103SBC   C03P72587  11.231   7.253  13.640
  103SBC   C03T72588  11.081   7.129  13.506
  103SBC   C08I72589  10.921   6.907  13.439
  103SBC   C08J72590  10.832   6.808  13.405
  103SBC   C08L72591  10.649   6.722  13.265
  103SBC   C09372592  10.438   6.650  13.137
  103SBC   C08Z72593  10.477   6.876  12.982
  103SBC   C09T72594  10.073   6.679  12.832
  103SBC   C09S72595  10.306   6.918  12.728
  103SBC   C09Q72596  10.237   7.135  12.553
  103SBC   C09F72597   9.964   7.132  12.457
  103SBC   C09E72598   9.980   6.829  12.660
  103SBC   C0A072599   9.739   7.053  12.467
  103SBC   C0CU72600   9.540   6.875  12.565
  103SBC   C0CR72601   9.438   6.778  12.593
  103SBC   C0CZ72602   9.478   6.658  12.657
  103SBC   C0DA72603   9.951   6.734  12.765
  103SBC   C0D972604   9.762   6.524  12.968
  103SBC   H00V72605   9.807   6.568  13.056
  103SBC   C0CY72606   9.611   6.639  12.697
  103SBC   C0DF72607   9.667   6.423  12.964
  103SBC   C0DE72608   9.573   6.365  13.061
  103SBC   C0GI72609   9.595   6.316  13.193
  103SBC   H01K72610   9.688   6.310  13.246
  103SBC   C0GJ72611   9.486   6.267  13.250
  103SBC   H01J72612   9.502   6.204  13.336
  103SBC   O00I72613   9.355   6.257  13.198
  103SBC   C0GH72614   9.333   6.314  13.072
  103SBC   C0GG72615   9.197   6.324  13.035
  103SBC   O00G72616   9.112   6.256  13.115
  103SBC   C0G872617   8.984   6.302  13.126
  103SBC   C0G972618   8.916   6.245  13.231
  103SBC   H01G72619   8.958   6.166  13.292
  103SBC   C0GA72620   8.796   6.304  13.266
  103SBC   H01H72621   8.746   6.259  13.351
  103SBC   C0GB72622   8.747   6.428  13.212
  103SBC   C0EP72623   8.813   6.468  13.089
  103SBC   C0E872624   8.741   6.571  13.015
  103SBC   C0CK72625   8.756   6.631  12.888
  103SBC   C0CL72626   8.837   6.581  12.787
  103SBC   C0E972627   8.953   6.502  12.813
  103SBC   C0GE72628   9.008   6.432  12.930
  103SBC   C0E772629   8.628   6.639  13.073
  103SBC   C0CJ72630   8.578   6.738  12.990
  103SBC   C0E672631   8.464   6.811  13.036
  103SBC   H00Y72632   8.416   6.889  12.979
  103SBC   C0EO72633   8.410   6.774  13.163
  103SBC   H01172634   8.318   6.821  13.193
  103SBC   C0G672635   8.459   6.662  13.240
  103SBC   C0G572636   8.406   6.608  13.364
  103SBC   H01F72637   8.316   6.645  13.413
  103SBC   C0GD72638   8.466   6.503  13.421
  103SBC   H01I72639   8.424   6.474  13.516
  103SBC   O00H72640   8.580   6.444  13.381
  103SBC   C0EQ72641   8.579   6.598  13.194
  103SBC   C0GC72642   8.632   6.490  13.261
  103SBC   C0G772643   8.928   6.403  13.042
  103SBC   C0DD72644   9.446   6.356  13.001
  103SBC   C0GF72645   9.147   6.395  12.918
  103SBC   C0CO72646   9.026   6.517  12.694
  103SBC   C0D072647   9.369   6.568  12.694
  103SBC   C0C472648   9.300   6.806  12.560
  103SBC   C0CN72649   8.972   6.605  12.600
  103SBC   C0CP72650   8.999   6.945  12.543
  103SBC   C0CM72651   8.847   6.647  12.656
  103SBC   C0CI72652   8.655   6.731  12.866
  103SBC   C0CD72653   8.308   6.978  12.664
  103SBC   C0BR72654   8.672   6.990  12.601
  103SBC   C0CS72655   8.722   7.203  12.489
  103SBC   C0B672656   8.636   7.463  12.412
  103SBC   C0CG72657   8.362   7.190  12.559
  103SBC   C0CF72658   8.266   7.097  12.606
  103SBC   C0E572659   8.074   6.920  12.713
  103SBC   C0DT72660   7.808   7.002  12.725
  103SBC   C0DL72661   7.957   7.300  12.578
  103SBC   C0DM72662   7.919   7.431  12.548
  103SBC   C0DY72663   7.686   7.381  12.594
  103SBC   C0DU72664   7.679   7.044  12.729
  103SBC   C0F072665   7.472   7.025  12.857
  103SBC   C0F472666   7.261   7.130  12.976
  103SBC   C0FG72667   7.337   7.368  12.698
  103SBC   O00B72668   7.141   7.345  13.007
  103SBC   C0FN72669   7.297   7.496  12.708
  103SBC   C0DZ72670   7.555   7.423  12.625
  103SBC   O00C72671   7.600   7.788  12.596
  103SBC   C0FR72672   7.683   7.880  12.556
  103SBC   O00D72673   7.645   7.993  12.573
  103SBC   C0E072674   7.786   7.473  12.564
  103SBC   C0E372675   7.813   7.834  12.507
  103SBC   C0AW72676   7.913   7.925  12.477
  103SBC   C0AV72677   7.900   8.067  12.471
  103SBC   H00Q72678   7.808   8.118  12.497
  103SBC   C0AU72679   8.006   8.156  12.441
  103SBC   H00R72680   8.007   8.262  12.456
  103SBC   C0AT72681   8.120   8.096  12.393
  103SBC   C0AS72682   8.245   8.146  12.335
  103SBC   C0AR72683   8.248   8.279  12.286
  103SBC   C0BE72684   8.131   7.960  12.393
  103SBC   C0DN72685   8.018   7.517  12.501
  103SBC   C0AX72686   8.032   7.869  12.440
  103SBC   C0BB72687   8.244   7.574  12.453
  103SBC   C0BD72688   8.259   7.926  12.365
  103SBC   C0B272689   8.461   7.629  12.380
  103SBC   C0AH72690   8.642   7.811  12.282
  103SBC   C0BF72691   8.342   8.036  12.324
  103SBC   C0AL72692   8.776   8.032  12.192
  103SBC   C07U72693   8.492   8.255  12.193
  103SBC   C0AQ72694   8.371   8.323  12.230
  103SBC   C0BG72695   8.150   8.397  12.283
  103SBC   C0FY72696   8.166   8.654  12.029
  103SBC   C0BJ72697   8.009   8.414  12.227
  103SBC   H00S72698   7.930   8.341  12.223
  103SBC   C0FZ72699   8.043   8.678  11.975
  103SBC   C07S72700   8.283   8.659  11.947
  103SBC   C0G172701   8.112   8.776  11.639
  103SBC   C07K72702   8.451   8.708  11.489
  103SBC   C07H72703   8.501   8.654  11.761
  103SBC   C06B72704   8.775   8.830  11.721
  103SBC   C06N72705   8.942   8.696  11.815
  103SBC   C06672706   8.627   8.531  11.950
  103SBC   C06272707   8.834   8.330  12.080
  103SBC   C05Y72708   9.114   8.553  11.944
  103SBC   C06172709   8.959   8.287  12.137
  103SBC   C05H72710   9.291   8.279  11.998
  103SBC   C06V72711   8.996   8.151  12.134
  103SBC   C06Y72712   9.110   7.899  12.153
  103SBC   C05C72713   9.438   8.071  12.089
  103SBC   C06Z72714   9.283   7.749  12.201
  103SBC   C07072715   9.553   7.690  12.226
  103SBC   C05B72716   9.571   8.043  12.116
  103SBC   C05772717   9.839   7.994  12.206
  103SBC   C05972718   9.783   7.768  12.261
  104SBC   C05872719   4.909  11.186   9.588
  104SBC   C05A72720   4.991  11.114   9.498
  104SBC   C06Q72721   5.130  11.118   9.509
  104SBC   C06R72722   5.209  11.045   9.420
  104SBC   C06S72723   5.157  10.957   9.325
  104SBC   C06T72724   5.247  10.884   9.236
  104SBC   C06U72725   5.224  10.788   9.124
  104SBC   C06X72726   5.104  10.746   9.064
  104SBC   C06072727   5.133  10.645   8.966
  104SBC   C05Z72728   5.066  10.601   8.845
  104SBC   C06872729   5.180  10.585   8.753
  104SBC   C06772730   5.173  10.547   8.614
  104SBC   C06972731   5.051  10.487   8.562
  104SBC   C06A72732   5.021  10.445   8.424
  104SBC   C07372733   5.034  10.521   8.313
  104SBC   C07P72734   4.921  10.553   8.225
  104SBC   C07O72735   4.785  10.540   8.260
  104SBC   H00D72736   4.764  10.512   8.362
  104SBC   C07N72737   4.680  10.586   8.180
  104SBC   H00E72738   4.578  10.561   8.206
  104SBC   C07M72739   4.706  10.630   8.053
  104SBC   H00F72740   4.622  10.649   7.988
  104SBC   C07L72741   4.838  10.628   8.005
  104SBC   C07Q72742   4.883  10.671   7.873
  104SBC   H00G72743   4.807  10.711   7.807
  104SBC   O00F72744   5.011  10.680   7.829
  104SBC   C07J72745   5.109  10.653   7.924
  104SBC   C07I72746   5.075  10.615   8.056
  104SBC   N00472747   5.187  10.604   8.147
  104SBC   C07R72748   5.318  10.623   8.096
  104SBC   C07T72749   5.337  10.659   7.961
  104SBC   C0FX72750   5.461  10.692   7.912
  104SBC   C0FW72751   5.494  10.746   7.790
  104SBC   C0G072752   5.385  10.753   7.701
  104SBC   C0G272753   5.396  10.809   7.574
  104SBC   H01E72754   5.315  10.827   7.504
  104SBC   C0G372755   5.527  10.849   7.535
  104SBC   H01C72756   5.552  10.893   7.440
  104SBC   C0G472757   5.635  10.843   7.631
  104SBC   H01D72758   5.729  10.877   7.590
  104SBC   O00E72759   5.262  10.712   7.740
  104SBC   C0FV72760   5.620  10.792   7.759
  104SBC   C0FU72761   5.724  10.783   7.862
  104SBC   H01B72762   5.820  10.827   7.837
  104SBC   C0FT72763   5.699  10.707   7.977
  104SBC   C0FS72764   5.772  10.669   8.100
  104SBC   C0BI72765   5.682  10.573   8.166
  104SBC   C0BH72766   5.719  10.559   8.308
  104SBC   C07F72767   5.627  10.589   8.411
  104SBC   C07E72768   5.488  10.586   8.420
  104SBC   C07G72769   5.405  10.580   8.310
  104SBC   C07472770   5.275  10.572   8.366
  104SBC   C06572771   5.416  10.592   8.539
  104SBC   C06472772   5.499  10.616   8.652
  104SBC   C06372773   5.451  10.644   8.776
  104SBC   C07572774   5.573  10.681   8.854
  104SBC   C0AM72775   5.689  10.692   8.775
  104SBC   C0AN72776   5.830  10.729   8.813
  104SBC   C0AO72777   5.888  10.790   8.941
  104SBC   C0B172778   6.028  10.813   8.956
  104SBC   C0B072779   6.120  10.776   8.859
  104SBC   C0AZ72780   6.259  10.807   8.858
  104SBC   C0AY72781   6.333  10.792   8.747
  104SBC   N00772782   6.468  10.826   8.742
  104SBC   C0E272783   6.539  10.820   8.618
  104SBC   C0E172784   6.675  10.859   8.625
  104SBC   C0E472785   6.743  10.865   8.501
  104SBC   C0FF72786   6.879  10.895   8.491
  104SBC   C0FJ72787   6.967  10.916   8.381
  104SBC   C0FK72788   6.939  11.004   8.277
  104SBC   H01672789   6.841  11.045   8.258
  104SBC   C0FL72790   7.069  11.053   8.224
  104SBC   H01772791   7.097  11.129   8.153
  104SBC   C0FM72792   7.175  10.993   8.298
  104SBC   C0FH72793   7.305  11.024   8.366
  104SBC   C0FI72794   7.283  10.969   8.496
  104SBC   C0F372795   7.345  11.035   8.606
  104SBC   C0F272796   7.272  11.027   8.721
  104SBC   C0DW72797   7.145  10.981   8.741
  104SBC   C0FE72798   7.080  10.926   8.632
  104SBC   C0DV72799   7.069  11.008   8.849
  104SBC   C0DX72800   6.931  10.981   8.851
  104SBC   C0DK72801   6.852  11.014   8.959
  104SBC   C0DJ72802   6.909  11.093   9.059
  104SBC   C0DI72803   6.821  11.136   9.157
  104SBC   C0DH72804   6.693  11.085   9.177
  104SBC   C0DG72805   6.638  10.999   9.073
  104SBC   C0BV72806   6.503  10.968   9.074
  104SBC   C0BC72807   6.452  10.891   8.970
  104SBC   C0BA72808   6.424  11.001   9.183
  104SBC   C0B472809   6.287  10.968   9.184
  104SBC   C0B372810   6.230  10.901   9.076
  104SBC   C0B572811   6.209  11.019   9.286
  104SBC   C0BU72812   6.267  11.093   9.392
  104SBC   C0BT72813   6.401  11.130   9.392
  104SBC   C0BS72814   6.452  11.221   9.489
  104SBC   C0CC72815   6.579  11.271   9.470
  104SBC   C0CB72816   6.631  11.369   9.549
  104SBC   C0CH72817   6.717  11.454   9.489
  104SBC   C0DO72818   6.812  11.405   9.394
  104SBC   C0DP72819   6.930  11.470   9.369
  104SBC   C0EA72820   6.962  11.592   9.438
  104SBC   H01272821   6.884  11.656   9.477
  104SBC   O00972822   7.083  11.648   9.437
  104SBC   C0EH72823   7.176  11.591   9.352
  104SBC   C0EG72824   7.295  11.658   9.340
  104SBC   C0EJ72825   7.339  11.782   9.404
  104SBC   H01072826   7.293  11.843   9.480
  104SBC   C0EK72827   7.472  11.813   9.349
  104SBC   H00Z72828   7.544  11.892   9.363
  104SBC   C0EL72829   7.499  11.704   9.250
  104SBC   C0EM72830   7.591  11.687   9.139
  104SBC   C0EW72831   7.701  11.766   9.105
  104SBC   H01372832   7.726  11.853   9.164
  104SBC   C0EX72833   7.798  11.724   9.004
  104SBC   H01472834   7.885  11.782   8.977
  104SBC   C0F172835   7.773  11.603   8.928
  104SBC   C0EU72836   7.654  11.537   8.954
  104SBC   C0ET72837   7.605  11.425   8.884
  104SBC   C0ES72838   7.486  11.391   8.956
  104SBC   C0EE72839   7.464  11.481   9.064
  104SBC   C0ED72840   7.372  11.501   9.169
  104SBC   C0EC72841   7.250  11.422   9.189
  104SBC   C0EB72842   7.213  11.305   9.116
  104SBC   C0EN72843   7.292  11.248   9.004
  104SBC   C0ER72844   7.253  11.122   8.947
  104SBC   C0DS72845   7.084  11.244   9.134
  104SBC   C0DR72846   6.994  11.294   9.225
  104SBC   C0EY72847   7.419  11.274   8.940
  104SBC   C0EZ72848   7.428  11.195   8.821
  104SBC   C0F572849   7.500  11.205   8.690
  104SBC   C0F672850   7.611  11.297   8.665
  104SBC   N00872851   7.672  11.294   8.534
  104SBC   C0F772852   7.607  11.222   8.425
  104SBC   C0FQ72853   7.668  11.232   8.296
  104SBC   H01872854   7.622  11.189   8.209
  104SBC   C0FP72855   7.786  11.298   8.272
  104SBC   H01972856   7.830  11.303   8.173
  104SBC   C0FO72857   7.853  11.353   8.380
  104SBC   H01A72858   7.947  11.404   8.367
  104SBC   C0F872859   7.484  11.154   8.452
  104SBC   C0F972860   7.795  11.360   8.515
  104SBC   C0FA72861   7.863  11.435   8.619
  104SBC   H01572862   7.957  11.488   8.607
  104SBC   C0FB72863   7.793  11.451   8.738
  104SBC   C0FD72864   7.672  11.385   8.756
  104SBC   C0FC72865   7.853  11.555   8.823
  104SBC   O00A72866   7.962  11.610   8.797
  104SBC   C0EV72867   7.569  11.574   9.058
  104SBC   C0EF72868   7.391  11.615   9.254
  104SBC   C0EI72869   7.153  11.468   9.280
  104SBC   C0DQ72870   7.029  11.409   9.297
  104SBC   C0CE72871   6.778  11.288   9.333
  104SBC   H00U72872   6.726  11.554   9.530
  104SBC   C0CA72873   6.572  11.386   9.678
  104SBC   C0C972874   6.437  11.339   9.708
  104SBC   C0C872875   6.377  11.365   9.843
  104SBC   C0C772876   6.242  11.369   9.898
  104SBC   C0C672877   6.228  11.399  10.031
  104SBC   C0C572878   6.123  11.456  10.114
  104SBC   C0CQ72879   6.175  11.537  10.224
  104SBC   C0D172880   6.309  11.579  10.228
  104SBC   C0D872881   6.317  11.711  10.255
  104SBC   C0D772882   6.196  11.736  10.333
  104SBC   C0D672883   6.157  11.865  10.384
  104SBC   C0D572884   6.038  11.884  10.467
  104SBC   C0D472885   5.924  11.797  10.473
  104SBC   C0D372886   5.815  11.881  10.504
  104SBC   C0CX72887   5.696  11.828  10.453
  104SBC   C0CW72888   5.737  11.735  10.342
  104SBC   C0CV72889   5.673  11.665  10.230
  104SBC   C0D272890   5.533  11.679  10.206
  104SBC   C09D72891   5.439  11.762  10.279
  104SBC   C09C72892   5.306  11.776  10.230
  104SBC   C09B72893   5.199  11.848  10.301
  104SBC   C09A72894   5.235  11.906  10.425
  104SBC   C09972895   5.368  11.916  10.458
  104SBC   C09872896   5.378  11.940  10.598
  104SBC   C08Y72897   5.246  11.924  10.657
  104SBC   C08X72898   5.204  11.880  10.789
  104SBC   C08W72899   5.297  11.855  10.895
  104SBC   C08U72900   5.447  11.863  10.880
  104SBC   C08V72901   5.542  11.875  10.774
  104SBC   C0DC72902   5.672  11.894  10.835
  104SBC   H00W72903   5.760  11.924  10.780
  104SBC   C0DB72904   5.666  11.867  10.977
  104SBC   H00X72905   5.747  11.870  11.049
  104SBC   C08T72906   5.526  11.846  10.999
  104SBC   C08S72907   5.471  11.829  11.127
  104SBC   H00N72908   5.539  11.819  11.210
  104SBC   C08R72909   5.335  11.806  11.138
  104SBC   C08Q72910   5.280  11.746  11.258
  104SBC   H00O72911   5.355  11.735  11.335
  104SBC   C08P72912   5.147  11.707  11.276
  104SBC   C08O72913   5.088  11.652  11.394
  104SBC   H00P72914   5.154  11.634  11.477
  104SBC   C08N72915   4.952  11.630  11.408
  104SBC   C08M72916   4.903  11.562  11.526
  104SBC   O00872917   4.971  11.550  11.630
  104SBC   O00772918   4.771  11.528  11.525
  104SBC   C08H72919   4.684  11.551  11.422
  104SBC   C08G72920   4.551  11.505  11.430
  104SBC   C03V72921   4.491  11.441  11.537
  104SBC   H00972922   4.548  11.412  11.625
  104SBC   C03U72923   4.352  11.407  11.532
  104SBC   C03W72924   4.279  11.342  11.635
  104SBC   H00A72925   4.320  11.306  11.728
  104SBC   C03X72926   4.150  11.321  11.632
  104SBC   H00B72927   4.109  11.265  11.715
  104SBC   O00572928   4.077  11.350  11.522
  104SBC   C03O72929   4.143  11.399  11.411
  104SBC   C03N72930   4.072  11.420  11.294
  104SBC   O00072931   3.940  11.388  11.299
  104SBC   C01972932   3.873  11.403  11.182
  104SBC   C01872933   3.930  11.446  11.060
  104SBC   C01772934   4.062  11.496  11.066
  104SBC   C01672935   4.116  11.557  10.953
  104SBC   C01572936   4.035  11.553  10.842
  104SBC   C01472937   4.084  11.611  10.725
  104SBC   C01372938   4.220  11.655  10.713
  104SBC   C01272939   4.237  11.676  10.569
  104SBC   C01172940   4.109  11.655  10.513
  104SBC   C01072941   4.088  11.674  10.379
  104SBC   C00Z72942   3.974  11.633  10.304
  104SBC   C00Y72943   4.029  11.637  10.173
  104SBC   C01O72944   4.161  11.668  10.163
  104SBC   C01P72945   4.254  11.607  10.073
  104SBC   C02L72946   4.388  11.610  10.106
  104SBC   C02K72947   4.425  11.650  10.233
  104SBC   C01M72948   4.330  11.682  10.340
  104SBC   C02J72949   4.563  11.681  10.242
  104SBC   C02I72950   4.630  11.749  10.341
  104SBC   C02H72951   4.582  11.786  10.468
  104SBC   C01Q72952   4.466  11.751  10.538
  104SBC   C02G72953   4.493  11.774  10.676
  104SBC   C08972954   4.618  11.842  10.687
  104SBC   C08872955   4.675  11.802  10.811
  104SBC   C08772956   4.563  11.734  10.878
  104SBC   C08672957   4.566  11.695  11.013
  104SBC   C03S72958   4.463  11.628  11.089
  104SBC   N00672959   4.527  11.584  11.203
  104SBC   C08F72960   4.656  11.632  11.204
  104SBC   C01J72961   4.329  11.586  11.071
  104SBC   C03R72962   4.273  11.522  11.184
  104SBC   C03Q72963   4.342  11.486  11.300
  104SBC   C08E72964   4.691  11.697  11.088
  104SBC   C08D72965   4.829  11.742  11.072
  104SBC   C08K72966   4.921  11.712  11.177
  104SBC   C08C72967   4.882  11.796  10.957
  104SBC   C09172968   5.029  11.812  10.943
  104SBC   C09272969   5.120  11.785  11.051
  104SBC   C08B72970   4.822  11.827  10.835
  104SBC   C09072971   4.933  11.879  10.751
  104SBC   C09472972   4.925  11.892  10.603
  104SBC   C09572973   5.028  11.898  10.513
  104SBC   C09R72974   4.984  11.867  10.391
  104SBC   C09772975   4.848  11.840  10.396
  104SBC   C09672976   4.810  11.874  10.526
  104SBC   C01I72977   4.439  11.721  10.799
  104SBC   C08A72978   4.676  11.840  10.556
  104SBC   C09L72979   4.761  11.773  10.303
  104SBC   C09K72980   4.782  11.714  10.179
  104SBC   C09J72981   4.900  11.693  10.121
  104SBC   C09I72982   4.930  11.596  10.031
  104SBC   C09O72983   4.853  11.501   9.948
  104SBC   C09N72984   4.710  11.494   9.945
  104SBC   C09M72985   4.617  11.562  10.029
  104SBC   C06O72986   4.657  11.412   9.841
  104SBC   C05M72987   4.743  11.332   9.763
  104SBC   C06P72988   4.880  11.337   9.776
  104SBC   C04272989   4.687  11.260   9.658
  104SBC   C04172990   4.547  11.250   9.645
  104SBC   C04072991   4.494  11.163   9.545
  104SBC   C03Z72992   4.355  11.154   9.530
  104SBC   C03Y72993   4.273  11.222   9.617
  104SBC   C02772994   4.135  11.211   9.597
  104SBC   C02672995   4.048  11.270   9.692
  104SBC   C02872996   3.918  11.250   9.683
  104SBC   C02972997   3.861  11.165   9.586
  104SBC   C02B72998   3.724  11.138   9.587
  104SBC   C02C72999   3.673  11.056   9.490
  104SBC   C02X73000   3.540  11.024   9.495
  104SBC   C03E73001   3.491  10.945   9.396
  104SBC   C03G73002   3.564  10.882   9.299
  104SBC   C04Q73003   3.699  10.908   9.295
  104SBC   C04R73004   3.782  10.843   9.203
  104SBC   C04S73005   3.922  10.866   9.204
  104SBC   C04L73006   3.976  10.955   9.303
  104SBC   C04M73007   3.889  11.026   9.392
  104SBC   C04K73008   4.112  10.984   9.310
  104SBC   C04F73009   4.195  10.906   9.235
  104SBC   C04E73010   4.147  10.808   9.143
  104SBC   C04D73011   4.231  10.737   9.061
  104SBC   C05073012   4.179  10.637   8.980
  104SBC   C05173013   4.266  10.562   8.907
  104SBC   C05Q73014   4.213  10.473   8.814
  104SBC   C05V73015   4.304  10.393   8.739
  104SBC   N00573016   4.253  10.292   8.656
  104SBC   C07V73017   4.116  10.271   8.647
  104SBC   C08273018   4.069  10.161   8.573
  104SBC   C08173019   4.152  10.081   8.492
  104SBC   C07C73020   4.286  10.113   8.488
  104SBC   C07B73021   4.369  10.041   8.400
  104SBC   C08073022   4.328   9.926   8.330
  104SBC   C07Z73023   4.418   9.877   8.240
  104SBC   H00L73024   4.391   9.792   8.178
  104SBC   C07973025   4.550   9.917   8.217
  104SBC   C07873026   4.591  10.023   8.301
  104SBC   C07773027   4.723  10.068   8.284
  104SBC   C07X73028   4.816  10.008   8.190
  104SBC   H00I73029   4.918  10.040   8.176
  104SBC   C07Y73030   4.769   9.904   8.114
  104SBC   H00H73031   4.838   9.860   8.043
  104SBC   C07673032   4.764  10.176   8.361
  104SBC   C06C73033   4.885  10.246   8.329
  104SBC   H00C73034   4.944  10.231   8.239
  104SBC   C06F73035   4.684  10.220   8.469
  104SBC   C06E73036   4.734  10.301   8.567
  104SBC   C06G73037   4.664  10.370   8.661
  104SBC   C06H73038   4.527  10.342   8.662
  104SBC   C06I73039   4.475  10.242   8.575
  104SBC   C06L73040   4.722  10.469   8.746
  104SBC   C06M73041   4.861  10.507   8.736
  104SBC   C06K73042   4.636  10.539   8.832
  104SBC   C05S73043   4.498  10.515   8.825
  104SBC   C05U73044   4.689  10.626   8.927
  104SBC   C05X73045   4.829  10.649   8.935
  104SBC   C05G73046   4.863  10.734   9.043
  104SBC   C05F73047   4.770  10.790   9.120
  104SBC   C05E73048   4.815  10.869   9.218
  104SBC   C04873049   4.732  10.951   9.304
  104SBC   C05673050   4.797  11.029   9.395
  104SBC   C04573051   4.715  11.099   9.478
  104SBC   C04773052   4.598  10.933   9.288
  104SBC   C04973053   4.549  10.850   9.185
  104SBC   C04B73054   4.414  10.839   9.172
  104SBC   C04673055   4.519  11.008   9.367
  104SBC   C04H73056   4.385  11.002   9.353
  104SBC   C05D73057   4.955  10.876   9.213
  104SBC   C04A73058   4.632  10.781   9.104
  104SBC   C05T73059   4.597  10.696   9.010
  104SBC   C05573060   4.460  10.676   8.993
  104SBC   C06D73061   4.864  10.353   8.547
  104SBC   C07W73062   4.552  10.179   8.480
  104SBC   C08573063   4.637   9.863   8.119
  104SBC   H00M73064   4.587   9.785   8.064
  104SBC   C08473065   4.190   9.890   8.343
  104SBC   H00J73066   4.146   9.808   8.289
  104SBC   C07A73067   4.503  10.079   8.393
  104SBC   C08373068   4.111   9.974   8.415
  104SBC   H00K73069   4.005   9.954   8.411
  104SBC   O00K73070   3.933  10.139   8.572
  104SBC   C0GO73071   3.850  10.230   8.627
  104SBC   C0GN73072   3.713  10.209   8.610
  104SBC   H01L73073   3.673  10.132   8.547
  104SBC   C0GM73074   3.613  10.298   8.672
  104SBC   C0GL73075   3.481  10.290   8.646
  104SBC   H01M73076   3.446  10.226   8.566
  104SBC   O00J73077   3.391  10.372   8.703
  104SBC   C0GK73078   3.440  10.452   8.810
  104SBC   H01N73079   3.353  10.504   8.848
  104SBC   C05K73080   3.576  10.473   8.828
  104SBC   C05J73081   3.620  10.564   8.929
  104SBC   C04Y73082   3.544  10.626   9.032
  104SBC   C04X73083   3.591  10.721   9.125
  104SBC   O00673084   3.419  10.583   9.052
  104SBC   C05373085   3.347  10.612   9.167
  104SBC   C04O73086   3.388  10.721   9.247
  104SBC   C03C73087   3.314  10.779   9.358
  104SBC   C03B73088   3.200  10.737   9.443
  104SBC   C05473089   3.139  10.612   9.428
  104SBC   C0GR73090   3.028  10.567   9.514
  104SBC   C03M73091   2.968  10.614   9.642
  104SBC   C03I73092   3.029  10.714   9.730
  104SBC   C03J73093   2.971  10.735   9.859
  104SBC   N00273094   3.013  10.840   9.948
  104SBC   C02U73095   2.960  10.850  10.081
  104SBC   C02T73096   3.007  10.951  10.169
  104SBC   C02Z73097   2.961  10.958  10.300
  104SBC   N00173098   3.008  11.053  10.396
  104SBC   C02R73099   2.939  11.067  10.521
  104SBC   C03273100   2.824  10.995  10.555
  104SBC   C03173101   2.791  10.886  10.464
  104SBC   H00773102   2.713  10.816  10.489
  104SBC   C03373103   2.760  11.033  10.678
  104SBC   H00373104   2.665  10.987  10.702
  104SBC   O00473105   2.810  11.130  10.761
  104SBC   C03473106   2.919  11.199  10.728
  104SBC   C03573107   2.961  11.299  10.815
  104SBC   C03673108   3.078  11.374  10.790
  104SBC   H00573109   3.102  11.456  10.857
  104SBC   C03773110   3.145  11.349  10.671
  104SBC   H00673111   3.228  11.417  10.659
  104SBC   C00D73112   3.102  11.250  10.575
  104SBC   C00C73113   3.172  11.215  10.456
  104SBC   C00B73114   3.298  11.285  10.419
  104SBC   C00A73115   3.404  11.374  10.480
  104SBC   C00973116   3.470  11.416  10.360
  104SBC   C00873117   3.601  11.468  10.350
  104SBC   C00773118   3.672  11.493  10.473
  104SBC   C00673119   3.807  11.540  10.466
  104SBC   C00573120   3.878  11.544  10.590
  104SBC   C00473121   3.824  11.503  10.710
  104SBC   C00373122   3.698  11.437  10.708
  104SBC   C00273123   3.651  11.375  10.826
  104SBC   C01C73124   3.729  11.387  10.942
  104SBC   C01B73125   3.669  11.357  11.059
  104SBC   H00073126   3.562  11.353  11.065
  104SBC   C00173127   3.543  11.290  10.819
  104SBC   C00073128   3.472  11.285  10.692
  104SBC   C01U73129   3.395  11.169  10.709
  104SBC   H00273130   3.337  11.123  10.630
  104SBC   C01T73131   3.405  11.130  10.852
  104SBC   O00273132   3.342  11.047  10.922
  104SBC   O00173133   3.496  11.209  10.906
  104SBC   C01S73134   3.619  11.441  10.588
  104SBC   C00N73135   3.661  11.474  10.220
  104SBC   C00M73136   3.603  11.413  10.109
  104SBC   C00J73137   3.480  11.351  10.120
  104SBC   C00I73138   3.424  11.273  10.027
  104SBC   C00H73139   3.310  11.202  10.055
  104SBC   C00G73140   3.254  11.201  10.181
  104SBC   C00F73141   3.163  11.119  10.228
  104SBC   C01X73142   3.256  11.113   9.963
  104SBC   C01W73143   3.316  11.103   9.841
  104SBC   C01V73144   3.437  11.173   9.816
  104SBC   C02073145   3.514  11.142   9.702
  104SBC   C01Z73146   3.269  11.009   9.749
  104SBC   C02Y73147   3.340  11.006   9.629
  104SBC   C03973148   3.288  10.917   9.536
  104SBC   C02W73149   3.169  10.919   9.780
  104SBC   C01Y73150   3.152  11.030   9.999
  104SBC   C00U73151   3.492  11.257   9.910
  104SBC   C00S73152   3.618  11.309   9.892
  104SBC   C00T73153   3.697  11.271   9.783
  104SBC   C00R73154   3.672  11.393   9.989
  104SBC   C00Q73155   3.802  11.437   9.979
  104SBC   C00V73156   3.881  11.392   9.874
  104SBC   C02473157   4.019  11.415   9.879
  104SBC   C00X73158   4.070  11.504   9.968
  104SBC   C00P73159   3.852  11.512  10.083
  104SBC   C00O73160   3.788  11.522  10.208
  104SBC   C00K73161   3.414  11.368  10.244
  104SBC   N00073162   3.498  11.363  10.582
  104SBC   C00L73163   3.311  11.287  10.279
  104SBC   H00473164   2.910  11.311  10.909
  104SBC   C02Q73165   2.987  11.171  10.602
  104SBC   C00E73166   3.114  11.132  10.359
  104SBC   C03073167   2.858  10.866  10.341
  104SBC   O00373168   2.809  10.770  10.253
  104SBC   C02S73169   3.101  11.038  10.131
  104SBC   C03873170   2.862  10.762  10.126
  104SBC   C03L73171   2.813  10.673  10.038
  104SBC   H00873172   2.732  10.608  10.068
  104SBC   C02V73173   3.112  10.935   9.907
  104SBC   C03K73174   2.861  10.659   9.904
  104SBC   C0BK73175   2.807  10.572   9.812
  104SBC   H00T73176   2.721  10.512   9.837
  104SBC   C03H73177   3.130  10.813   9.694
  104SBC   C0BL73178   2.851  10.544   9.681
  104SBC   C0GU73179   2.794  10.443   9.601
  104SBC   H01O73180   2.703  10.392   9.628
  104SBC   C0GT73181   2.845  10.407   9.477
  104SBC   H01P73182   2.793  10.328   9.424
  104SBC   C0GS73183   2.963  10.465   9.436
  104SBC   C0GV73184   3.043  10.432   9.319
  104SBC   C0GW73185   3.020  10.331   9.222
  104SBC   H01Q73186   2.938  10.262   9.230
  104SBC   C0GX73187   3.110  10.331   9.121
  104SBC   H01R73188   3.101  10.259   9.041
  104SBC   O00L73189   3.219  10.416   9.111
  104SBC   C0GQ73190   3.151  10.527   9.316
  104SBC   C03A73191   3.191  10.821   9.560
  104SBC   C05L73192   3.237  10.524   9.202
  104SBC   C04W73193   3.764  10.589   8.933
  104SBC   C05I73194   3.850  10.513   8.863
  104SBC   C05O73195   3.808  10.416   8.774
  104SBC   C05273196   3.987  10.528   8.878
  104SBC   C04V73197   3.813  10.680   9.025
  104SBC   C04U73198   3.948  10.696   9.042
  104SBC   N00973199   3.667  10.396   8.753
  104SBC   C0GP73200   3.891  10.336   8.702
  104SBC   C05W73201   4.028  10.358   8.716
  104SBC   C07D73202   4.343  10.212   8.576
  104SBC   C06J73203   4.443  10.418   8.743
  104SBC   C05P73204   4.077  10.458   8.797
  104SBC   C05R73205   4.406  10.588   8.905
  104SBC   C04Z73206   4.040  10.618   8.966
  104SBC   C04C73207   4.370  10.751   9.070
  104SBC   C04G73208   4.333  10.915   9.255
  104SBC   C04J73209   4.165  11.064   9.411
  104SBC   C04T73210   4.008  10.787   9.123
  104SBC   N00373211   3.729  10.749   9.115
  104SBC   C04P73212   3.512  10.775   9.224
  104SBC   C03D73213   3.360  10.892   9.421
  104SBC   C02173214   3.462  11.063   9.606
  104SBC   C03F73215   3.754  10.999   9.389
  104SBC   C02273216   3.644  11.184   9.689
  104SBC   C02A73217   3.942  11.108   9.491
  104SBC   C02373218   3.833  11.310   9.775
  104SBC   C02573219   4.103  11.355   9.789
  104SBC   C02D73220   4.242  11.372   9.800
  104SBC   C02E73221   4.296  11.459   9.893
  104SBC   C02N73222   4.434  11.467   9.913
  104SBC   C04N73223   4.078  11.129   9.496
  104SBC   C02P73224   4.327  11.305   9.713
  104SBC   C04I73225   4.299  11.074   9.430
  104SBC   C04473226   4.577  11.089   9.462
  104SBC   C04373227   4.464  11.320   9.728
  104SBC   C05N73228   4.519  11.406   9.826
  104SBC   C09U73229   4.937  11.422   9.868
  104SBC   C09V73230   5.081  11.425   9.878
  104SBC   C09X73231   5.146  11.501   9.963
  104SBC   C09Y73232   5.283  11.513   9.978
  104SBC   C0A173233   5.361  11.439   9.898
  104SBC   C0A273234   5.299  11.355   9.808
  104SBC   C0A473235   5.380  11.281   9.725
  104SBC   C07173236   5.324  11.205   9.627
  104SBC   C0A573237   5.405  11.138   9.536
  104SBC   C0A973238   5.542  11.140   9.546
  104SBC   C0A873239   5.597  11.217   9.643
  104SBC   C0AP73240   5.731  11.236   9.650
  104SBC   C0BY73241   5.785  11.305   9.755
  104SBC   C0BX73242   5.717  11.368   9.851
  104SBC   C0C273243   5.785  11.433   9.957
  104SBC   C0C373244   5.705  11.508  10.046
  104SBC   C0CT73245   5.560  11.516  10.025
  104SBC   C0C173246   5.926  11.430   9.973
  104SBC   C0C073247   5.997  11.364   9.861
  104SBC   C0A773248   5.579  11.363   9.839
  104SBC   C0BZ73249   5.924  11.309   9.758
  104SBC   C0BO73250   6.007  11.256   9.663
  104SBC   C0BN73251   5.954  11.189   9.558
  104SBC   C0BM73252   6.043  11.128   9.474
  104SBC   C0B973253   5.986  11.048   9.377
  104SBC   C0B873254   5.849  11.036   9.367
  104SBC   C0AD73255   5.763  11.100   9.458
  104SBC   C0AF73256   5.796  10.959   9.267
  104SBC   C0AG73257   5.872  10.909   9.164
  104SBC   C0B773258   6.010  10.930   9.171
  104SBC   C0AE73259   5.664  10.944   9.268
  104SBC   C0AB73260   5.573  11.003   9.359
  104SBC   C0AA73261   5.437  10.983   9.352
  104SBC   C0AJ73262   5.607  10.870   9.169
  104SBC   C0AK73263   5.474  10.839   9.169
  104SBC   C06W73264   5.454  10.751   9.066
  104SBC   C0AI73265   5.678  10.805   9.064
  104SBC   C0BP73266   6.140  11.272   9.694
  104SBC   C0BQ73267   6.240  11.221   9.599
  104SBC   C0BW73268   5.816  11.179   9.553
  104SBC   C0AC73269   5.625  11.077   9.461
  104SBC   C0A673270   5.519  11.288   9.734
  104SBC   C0A373271   5.499  11.438   9.921
  104SBC   C09Z73272   5.344  11.601  10.071
  104SBC   C09W73273   5.161  11.344   9.801
  104SBC   C07273274   5.102  11.273   9.698
  104SBC   C09H73275   5.070  11.602  10.015
  104SBC   C09G73276   5.129  11.691  10.101
  104SBC   C09P73277   5.025  11.750  10.170
  104SBC   C02O73278   4.660  11.650  10.139
  104SBC   C02M73279   4.480  11.553  10.015
  104SBC   C02F73280   4.209  11.524   9.975
  104SBC   C00W73281   3.987  11.550  10.070
  104SBC   C01R73282   3.852  11.562  10.330
  104SBC   C01N73283   4.202  11.689  10.295
  104SBC   C01L73284   4.352  11.699  10.480
  104SBC   C01H73285   4.311  11.660  10.827
  104SBC   C01K73286   4.014  11.603  10.599
  104SBC   C01E73287   3.905  11.502  10.828
  104SBC   C01G73288   4.251  11.606  10.951
  104SBC   C01D73289   3.852  11.449  10.944
  104SBC   C01A73290   3.738  11.365  11.177
  104SBC   H00173291   3.678  11.343  11.265
  104SBC   C01F73292   4.138  11.478  11.181
  104SBC   C03P73293   4.279  11.433  11.415
  104SBC   C03T73294   4.470  11.519  11.312
  104SBC   C08I73295   4.740  11.611  11.308
  104SBC   C08J73296   4.873  11.649  11.294
  104SBC   C08L73297   5.062  11.736  11.169
  104SBC   C09373298   5.254  11.816  11.029
  104SBC   C08Z73299   5.061  11.861  10.814
  104SBC   C09T73300   5.509  11.898  10.634
  104SBC   C09S73301   5.163  11.926  10.545
  104SBC   C09Q73302   5.060  11.826  10.282
  104SBC   C09F73303   5.265  11.691  10.134
  104SBC   C09E73304   5.463  11.826  10.407
  104SBC   C0A073305   5.480  11.605  10.099
  104SBC   C0CU73306   5.760  11.578  10.153
  104SBC   C0CR73307   5.901  11.570  10.170
  104SBC   C0CZ73308   5.960  11.648  10.275
  104SBC   C0DA73309   5.568  11.843  10.504
  104SBC   C0D973310   5.859  12.024  10.494
  104SBC   H00V73311   5.797  12.109  10.471
  104SBC   C0CY73312   5.875  11.722  10.363
  104SBC   C0DF73313   6.003  12.019  10.469
  104SBC   C0DE73314   6.114  12.089  10.406
  104SBC   C0GI73315   6.161  12.228  10.427
  104SBC   H01K73316   6.110  12.299  10.491
  104SBC   C0GJ73317   6.278  12.254  10.364
  104SBC   H01J73318   6.315  12.354  10.382
  104SBC   O00I73319   6.353  12.165  10.287
  104SBC   C0GH73320   6.326  12.030  10.284
  104SBC   C0GG73321   6.427  11.942  10.233
  104SBC   O00G73322   6.539  12.009  10.198
  104SBC   C0G873323   6.620  11.954  10.104
  104SBC   C0G973324   6.727  12.043  10.072
  104SBC   H01G73325   6.724  12.142  10.113
  104SBC   C0GA73326   6.831  11.994   9.993
  104SBC   H01H73327   6.907  12.065   9.966
  104SBC   C0GB73328   6.834  11.865   9.943
  104SBC   C0EP73329   6.717  11.788   9.964
  104SBC   C0E873330   6.707  11.670   9.883
  104SBC   C0CK73331   6.611  11.571   9.860
  104SBC   C0CL73332   6.533  11.526   9.964
  104SBC   C0E973333   6.491  11.608  10.073
  104SBC   C0GE73334   6.510  11.749  10.115
  104SBC   C0E773335   6.822  11.613   9.822
  104SBC   C0CJ73336   6.797  11.496   9.762
  104SBC   C0E673337   6.914  11.428   9.715
  104SBC   H00Y73338   6.903  11.328   9.675
  104SBC   C0EO73339   7.038  11.495   9.696
  104SBC   H01173340   7.131  11.457   9.655
  104SBC   C0G673341   7.044  11.634   9.739
  104SBC   C0G573342   7.151  11.721   9.710
  104SBC   H01F73343   7.236  11.685   9.653
  104SBC   C0GD73344   7.153  11.840   9.770
  104SBC   H01I73345   7.248  11.891   9.762
  104SBC   O00H73346   7.054  11.898   9.844
  104SBC   C0EQ73347   6.933  11.688   9.808
  104SBC   C0GC73348   6.941  11.817   9.864
  104SBC   C0G773349   6.619  11.822  10.058
  104SBC   C0DD73350   6.209  11.992  10.352
  104SBC   C0GF73351   6.416  11.802  10.208
  104SBC   C0CO73352   6.390  11.533  10.131
  104SBC   C0D073353   6.105  11.646  10.278
  104SBC   C0C473354   5.981  11.481  10.086
  104SBC   C0CN73355   6.367  11.411  10.067
  104SBC   C0CP73356   6.133  11.348   9.811
  104SBC   C0CM73357   6.454  11.401   9.957
  104SBC   C0CI73358   6.652  11.477   9.758
  104SBC   C0CD73359   6.656  11.230   9.360
  104SBC   C0BR73360   6.375  11.262   9.599
  104SBC   C0CS73361   6.182  11.144   9.493
  104SBC   C0B673362   6.068  10.999   9.276
  104SBC   C0CG73363   6.479  11.086   9.284
  104SBC   C0CF73364   6.611  11.132   9.276
  104SBC   C0E573365   6.869  11.235   9.239
  104SBC   C0DT73366   7.041  11.141   9.051
  104SBC   C0DL73367   6.716  10.971   8.966
  104SBC   C0DM73368   6.662  10.914   8.855
  104SBC   C0DY73369   6.871  10.936   8.734
  104SBC   C0DU73370   7.117  11.084   8.952
  104SBC   C0F073371   7.320  11.100   8.828
  104SBC   C0F473372   7.448  11.128   8.586
  104SBC   C0FG73373   7.156  10.918   8.507
  104SBC   O00B73374   7.412  11.104   8.338
  104SBC   C0FN73375   7.103  10.905   8.383
  104SBC   C0DZ73376   6.945  10.912   8.617
  104SBC   O00C73377   6.677  10.835   8.385
  104SBC   C0FR73378   6.545  10.809   8.379
  104SBC   O00D73379   6.496  10.818   8.270
  104SBC   C0E073380   6.734  10.902   8.737
  104SBC   C0E373381   6.476  10.787   8.502
  104SBC   C0AW73382   6.343  10.752   8.511
  104SBC   C0AV73383   6.272  10.717   8.393
  104SBC   H00Q73384   6.307  10.705   8.292
  104SBC   C0AU73385   6.132  10.690   8.397
  104SBC   H00R73386   6.082  10.683   8.301
  104SBC   C0AT73387   6.071  10.685   8.526
  104SBC   C0AS73388   5.931  10.680   8.566
  104SBC   C0AR73389   5.826  10.684   8.471
  104SBC   C0BE73390   6.147  10.722   8.635
  104SBC   C0DN73391   6.531  10.871   8.857
  104SBC   C0AX73392   6.280  10.751   8.630
  104SBC   C0BB73393   6.314  10.862   8.973
  104SBC   C0BD73394   6.062  10.733   8.742
  104SBC   C0B273395   6.086  10.879   9.069
  104SBC   C0AH73396   5.815  10.836   9.051
  104SBC   C0BF73397   5.927  10.715   8.712
  104SBC   C0AL73398   5.576  10.724   8.995
  104SBC   C07U73399   5.641  10.646   8.647
  104SBC   C0AQ73400   5.699  10.641   8.517
  104SBC   C0BG73401   5.833  10.634   8.327
  104SBC   C0FY73402   5.557  10.598   8.113
  104SBC   C0BJ73403   5.865  10.707   8.202
  104SBC   H00S73404   5.934  10.790   8.193
  104SBC   C0FZ73405   5.568  10.658   7.995
  104SBC   C07S73406   5.428  10.585   8.173
  104SBC   C0G173407   5.233  10.679   7.876
  104SBC   C07K73408   4.945  10.605   8.096
  104SBC   C07H73409   5.160  10.572   8.285
  104SBC   C06B73410   4.930  10.335   8.424
  104SBC   C06N73411   4.929  10.445   8.627
  104SBC   C06673412   5.278  10.568   8.515
  104SBC   C06273413   5.306  10.619   8.819
  104SBC   C05Y73414   4.915  10.592   8.835
  104SBC   C06173415   5.270  10.633   8.955
  104SBC   C05H73416   4.984  10.790   9.104
  104SBC   C06V73417   5.324  10.721   9.050
  104SBC   C06Y73418   5.383  10.898   9.260
  104SBC   C05C73419   5.018  10.955   9.316
  104SBC   C06Z73420   5.350  11.059   9.434
  104SBC   C07073421   5.188  11.199   9.612
  104SBC   C05B73422   4.935  11.033   9.403
  104SBC   C05773423   4.772  11.184   9.575
  104SBC   C05973424   4.965  11.269   9.684
  105SBC   C05873425  12.743   9.319   5.650
  105SBC   C05A73426  12.731   9.441   5.586
  105SBC   C06Q73427  12.757   9.457   5.447
  105SBC   C06R73428  12.747   9.583   5.388
  105SBC   C06S73429  12.709   9.701   5.456
  105SBC   C06T73430  12.710   9.824   5.384
  105SBC   C06U73431  12.657   9.959   5.429
  105SBC   C06X73432  12.599  10.012   5.549
  105SBC   C06073433  12.548  10.144   5.531
  105SBC   C05Z73434  12.545  10.260   5.617
  105SBC   C06873435  12.585  10.377   5.532
  105SBC   C06773436  12.595  10.521   5.561
  105SBC   C06973437  12.532  10.564   5.686
  105SBC   C06A73438  12.535  10.699   5.741
  105SBC   C07373439  12.627  10.801   5.732
  105SBC   C07P73440  12.666  10.863   5.851
  105SBC   C07O73441  12.656  10.821   5.987
  105SBC   H00D73442  12.607  10.727   6.007
  105SBC   C07N73443  12.691  10.895   6.099
  105SBC   H00E73444  12.675  10.852   6.197
  105SBC   C07M73445  12.748  11.015   6.073
  105SBC   H00F73446  12.787  11.076   6.153
  105SBC   C07L73447  12.776  11.064   5.944
  105SBC   C07Q73448  12.837  11.190   5.921
  105SBC   H00G73449  12.884  11.241   6.004
  105SBC   O00F73450  12.866  11.234   5.795
  105SBC   C07J73451  12.832  11.158   5.696
  105SBC   C07I73452  12.770  11.030   5.707
  105SBC   N00473453  12.734  10.962   5.592
  105SBC   C07R73454  12.757  11.024   5.468
  105SBC   C07T73455  12.821  11.146   5.458
  105SBC   C0FX73456  12.855  11.209   5.339
  105SBC   C0FW73457  12.935  11.320   5.319
  105SBC   C0G073458  12.964  11.388   5.437
  105SBC   C0G273459  13.026  11.512   5.434
  105SBC   H01E73460  13.042  11.564   5.527
  105SBC   C0G373461  13.068  11.564   5.310
  105SBC   H01C73462  13.121  11.658   5.298
  105SBC   C0G473463  13.047  11.486   5.195
  105SBC   H01D73464  13.088  11.515   5.099
  105SBC   O00E73465  12.930  11.336   5.560
  105SBC   C0FV73466  12.981  11.361   5.195
  105SBC   C0FU73467  12.951  11.272   5.083
  105SBC   H01B73468  12.990  11.278   4.982
  105SBC   C0FT73469  12.858  11.169   5.095
  105SBC   C0FS73470  12.805  11.059   5.016
  105SBC   C0BI73471  12.693  11.012   5.091
  105SBC   C0BH73472  12.654  10.885   5.044
  105SBC   C07F73473  12.661  10.763   5.121
  105SBC   C07E73474  12.649  10.746   5.259
  105SBC   C07G73475  12.654  10.837   5.354
  105SBC   C07473476  12.640  10.767   5.478
  105SBC   C06573477  12.639  10.619   5.317
  105SBC   C06473478  12.667  10.508   5.227
  105SBC   C06373479  12.673  10.373   5.263
  105SBC   C07573480  12.714  10.304   5.138
  105SBC   C0AM73481  12.734  10.401   5.024
  105SBC   C0AN73482  12.779  10.371   4.887
  105SBC   C0AO73483  12.812  10.240   4.813
  105SBC   C0B173484  12.846  10.233   4.676
  105SBC   C0B073485  12.864  10.347   4.602
  105SBC   C0AZ73486  12.901  10.357   4.468
  105SBC   C0AY73487  12.913  10.481   4.404
  105SBC   N00773488  12.971  10.492   4.277
  105SBC   C0E273489  12.993  10.620   4.225
  105SBC   C0E173490  13.053  10.628   4.100
  105SBC   C0E473491  13.101  10.750   4.056
  105SBC   C0FF73492  13.157  10.768   3.927
  105SBC   C0FJ73493  13.222  10.881   3.861
  105SBC   C0FK73494  13.294  10.977   3.936
  105SBC   H01673495  13.289  11.010   4.039
  105SBC   C0FL73496  13.407  11.014   3.846
  105SBC   H01773497  13.498  11.067   3.870
  105SBC   C0FM73498  13.389  10.955   3.717
  105SBC   C0FH73499  13.459  10.898   3.604
  105SBC   C0FI73500  13.380  10.785   3.576
  105SBC   C0F373501  13.447  10.667   3.530
  105SBC   C0F273502  13.379  10.557   3.563
  105SBC   C0DW73503  13.284  10.539   3.662
  105SBC   C0FE73504  13.235  10.648   3.725
  105SBC   C0DV73505  13.246  10.417   3.711
  105SBC   C0DX73506  13.177  10.410   3.830
  105SBC   C0DK73507  13.155  10.282   3.889
  105SBC   C0DJ73508  13.203  10.163   3.827
  105SBC   C0DI73509  13.181  10.041   3.884
  105SBC   C0DH73510  13.107  10.026   4.004
  105SBC   C0DG73511  13.063  10.144   4.069
  105SBC   C0BV73512  13.004  10.135   4.194
  105SBC   C0BC73513  12.974  10.251   4.265
  105SBC   C0BA73514  12.990  10.012   4.251
  105SBC   C0B473515  12.942  10.003   4.385
  105SBC   C0B373516  12.913  10.121   4.458
  105SBC   C0B573517  12.927   9.880   4.443
  105SBC   C0BU73518  12.959   9.764   4.370
  105SBC   C0BT73519  13.007   9.772   4.241
  105SBC   C0BS73520  13.036   9.653   4.167
  105SBC   C0CC73521  13.095   9.664   4.037
  105SBC   C0CB73522  13.136   9.550   3.967
  105SBC   C0CH73523  13.235   9.572   3.876
  105SBC   C0DO73524  13.271   9.692   3.815
  105SBC   C0DP73525  13.361   9.700   3.709
  105SBC   C0EA73526  13.413   9.583   3.651
  105SBC   H01273527  13.390   9.483   3.685
  105SBC   O00973528  13.514   9.595   3.561
  105SBC   C0EH73529  13.546   9.719   3.521
  105SBC   C0EG73530  13.646   9.724   3.425
  105SBC   C0EJ73531  13.735   9.623   3.371
  105SBC   H01073532  13.739   9.515   3.376
  105SBC   C0EK73533  13.822   9.689   3.276
  105SBC   H00Z73534  13.890   9.638   3.210
  105SBC   C0EL73535  13.793   9.828   3.287
  105SBC   C0EM73536  13.860   9.948   3.237
  105SBC   C0EW73537  13.976   9.960   3.150
  105SBC   H01373538  14.023   9.873   3.107
  105SBC   C0EX73539  14.026  10.097   3.120
  105SBC   H01473540  14.112  10.105   3.055
  105SBC   C0F173541  13.968  10.214   3.176
  105SBC   C0EU73542  13.856  10.199   3.260
  105SBC   C0ET73543  13.794  10.309   3.322
  105SBC   C0ES73544  13.691  10.237   3.390
  105SBC   C0EE73545  13.701  10.094   3.381
  105SBC   C0ED73546  13.635   9.970   3.418
  105SBC   C0EC73547  13.527   9.967   3.511
  105SBC   C0EB73548  13.459  10.077   3.564
  105SBC   C0EN73549  13.480  10.219   3.511
  105SBC   C0ER73550  13.392  10.317   3.557
  105SBC   C0DS73551  13.356  10.063   3.660
  105SBC   C0DR73552  13.328   9.940   3.718
  105SBC   C0EY73553  13.572  10.294   3.431
  105SBC   C0EZ73554  13.556  10.433   3.437
  105SBC   C0F573555  13.627  10.559   3.409
  105SBC   C0F673556  13.755  10.560   3.346
  105SBC   N00873557  13.821  10.692   3.338
  105SBC   C0F773558  13.764  10.811   3.396
  105SBC   C0FQ73559  13.847  10.928   3.383
  105SBC   H01873560  13.810  11.017   3.432
  105SBC   C0FP73561  13.969  10.930   3.323
  105SBC   H01973562  14.030  11.018   3.326
  105SBC   C0FO73563  14.022  10.816   3.270
  105SBC   H01A73564  14.112  10.809   3.211
  105SBC   C0F873565  13.639  10.798   3.468
  105SBC   C0F973566  13.947  10.698   3.270
  105SBC   C0FA73567  14.011  10.584   3.209
  105SBC   H01573568  14.107  10.590   3.160
  105SBC   C0FB73569  13.950  10.457   3.225
  105SBC   C0FD73570  13.830  10.449   3.298
  105SBC   C0FC73571  14.016  10.343   3.158
  105SBC   O00A73572  14.120  10.361   3.093
  105SBC   C0EV73573  13.812  10.073   3.293
  105SBC   C0EF73574  13.694   9.843   3.380
  105SBC   C0EI73575  13.488   9.841   3.567
  105SBC   C0DQ73576  13.396   9.831   3.664
  105SBC   C0CE73577  13.210   9.803   3.872
  105SBC   H00U73578  13.297   9.488   3.849
  105SBC   C0CA73579  13.086   9.418   4.009
  105SBC   C0C973580  13.016   9.403   4.136
  105SBC   C0C873581  12.963   9.266   4.166
  105SBC   C0C773582  12.953   9.195   4.290
  105SBC   C0C673583  12.901   9.061   4.289
  105SBC   C0C573584  12.904   8.942   4.370
  105SBC   C0CQ73585  12.891   8.819   4.299
  105SBC   C0D173586  12.936   8.818   4.166
  105SBC   C0D873587  13.028   8.716   4.136
  105SBC   C0D773588  13.014   8.630   4.247
  105SBC   C0D673589  13.076   8.505   4.266
  105SBC   C0D573590  13.055   8.429   4.387
  105SBC   C0D473591  12.970   8.440   4.498
  105SBC   C0D373592  13.021   8.348   4.593
  105SBC   C0CX73593  13.007   8.407   4.728
  105SBC   C0CW73594  12.969   8.549   4.705
  105SBC   C0CV73595  12.956   8.668   4.785
  105SBC   C0D273596  12.970   8.655   4.927
  105SBC   C09D73597  12.997   8.538   5.008
  105SBC   C09C73598  12.999   8.543   5.149
  105SBC   C09B73599  12.999   8.429   5.230
  105SBC   C09A73600  13.001   8.305   5.165
  105SBC   C09973601  13.018   8.289   5.033
  105SBC   C09873602  12.956   8.175   4.995
  105SBC   C08Y73603  12.899   8.110   5.110
  105SBC   C08X73604  12.811   7.994   5.118
  105SBC   C08W73605  12.764   7.931   4.998
  105SBC   C08U73606  12.774   7.981   4.860
  105SBC   C08V73607  12.825   8.102   4.798
  105SBC   C0DC73608  12.798   8.096   4.659
  105SBC   H00W73609  12.816   8.181   4.595
  105SBC   C0DB73610  12.725   7.973   4.626
  105SBC   H00X73611  12.695   7.932   4.531
  105SBC   C08T73612  12.714   7.905   4.754
  105SBC   C08S73613  12.659   7.781   4.769
  105SBC   H00N73614  12.620   7.736   4.679
  105SBC   C08R73615  12.635   7.733   4.900
  105SBC   C08Q73616  12.555   7.617   4.928
  105SBC   H00O73617  12.521   7.555   4.847
  105SBC   C08P73618  12.508   7.580   5.057
  105SBC   C08O73619  12.427   7.462   5.082
  105SBC   H00P73620  12.423   7.382   5.009
  105SBC   C08N73621  12.367   7.436   5.210
  105SBC   C08M73622  12.286   7.315   5.230
  105SBC   O00873623  12.271   7.230   5.141
  105SBC   O00773624  12.231   7.306   5.359
  105SBC   C08H73625  12.250   7.397   5.455
  105SBC   C08G73626  12.188   7.382   5.589
  105SBC   C03V73627  12.096   7.283   5.633
  105SBC   H00973628  12.052   7.213   5.564
  105SBC   C03U73629  12.033   7.277   5.758
  105SBC   C03W73630  11.933   7.187   5.797
  105SBC   H00A73631  11.884   7.124   5.725
  105SBC   C03X73632  11.881   7.199   5.920
  105SBC   H00B73633  11.797   7.137   5.947
  105SBC   O00573634  11.924   7.288   6.012
  105SBC   C03O73635  12.020   7.379   5.973
  105SBC   C03N73636  12.058   7.481   6.062
  105SBC   O00073637  11.997   7.479   6.185
  105SBC   C01973638  12.027   7.580   6.272
  105SBC   C01873639  12.116   7.688   6.246
  105SBC   C01773640  12.179   7.689   6.120
  105SBC   C01673641  12.268   7.790   6.090
  105SBC   C01573642  12.296   7.875   6.195
  105SBC   C01473643  12.379   7.983   6.165
  105SBC   C01373644  12.437   8.005   6.036
  105SBC   C01273645  12.506   8.131   6.050
  105SBC   C01173646  12.497   8.163   6.194
  105SBC   C01073647  12.574   8.260   6.245
  105SBC   C00Z73648  12.565   8.313   6.368
  105SBC   C00Y73649  12.639   8.434   6.361
  105SBC   C01O73650  12.707   8.448   6.233
  105SBC   C01P73651  12.712   8.571   6.169
  105SBC   C02L73652  12.731   8.568   6.034
  105SBC   C02K73653  12.707   8.446   5.972
  105SBC   C01M73654  12.646   8.335   6.024
  105SBC   C02J73655  12.774   8.444   5.848
  105SBC   C02I73656  12.793   8.337   5.759
  105SBC   C02H73657  12.739   8.211   5.768
  105SBC   C01Q73658  12.644   8.156   5.856
  105SBC   C02G73659  12.615   8.021   5.809
  105SBC   C08973660  12.709   7.993   5.700
  105SBC   C08873661  12.646   7.909   5.605
  105SBC   C08773662  12.527   7.866   5.687
  105SBC   C08673663  12.435   7.764   5.644
  105SBC   C03S73664  12.348   7.689   5.734
  105SBC   N00673665  12.298   7.585   5.652
  105SBC   C08F73666  12.346   7.596   5.526
  105SBC   C01J73667  12.294   7.693   5.864
  105SBC   C03R73668  12.208   7.582   5.906
  105SBC   C03Q73669  12.169   7.476   5.813
  105SBC   C08E73670  12.431   7.708   5.514
  105SBC   C08D73671  12.511   7.728   5.393
  105SBC   C08K73672  12.483   7.640   5.289
  105SBC   C08C73673  12.617   7.821   5.372
  105SBC   C09173674  12.669   7.844   5.243
  105SBC   C09273675  12.628   7.769   5.131
  105SBC   C08B73676  12.682   7.908   5.461
  105SBC   C09073677  12.766   7.993   5.383
  105SBC   C09473678  12.866   8.084   5.432
  105SBC   C09573679  12.925   8.186   5.353
  105SBC   C09R73680  12.942   8.307   5.422
  105SBC   C09773681  12.885   8.286   5.545
  105SBC   C09673682  12.841   8.158   5.557
  105SBC   C01I73683  12.509   7.925   5.817
  105SBC   C08A73684  12.769   8.114   5.668
  105SBC   C09L73685  12.867   8.378   5.651
  105SBC   C09K73686  12.891   8.518   5.665
  105SBC   C09J73687  12.938   8.604   5.563
  105SBC   C09I73688  12.911   8.744   5.554
  105SBC   C09O73689  12.855   8.847   5.639
  105SBC   C09N73690  12.807   8.826   5.773
  105SBC   C09M73691  12.788   8.699   5.835
  105SBC   C06O73692  12.778   8.946   5.841
  105SBC   C05M73693  12.767   9.071   5.772
  105SBC   C06P73694  12.804   9.088   5.643
  105SBC   C04273695  12.715   9.181   5.848
  105SBC   C04173696  12.684   9.171   5.983
  105SBC   C04073697  12.639   9.283   6.051
  105SBC   C03Z73698  12.598   9.272   6.183
  105SBC   C03Y73699  12.605   9.149   6.246
  105SBC   C02773700  12.553   9.144   6.377
  105SBC   C02673701  12.539   9.019   6.434
  105SBC   C02873702  12.477   9.008   6.559
  105SBC   C02973703  12.425   9.120   6.622
  105SBC   C02B73704  12.359   9.104   6.743
  105SBC   C02C73705  12.308   9.214   6.806
  105SBC   C02X73706  12.239   9.190   6.921
  105SBC   C03E73707  12.193   9.301   6.985
  105SBC   C03G73708  12.190   9.429   6.933
  105SBC   C04Q73709  12.262   9.448   6.815
  105SBC   C04R73710  12.267   9.569   6.753
  105SBC   C04S73711  12.320   9.585   6.627
  105SBC   C04L73712  12.382   9.477   6.566
  105SBC   C04M73713  12.382   9.359   6.629
  105SBC   C04K73714  12.433   9.487   6.436
  105SBC   C04F73715  12.426   9.612   6.373
  105SBC   C04E73716  12.357   9.717   6.432
  105SBC   C04D73717  12.342   9.836   6.360
  105SBC   C05073718  12.286   9.945   6.420
  105SBC   C05173719  12.267  10.065   6.348
  105SBC   C05Q73720  12.204  10.176   6.410
  105SBC   C05V73721  12.196  10.287   6.337
  105SBC   N00573722  12.126  10.398   6.396
  105SBC   C07V73723  12.066  10.384   6.525
  105SBC   C08273724  12.003  10.495   6.586
  105SBC   C08173725  11.998  10.620   6.525
  105SBC   C07C73726  12.054  10.632   6.395
  105SBC   C07B73727  12.070  10.761   6.340
  105SBC   C08073728  12.004  10.869   6.401
  105SBC   C07Z73729  12.016  10.994   6.342
  105SBC   H00L73730  11.963  11.075   6.389
  105SBC   C07973731  12.083  11.018   6.224
  105SBC   C07873732  12.140  10.902   6.162
  105SBC   C07773733  12.213  10.916   6.042
  105SBC   C07X73734  12.226  11.045   5.983
  105SBC   H00I73735  12.268  11.060   5.885
  105SBC   C07Y73736  12.180  11.157   6.045
  105SBC   H00H73737  12.195  11.255   6.003
  105SBC   C07673738  12.267  10.805   5.978
  105SBC   C06C73739  12.367  10.825   5.878
  105SBC   H00C73740  12.413  10.917   5.846
  105SBC   C06F73741  12.249  10.679   6.033
  105SBC   C06E73742  12.307  10.568   5.975
  105SBC   C06G73743  12.305  10.440   6.021
  105SBC   C06H73744  12.238  10.426   6.144
  105SBC   C06I73745  12.182  10.538   6.211
  105SBC   C06L73746  12.373  10.339   5.952
  105SBC   C06M73747  12.448  10.357   5.825
  105SBC   C06K73748  12.367  10.208   6.012
  105SBC   C05S73749  12.308  10.199   6.140
  105SBC   C05U73750  12.438  10.103   5.955
  105SBC   C05X73751  12.504  10.116   5.829
  105SBC   C05G73752  12.555   9.984   5.785
  105SBC   C05F73753  12.557   9.877   5.867
  105SBC   C05E73754  12.592   9.763   5.800
  105SBC   C04873755  12.605   9.637   5.861
  105SBC   C05673756  12.647   9.533   5.785
  105SBC   C04573757  12.662   9.415   5.852
  105SBC   C04773758  12.575   9.638   5.989
  105SBC   C04973759  12.518   9.746   6.055
  105SBC   C04B73760  12.472   9.741   6.179
  105SBC   C04673761  12.578   9.519   6.055
  105SBC   C04H73762  12.536   9.508   6.186
  105SBC   C05D73763  12.620   9.794   5.667
  105SBC   C04A73764  12.509   9.874   5.994
  105SBC   C05T73765  12.442   9.986   6.039
  105SBC   C05573766  12.385   9.973   6.164
  105SBC   C06D73767  12.386  10.586   5.858
  105SBC   C07W73768  12.173  10.663   6.150
  105SBC   C08573769  12.105  11.143   6.160
  105SBC   H00M73770  12.047  11.222   6.206
  105SBC   C08473771  11.929  10.852   6.516
  105SBC   H00J73772  11.865  10.928   6.558
  105SBC   C07A73773  12.129  10.776   6.216
  105SBC   C08373774  11.928  10.732   6.577
  105SBC   H00K73775  11.878  10.718   6.672
  105SBC   O00K73776  11.940  10.483   6.708
  105SBC   C0GO73777  11.968  10.370   6.783
  105SBC   C0GN73778  11.936  10.361   6.917
  105SBC   H01L73779  11.868  10.442   6.937
  105SBC   C0GM73780  11.971  10.252   6.998
  105SBC   C0GL73781  11.941  10.258   7.128
  105SBC   H01M73782  11.898  10.346   7.172
  105SBC   O00J73783  11.956  10.144   7.207
  105SBC   C0GK73784  12.008  10.033   7.144
  105SBC   H01N73785  12.027   9.952   7.213
  105SBC   C05K73786  12.033  10.026   7.009
  105SBC   C05J73787  12.082   9.906   6.950
  105SBC   C04Y73788  12.082   9.774   7.007
  105SBC   C04X73789  12.138   9.661   6.947
  105SBC   O00673790  12.019   9.751   7.126
  105SBC   C05373791  11.991   9.623   7.180
  105SBC   C04O73792  12.043   9.510   7.119
  105SBC   C03C73793  12.025   9.373   7.148
  105SBC   C03B73794  11.948   9.297   7.244
  105SBC   C05473795  11.859   9.355   7.334
  105SBC   C0GR73796  11.776   9.273   7.421
  105SBC   C03M73797  11.746   9.128   7.443
  105SBC   C03I73798  11.809   9.020   7.372
  105SBC   C03J73799  11.774   8.885   7.408
  105SBC   N00273800  11.835   8.770   7.344
  105SBC   C02U73801  11.791   8.635   7.368
  105SBC   C02T73802  11.847   8.529   7.298
  105SBC   C02Z73803  11.803   8.398   7.328
  105SBC   N00173804  11.860   8.285   7.258
  105SBC   C02R73805  11.816   8.152   7.290
  105SBC   C03273806  11.725   8.136   7.393
  105SBC   C03173807  11.665   8.248   7.452
  105SBC   H00773808  11.594   8.240   7.533
  105SBC   C03373809  11.692   7.999   7.429
  105SBC   H00373810  11.612   7.978   7.499
  105SBC   O00473811  11.754   7.883   7.373
  105SBC   C03473812  11.849   7.911   7.273
  105SBC   C03573813  11.899   7.792   7.209
  105SBC   C03673814  12.003   7.807   7.119
  105SBC   H00573815  12.049   7.719   7.077
  105SBC   C03773816  12.044   7.936   7.084
  105SBC   H00673817  12.132   7.948   7.024
  105SBC   C00D73818  11.979   8.058   7.136
  105SBC   C00C73819  12.014   8.191   7.094
  105SBC   C00B73820  12.120   8.217   6.994
  105SBC   C00A73821  12.189   8.154   6.879
  105SBC   C00973822  12.277   8.257   6.836
  105SBC   C00873823  12.333   8.270   6.703
  105SBC   C00773824  12.316   8.170   6.613
  105SBC   C00673825  12.380   8.185   6.486
  105SBC   C00573826  12.353   8.081   6.393
  105SBC   C00473827  12.257   7.982   6.415
  105SBC   C00373828  12.184   7.977   6.536
  105SBC   C00273829  12.089   7.877   6.559
  105SBC   C01C73830  12.068   7.777   6.468
  105SBC   C01B73831  11.980   7.672   6.492
  105SBC   H00073832  11.926   7.650   6.583
  105SBC   C00173833  12.010   7.888   6.675
  105SBC   C00073834  12.039   7.994   6.767
  105SBC   C01U73835  11.919   8.010   6.828
  105SBC   H00273836  11.881   8.083   6.897
  105SBC   C01T73837  11.830   7.902   6.792
  105SBC   O00273838  11.715   7.877   6.831
  105SBC   O00173839  11.886   7.831   6.696
  105SBC   C01S73840  12.213   8.074   6.634
  105SBC   C00N73841  12.398   8.392   6.679
  105SBC   C00M73842  12.381   8.499   6.762
  105SBC   C00J73843  12.310   8.493   6.875
  105SBC   C00I73844  12.257   8.600   6.947
  105SBC   C00H73845  12.152   8.583   7.039
  105SBC   C00G73846  12.114   8.457   7.077
  105SBC   C00F73847  12.012   8.431   7.155
  105SBC   C01X73848  12.099   8.688   7.102
  105SBC   C01W73849  12.141   8.814   7.068
  105SBC   C01V73850  12.229   8.832   6.959
  105SBC   C02073851  12.262   8.958   6.913
  105SBC   C01Z73852  12.079   8.923   7.122
  105SBC   C02Y73853  12.115   9.043   7.079
  105SBC   C03973854  12.048   9.155   7.124
  105SBC   C02W73855  11.975   8.916   7.217
  105SBC   C01Y73856  11.991   8.672   7.183
  105SBC   C00U73857  12.289   8.722   6.901
  105SBC   C00S73858  12.367   8.741   6.788
  105SBC   C00T73859  12.390   8.868   6.733
  105SBC   C00R73860  12.415   8.628   6.728
  105SBC   C00Q73861  12.489   8.643   6.611
  105SBC   C00V73862  12.507   8.770   6.551
  105SBC   C02473863  12.571   8.780   6.432
  105SBC   C00X73864  12.629   8.668   6.371
  105SBC   C00P73865  12.530   8.530   6.546
  105SBC   C00O73866  12.467   8.408   6.564
  105SBC   C00K73867  12.270   8.366   6.916
  105SBC   N00073868  12.145   8.078   6.765
  105SBC   C00L73869  12.171   8.351   7.008
  105SBC   H00473870  11.876   7.694   7.249
  105SBC   C02Q73871  11.881   8.044   7.236
  105SBC   C00E73872  11.968   8.300   7.167
  105SBC   C03073873  11.701   8.378   7.422
  105SBC   O00373874  11.654   8.481   7.500
  105SBC   C02S73875  11.947   8.545   7.213
  105SBC   C03873876  11.699   8.609   7.466
  105SBC   C03L73877  11.641   8.722   7.530
  105SBC   H00873878  11.567   8.696   7.604
  105SBC   C02V73879  11.931   8.786   7.245
  105SBC   C03K73880  11.675   8.856   7.504
  105SBC   C0BK73881  11.616   8.975   7.568
  105SBC   H00T73882  11.551   8.959   7.653
  105SBC   C03H73883  11.915   9.030   7.277
  105SBC   C0BL73884  11.645   9.109   7.538
  105SBC   C0GU73885  11.581   9.217   7.604
  105SBC   H01O73886  11.509   9.183   7.677
  105SBC   C0GT73887  11.595   9.353   7.577
  105SBC   H01P73888  11.545   9.439   7.617
  105SBC   C0GS73889  11.688   9.377   7.481
  105SBC   C0GV73890  11.726   9.508   7.432
  105SBC   C0GW73891  11.675   9.638   7.471
  105SBC   H01Q73892  11.598   9.662   7.543
  105SBC   C0GX73893  11.735   9.740   7.411
  105SBC   H01R73894  11.692   9.837   7.431
  105SBC   O00L73895  11.842   9.732   7.321
  105SBC   C0GQ73896  11.837   9.497   7.344
  105SBC   C03A73897  11.961   9.158   7.225
  105SBC   C05L73898  11.897   9.613   7.287
  105SBC   C04W73899  12.127   9.914   6.813
  105SBC   C05I73900  12.128  10.034   6.744
  105SBC   C05O73901  12.069  10.147   6.801
  105SBC   C05273902  12.176  10.046   6.612
  105SBC   C04V73903  12.182   9.801   6.748
  105SBC   C04U73904  12.235   9.813   6.620
  105SBC   N00973905  12.027  10.141   6.935
  105SBC   C0GP73906  12.040  10.260   6.729
  105SBC   C05W73907  12.090  10.271   6.597
  105SBC   C07D73908  12.121  10.521   6.335
  105SBC   C06J73909  12.246  10.303   6.205
  105SBC   C05P73910  12.156  10.163   6.536
  105SBC   C05R73911  12.317  10.079   6.217
  105SBC   C04Z73912  12.233   9.936   6.549
  105SBC   C04C73913  12.398   9.851   6.230
  105SBC   C04G73914  12.480   9.619   6.246
  105SBC   C04J73915  12.490   9.377   6.374
  105SBC   C04T73916  12.298   9.705   6.562
  105SBC   N00373917  12.196   9.674   6.817
  105SBC   C04P73918  12.126   9.532   7.001
  105SBC   C03D73919  12.089   9.277   7.080
  105SBC   C02173920  12.211   9.064   6.973
  105SBC   C03F73921  12.322   9.340   6.753
  105SBC   C02273922  12.342   8.978   6.800
  105SBC   C02A73923  12.439   9.247   6.565
  105SBC   C02373924  12.460   8.881   6.617
  105SBC   C02573925  12.588   8.901   6.368
  105SBC   C02D73926  12.643   8.914   6.242
  105SBC   C02E73927  12.681   8.803   6.174
  105SBC   C02N73928  12.719   8.808   6.037
  105SBC   C04N73929  12.494   9.253   6.441
  105SBC   C02P73930  12.649   9.037   6.180
  105SBC   C04I73931  12.542   9.385   6.249
  105SBC   C04473932  12.630   9.408   5.987
  105SBC   C04373933  12.695   9.046   6.045
  105SBC   C05N73934  12.733   8.934   5.975
  105SBC   C09U73935  12.852   8.980   5.576
  105SBC   C09V73936  12.876   8.998   5.437
  105SBC   C09X73937  12.907   8.893   5.358
  105SBC   C09Y73938  12.920   8.890   5.217
  105SBC   C0A173939  12.895   9.005   5.149
  105SBC   C0A273940  12.869   9.120   5.224
  105SBC   C0A473941  12.850   9.238   5.166
  105SBC   C07173942  12.813   9.354   5.235
  105SBC   C0A573943  12.810   9.477   5.175
  105SBC   C0A973944  12.842   9.485   5.041
  105SBC   C0A873945  12.872   9.368   4.974
  105SBC   C0AP73946  12.902   9.379   4.836
  105SBC   C0BY73947  12.922   9.263   4.764
  105SBC   C0BX73948  12.915   9.137   4.814
  105SBC   C0C273949  12.930   9.026   4.731
  105SBC   C0C373950  12.921   8.903   4.797
  105SBC   C0CT73951  12.927   8.894   4.933
  105SBC   C0C173952  12.940   9.045   4.590
  105SBC   C0C073953  12.959   9.184   4.536
  105SBC   C0A773954  12.888   9.129   4.952
  105SBC   C0BZ73955  12.942   9.284   4.626
  105SBC   C0BO73956  12.948   9.404   4.567
  105SBC   C0BN73957  12.924   9.518   4.638
  105SBC   C0BM73958  12.918   9.639   4.566
  105SBC   C0B973959  12.902   9.752   4.642
  105SBC   C0B873960  12.868   9.745   4.776
  105SBC   C0AD73961  12.882   9.623   4.843
  105SBC   C0AF73962  12.849   9.861   4.849
  105SBC   C0AG73963  12.852   9.990   4.793
  105SBC   C0B773964  12.873   9.993   4.656
  105SBC   C0AE73965  12.821   9.844   4.981
  105SBC   C0AB73966  12.813   9.723   5.046
  105SBC   C0AA73967  12.786   9.712   5.183
  105SBC   C0AJ73968  12.794   9.956   5.055
  105SBC   C0AK73969  12.752   9.942   5.186
  105SBC   C06W73970  12.710  10.067   5.223
  105SBC   C0AI73971  12.783  10.089   5.009
  105SBC   C0BP73972  12.969   9.396   4.426
  105SBC   C0BQ73973  12.966   9.521   4.353
  105SBC   C0BW73974  12.906   9.505   4.773
  105SBC   C0AC73975  12.840   9.608   4.976
  105SBC   C0A673976  12.879   9.245   5.029
  105SBC   C0A373977  12.902   9.006   5.011
  105SBC   C09Z73978  12.954   8.781   5.136
  105SBC   C09W73979  12.854   9.113   5.368
  105SBC   C07273980  12.812   9.222   5.438
  105SBC   C09H73981  12.947   8.775   5.418
  105SBC   C09G73982  12.978   8.664   5.342
  105SBC   C09P73983  12.977   8.559   5.432
  105SBC   C02O73984  12.825   8.564   5.782
  105SBC   C02M73985  12.750   8.689   5.971
  105SBC   C02F73986  12.679   8.682   6.241
  105SBC   C00W73987  12.607   8.546   6.435
  105SBC   C01R73988  12.470   8.298   6.476
  105SBC   C01N73989  12.641   8.349   6.165
  105SBC   C01L73990  12.589   8.217   5.965
  105SBC   C01H73991  12.425   7.906   5.929
  105SBC   C01K73992  12.411   8.082   6.260
  105SBC   C01E73993  12.231   7.882   6.319
  105SBC   C01G73994  12.331   7.795   5.961
  105SBC   C01D73995  12.133   7.785   6.345
  105SBC   C01A73996  11.955   7.574   6.394
  105SBC   H00173997  11.879   7.499   6.413
  105SBC   C01F73998  12.151   7.584   6.027
  105SBC   C03P73999  12.076   7.377   5.845
  105SBC   C03T74000  12.217   7.478   5.687
  105SBC   C08I74001  12.339   7.505   5.429
  105SBC   C08J74002  12.396   7.528   5.309
  105SBC   C08L74003  12.542   7.662   5.161
  105SBC   C09374004  12.681   7.812   5.008
  105SBC   C08Z74005  12.758   7.950   5.239
  105SBC   C09T74006  12.909   8.202   4.866
  105SBC   C09S74007  12.944   8.190   5.216
  105SBC   C09Q74008  12.976   8.429   5.368
  105SBC   C09F74009  12.977   8.662   5.205
  105SBC   C09E74010  12.988   8.402   4.957
  105SBC   C0A074011  12.948   8.776   4.997
  105SBC   C0CU74012  12.940   8.790   4.716
  105SBC   C0CR74013  12.936   8.806   4.572
  105SBC   C0CZ74014  12.944   8.686   4.494
  105SBC   C0DA74015  12.949   8.342   4.841
  105SBC   C0D974016  13.152   8.297   4.537
  105SBC   H00V74017  13.238   8.257   4.588
  105SBC   C0CY74018  12.958   8.567   4.564
  105SBC   C0DF74019  13.166   8.340   4.404
  105SBC   C0DE74020  13.257   8.366   4.285
  105SBC   C0GI74021  13.375   8.298   4.247
  105SBC   H01K74022  13.417   8.211   4.295
  105SBC   C0GJ74023  13.431   8.348   4.134
  105SBC   H01J74024  13.527   8.314   4.098
  105SBC   O00I74025  13.379   8.450   4.054
  105SBC   C0GH74026  13.261   8.512   4.090
  105SBC   C0GG74027  13.231   8.630   4.010
  105SBC   O00G74028  13.317   8.654   3.905
  105SBC   C0G874029  13.285   8.753   3.815
  105SBC   C0G974030  13.346   8.743   3.689
  105SBC   H01G74031  13.414   8.660   3.672
  105SBC   C0GA74032  13.315   8.833   3.591
  105SBC   H01H74033  13.350   8.810   3.492
  105SBC   C0GB74034  13.253   8.956   3.628
  105SBC   C0EP74035  13.202   8.971   3.759
  105SBC   C0E874036  13.162   9.109   3.800
  105SBC   C0CK74037  13.132   9.173   3.922
  105SBC   C0CL74038  13.040   9.099   3.998
  105SBC   C0E974039  13.043   8.958   4.010
  105SBC   C0GE74040  13.127   8.849   3.958
  105SBC   C0E774041  13.156   9.207   3.702
  105SBC   C0CJ74042  13.118   9.331   3.759
  105SBC   C0E674043  13.093   9.431   3.661
  105SBC   H00Y74044  13.053   9.528   3.688
  105SBC   C0EO74045  13.109   9.402   3.523
  105SBC   H01174046  13.075   9.479   3.455
  105SBC   C0G674047  13.162   9.281   3.479
  105SBC   C0G574048  13.184   9.241   3.340
  105SBC   H01F74049  13.151   9.311   3.264
  105SBC   C0GD74050  13.238   9.121   3.307
  105SBC   H01I74051  13.243   9.107   3.201
  105SBC   O00H74052  13.281   9.033   3.399
  105SBC   C0EQ74053  13.184   9.181   3.570
  105SBC   C0GC74054  13.236   9.056   3.526
  105SBC   C0G774055  13.207   8.863   3.848
  105SBC   C0DD74056  13.197   8.463   4.200
  105SBC   C0GF74057  13.127   8.724   4.031
  105SBC   C0CO74058  12.942   8.931   4.101
  105SBC   C0D074059  12.949   8.706   4.352
  105SBC   C0C474060  12.927   8.934   4.507
  105SBC   C0CN74061  12.878   9.047   4.147
  105SBC   C0CP74062  12.982   9.254   4.408
  105SBC   C0CM74063  12.934   9.157   4.076
  105SBC   C0CI74064  13.114   9.314   3.907
  105SBC   C0CD74065  13.134   9.791   3.984
  105SBC   C0BR74066  13.008   9.521   4.221
  105SBC   C0CS74067  12.948   9.638   4.434
  105SBC   C0B674068  12.900   9.877   4.579
  105SBC   C0CG74069  13.021   9.893   4.180
  105SBC   C0CF74070  13.086   9.900   4.056
  105SBC   C0E574071  13.236   9.928   3.825
  105SBC   C0DT74072  13.287  10.173   3.715
  105SBC   C0DL74073  13.086  10.269   4.007
  105SBC   C0DM74074  13.054  10.386   4.075
  105SBC   C0DY74075  13.145  10.525   3.901
  105SBC   C0DU74076  13.297  10.297   3.659
  105SBC   C0F074077  13.439  10.439   3.515
  105SBC   C0F474078  13.570  10.676   3.465
  105SBC   C0FG74079  13.274  10.776   3.666
  105SBC   O00B74080  13.581  10.917   3.533
  105SBC   C0FN74081  13.264  10.890   3.726
  105SBC   C0DZ74082  13.173  10.650   3.851
  105SBC   O00C74083  13.071  10.865   4.126
  105SBC   C0FR74084  12.981  10.866   4.227
  105SBC   O00D74085  12.942  10.974   4.252
  105SBC   C0E074086  13.083  10.513   4.024
  105SBC   C0E374087  12.957  10.737   4.291
  105SBC   C0AW74088  12.896  10.726   4.416
  105SBC   C0AV74089  12.847  10.840   4.487
  105SBC   H00Q74090  12.830  10.942   4.455
  105SBC   C0AU74091  12.814  10.827   4.617
  105SBC   H00R74092  12.791  10.914   4.678
  105SBC   C0AT74093  12.812  10.697   4.678
  105SBC   C0AS74094  12.779  10.636   4.806
  105SBC   C0AR74095  12.737  10.716   4.920
  105SBC   C0BE74096  12.853  10.587   4.605
  105SBC   C0DN74097  13.000  10.376   4.204
  105SBC   C0AX74098  12.886  10.599   4.469
  105SBC   C0BB74099  12.924  10.243   4.396
  105SBC   C0BD74100  12.836  10.471   4.665
  105SBC   C0B274101  12.875  10.116   4.598
  105SBC   C0AH74102  12.815  10.109   4.869
  105SBC   C0BF74103  12.793  10.486   4.801
  105SBC   C0AL74104  12.741  10.163   5.125
  105SBC   C07U74105  12.696  10.524   5.087
  105SBC   C0AQ74106  12.691  10.655   5.039
  105SBC   C0BG74107  12.720  10.864   4.922
  105SBC   C0FY74108  12.716  11.043   5.230
  105SBC   C0BJ74109  12.822  10.968   4.909
  105SBC   H00S74110  12.910  10.968   4.847
  105SBC   C0FZ74111  12.811  11.140   5.221
  105SBC   C07S74112  12.695  10.971   5.352
  105SBC   C0G174113  12.858  11.219   5.574
  105SBC   C07K74114  12.741  10.979   5.836
  105SBC   C07H74115  12.667  10.834   5.602
  105SBC   C06B74116  12.422  10.714   5.822
  105SBC   C06N74117  12.458  10.493   5.788
  105SBC   C06674118  12.625  10.622   5.461
  105SBC   C06274119  12.616  10.317   5.394
  105SBC   C05Y74120  12.502  10.246   5.758
  105SBC   C06174121  12.583  10.179   5.401
  105SBC   C05H74122  12.603   9.937   5.666
  105SBC   C06V74123  12.657  10.070   5.348
  105SBC   C06Y74124  12.755   9.822   5.255
  105SBC   C05C74125  12.669   9.678   5.589
  105SBC   C06Z74126  12.782   9.590   5.251
  105SBC   C07074127  12.793   9.343   5.374
  105SBC   C05B74128  12.681   9.553   5.657
  105SBC   C05774129  12.705   9.302   5.782
  105SBC   C05974130  12.786   9.211   5.576
  106SBC   C05874131   3.780   0.785   8.203
  106SBC   C05A74132   3.915   0.753   8.180
  106SBC   C06Q74133   4.015   0.844   8.218
  106SBC   C06R74134   4.149   0.809   8.200
  106SBC   C06S74135   4.188   0.687   8.142
  106SBC   C06T74136   4.328   0.666   8.127
  106SBC   C06U74137   4.400   0.561   8.054
  106SBC   C06X74138   4.360   0.444   7.985
  106SBC   C06074139   4.474   0.384   7.918
  106SBC   C05Z74140   4.511   0.245   7.896
  106SBC   C06874141   4.661   0.260   7.888
  106SBC   C06774142   4.759   0.169   7.829
  106SBC   C06974143   4.716   0.038   7.780
  106SBC   C06A74144   4.786  -0.054   7.687
  106SBC   C07374145   4.884  -0.033   7.590
  106SBC   C07P74146   4.882  -0.098   7.460
  106SBC   C07O74147   4.778  -0.184   7.404
  106SBC   H00D74148   4.697  -0.203   7.473
  106SBC   C07N74149   4.761  -0.231   7.270
  106SBC   H00E74150   4.667  -0.280   7.252
  106SBC   C07M74151   4.860  -0.191   7.185
  106SBC   H00F74152   4.850  -0.206   7.079
  106SBC   C07L74153   4.968  -0.114   7.226
  106SBC   C07Q74154   5.084  -0.081   7.139
  106SBC   H00G74155   5.087  -0.125   7.040
  106SBC   O00F74156   5.191  -0.002   7.176
  106SBC   C07J74157   5.193   0.032   7.311
  106SBC   C07I74158   5.091  -0.008   7.407
  106SBC   N00474159   5.100   0.046   7.538
  106SBC   C07R74160   5.226   0.098   7.578
  106SBC   C07T74161   5.328   0.118   7.483
  106SBC   C0FX74162   5.449   0.172   7.518
  106SBC   C0FW74163   5.548   0.214   7.433
  106SBC   C0G074164   5.521   0.202   7.300
  106SBC   C0G274165   5.606   0.252   7.197
  106SBC   H01E74166   5.574   0.235   7.096
  106SBC   C0G374167   5.723   0.316   7.233
  106SBC   H01C74168   5.791   0.357   7.160
  106SBC   C0G474169   5.747   0.328   7.368
  106SBC   H01D74170   5.831   0.387   7.402
  106SBC   O00E74171   5.402   0.144   7.252
  106SBC   C0FV74172   5.665   0.288   7.475
  106SBC   C0FU74173   5.678   0.323   7.618
  106SBC   H01B74174   5.760   0.385   7.649
  106SBC   C0FT74175   5.576   0.283   7.704
  106SBC   C0FS74176   5.531   0.316   7.842
  106SBC   C0BI74177   5.424   0.220   7.874
  106SBC   C0BH74178   5.357   0.256   7.992
  106SBC   C07F74179   5.219   0.285   7.986
  106SBC   C07E74180   5.119   0.221   7.911
  106SBC   C07G74181   5.134   0.142   7.794
  106SBC   C07474182   5.006   0.123   7.746
  106SBC   C06574183   4.984   0.261   7.922
  106SBC   C06474184   4.957   0.369   8.007
  106SBC   C06374185   4.833   0.424   8.031
  106SBC   C07574186   4.859   0.539   8.121
  106SBC   C0AM74187   4.997   0.551   8.155
  106SBC   C0AN74188   5.066   0.647   8.247
  106SBC   C0AO74189   5.018   0.775   8.324
  106SBC   C0B174190   5.098   0.853   8.412
  106SBC   C0B074191   5.229   0.823   8.433
  106SBC   C0AZ74192   5.325   0.894   8.498
  106SBC   C0AY74193   5.461   0.858   8.503
  106SBC   N00774194   5.554   0.929   8.572
  106SBC   C0E274195   5.694   0.881   8.576
  106SBC   C0E174196   5.778   0.967   8.632
  106SBC   C0E474197   5.917   0.936   8.625
  106SBC   C0FF74198   6.017   1.019   8.676
  106SBC   C0FJ74199   6.169   1.019   8.657
  106SBC   C0FK74200   6.219   0.985   8.525
  106SBC   H01674201   6.179   0.928   8.442
  106SBC   C0FL74202   6.336   1.070   8.496
  106SBC   H01774203   6.393   1.083   8.405
  106SBC   C0FM74204   6.347   1.164   8.606
  106SBC   C0FH74205   6.390   1.300   8.651
  106SBC   C0FI74206   6.281   1.326   8.738
  106SBC   C0F374207   6.240   1.460   8.750
  106SBC   C0F274208   6.122   1.467   8.807
  106SBC   C0DW74209   6.023   1.366   8.814
  106SBC   C0FE74210   6.061   1.233   8.787
  106SBC   C0DV74211   5.885   1.397   8.816
  106SBC   C0DX74212   5.792   1.301   8.795
  106SBC   C0DK74213   5.656   1.342   8.790
  106SBC   C0DJ74214   5.618   1.474   8.815
  106SBC   C0DI74215   5.485   1.513   8.813
  106SBC   C0DH74216   5.388   1.421   8.771
  106SBC   C0DG74217   5.427   1.294   8.730
  106SBC   C0BV74218   5.334   1.209   8.675
  106SBC   C0BC74219   5.374   1.082   8.627
  106SBC   C0BA74220   5.201   1.249   8.668
  106SBC   C0B474221   5.112   1.169   8.600
  106SBC   C0B374222   5.148   1.046   8.547
  106SBC   C0B574223   4.976   1.206   8.598
  106SBC   C0BU74224   4.934   1.323   8.663
  106SBC   C0BT74225   5.024   1.405   8.725
  106SBC   C0BS74226   4.986   1.519   8.799
  106SBC   C0CC74227   5.076   1.611   8.835
  106SBC   C0CB74228   5.042   1.736   8.889
  106SBC   C0CH74229   5.142   1.836   8.882
  106SBC   C0DO74230   5.280   1.807   8.863
  106SBC   C0DP74231   5.376   1.900   8.891
  106SBC   C0EA74232   5.335   2.041   8.915
  106SBC   H01274233   5.235   2.080   8.904
  106SBC   O00974234   5.432   2.133   8.959
  106SBC   C0EH74235   5.563   2.102   8.941
  106SBC   C0EG74236   5.658   2.201   8.965
  106SBC   C0EJ74237   5.652   2.333   9.014
  106SBC   H01074238   5.565   2.380   9.059
  106SBC   C0EK74239   5.792   2.389   9.011
  106SBC   H00Z74240   5.828   2.486   9.041
  106SBC   C0EL74241   5.872   2.286   8.948
  106SBC   C0EM74242   6.013   2.280   8.910
  106SBC   C0EW74243   6.110   2.380   8.937
  106SBC   H01374244   6.077   2.469   8.988
  106SBC   C0EX74245   6.247   2.364   8.874
  106SBC   H01474246   6.320   2.443   8.886
  106SBC   C0F174247   6.287   2.233   8.827
  106SBC   C0EU74248   6.193   2.130   8.825
  106SBC   C0ET74249   6.203   1.998   8.782
  106SBC   C0ES74250   6.070   1.949   8.791
  106SBC   C0EE74251   5.976   2.041   8.835
  106SBC   C0ED74252   5.840   2.052   8.871
  106SBC   C0EC74253   5.746   1.946   8.875
  106SBC   C0EB74254   5.780   1.810   8.856
  106SBC   C0EN74255   5.913   1.759   8.831
  106SBC   C0ER74256   5.937   1.623   8.850
  106SBC   C0DS74257   5.683   1.704   8.860
  106SBC   C0DR74258   5.545   1.741   8.865
  106SBC   C0EY74259   6.045   1.814   8.806
  106SBC   C0EZ74260   6.143   1.712   8.797
  106SBC   C0F574261   6.275   1.703   8.733
  106SBC   C0F674262   6.362   1.813   8.705
  106SBC   N00874263   6.493   1.774   8.652
  106SBC   C0F774264   6.526   1.638   8.615
  106SBC   C0FQ74265   6.652   1.616   8.559
  106SBC   H01874266   6.678   1.513   8.537
  106SBC   C0FP74267   6.743   1.721   8.531
  106SBC   H01974268   6.842   1.710   8.489
  106SBC   C0FO74269   6.708   1.846   8.570
  106SBC   H01A74270   6.786   1.920   8.560
  106SBC   C0F874271   6.436   1.534   8.641
  106SBC   C0F974272   6.584   1.878   8.636
  106SBC   C0FA74273   6.562   2.016   8.675
  106SBC   H01574274   6.637   2.093   8.668
  106SBC   C0FB74275   6.432   2.050   8.727
  106SBC   C0FD74276   6.335   1.949   8.743
  106SBC   C0FC74277   6.416   2.187   8.775
  106SBC   O00A74278   6.507   2.269   8.771
  106SBC   C0EV74279   6.057   2.157   8.861
  106SBC   C0EF74280   5.787   2.173   8.929
  106SBC   C0EI74281   5.610   1.973   8.899
  106SBC   C0DQ74282   5.511   1.870   8.892
  106SBC   C0CE74283   5.316   1.676   8.839
  106SBC   H00U74284   5.104   1.932   8.916
  106SBC   C0CA74285   4.916   1.742   8.961
  106SBC   C0C974286   4.810   1.655   8.908
  106SBC   C0C874287   4.677   1.666   8.963
  106SBC   C0C774288   4.546   1.636   8.909
  106SBC   C0C674289   4.440   1.664   8.997
  106SBC   C0C574290   4.298   1.701   8.978
  106SBC   C0CQ74291   4.246   1.787   9.076
  106SBC   C0D174292   4.327   1.840   9.171
  106SBC   C0D874293   4.283   1.964   9.206
  106SBC   C0D774294   4.153   1.978   9.151
  106SBC   C0D674295   4.079   2.097   9.147
  106SBC   C0D574296   3.947   2.083   9.106
  106SBC   C0D474297   3.880   2.025   8.989
  106SBC   C0D374298   3.742   2.013   9.015
  106SBC   C0CX74299   3.688   1.900   8.937
  106SBC   C0CW74300   3.807   1.829   8.886
  106SBC   C0CV74301   3.840   1.709   8.795
  106SBC   C0D274302   3.745   1.648   8.709
  106SBC   C09D74303   3.609   1.692   8.689
  106SBC   C09C74304   3.520   1.619   8.606
  106SBC   C09B74305   3.382   1.648   8.579
  106SBC   C09A74306   3.327   1.757   8.652
  106SBC   C09974307   3.408   1.836   8.724
  106SBC   C09874308   3.334   1.903   8.818
  106SBC   C08Y74309   3.199   1.853   8.817
  106SBC   C08X74310   3.099   1.870   8.917
  106SBC   C08W74311   3.112   1.971   9.020
  106SBC   C08U74312   3.230   2.037   9.066
  106SBC   C08V74313   3.367   2.021   9.033
  106SBC   C0DC74314   3.426   2.146   9.076
  106SBC   H00W74315   3.527   2.179   9.055
  106SBC   C0DB74316   3.336   2.220   9.151
  106SBC   H00X74317   3.363   2.316   9.193
  106SBC   C08T74318   3.215   2.148   9.156
  106SBC   C08S74319   3.096   2.189   9.206
  106SBC   H00N74320   3.100   2.261   9.286
  106SBC   C08R74321   2.983   2.109   9.191
  106SBC   C08Q74322   2.861   2.123   9.264
  106SBC   H00O74323   2.846   2.202   9.337
  106SBC   C08P74324   2.756   2.031   9.275
  106SBC   C08O74325   2.655   2.041   9.371
  106SBC   H00P74326   2.649   2.126   9.438
  106SBC   C08N74327   2.563   1.939   9.380
  106SBC   C08M74328   2.462   1.930   9.482
  106SBC   O00874329   2.442   2.022   9.558
  106SBC   O00774330   2.389   1.820   9.501
  106SBC   C08H74331   2.396   1.714   9.415
  106SBC   C08G74332   2.314   1.598   9.430
  106SBC   C03V74333   2.215   1.576   9.527
  106SBC   H00974334   2.193   1.655   9.598
  106SBC   C03U74335   2.150   1.453   9.540
  106SBC   C03W74336   2.057   1.419   9.644
  106SBC   H00A74337   2.024   1.494   9.715
  106SBC   C03X74338   2.017   1.294   9.649
  106SBC   H00B74339   1.958   1.263   9.734
  106SBC   O00574340   2.048   1.194   9.566
  106SBC   C03O74341   2.132   1.224   9.461
  106SBC   C03N74342   2.164   1.126   9.366
  106SBC   O00074343   2.099   1.004   9.386
  106SBC   C01974344   2.115   0.909   9.291
  106SBC   C01874345   2.189   0.931   9.175
  106SBC   C01774346   2.260   1.048   9.156
  106SBC   C01674347   2.338   1.067   9.040
  106SBC   C01574348   2.348   0.956   8.958
  106SBC   C01474349   2.421   0.978   8.840
  106SBC   C01374350   2.503   1.096   8.825
  106SBC   C01274351   2.582   1.054   8.706
  106SBC   C01174352   2.532   0.924   8.668
  106SBC   C01074353   2.592   0.853   8.570
  106SBC   C00Z74354   2.575   0.718   8.540
  106SBC   C00Y74355   2.680   0.697   8.450
  106SBC   C01O74356   2.756   0.806   8.425
  106SBC   C01P74357   2.889   0.798   8.385
  106SBC   C02L74358   2.968   0.910   8.400
  106SBC   C02K74359   2.905   1.017   8.475
  106SBC   C01M74360   2.772   1.018   8.541
  106SBC   C02J74361   2.986   1.130   8.477
  106SBC   C02I74362   2.953   1.258   8.527
  106SBC   C02H74363   2.845   1.301   8.608
  106SBC   C01Q74364   2.735   1.234   8.660
  106SBC   C02G74365   2.675   1.317   8.757
  106SBC   C08974366   2.733   1.446   8.745
  106SBC   C08874367   2.715   1.521   8.859
  106SBC   C08774368   2.617   1.440   8.937
  106SBC   C08674369   2.546   1.489   9.051
  106SBC   C03S74370   2.452   1.417   9.133
  106SBC   N00674371   2.422   1.509   9.236
  106SBC   C08F74372   2.484   1.627   9.220
  106SBC   C01J74373   2.395   1.286   9.134
  106SBC   C03R74374   2.314   1.263   9.245
  106SBC   C03Q74375   2.282   1.369   9.340
  106SBC   C08E74376   2.576   1.611   9.122
  106SBC   C08D74377   2.676   1.711   9.103
  106SBC   C08K74378   2.669   1.825   9.190
  106SBC   C08C74379   2.778   1.721   9.001
  106SBC   C09174380   2.877   1.816   9.006
  106SBC   C09274381   2.878   1.917   9.099
  106SBC   C08B74382   2.799   1.638   8.894
  106SBC   C09074383   2.927   1.684   8.833
  106SBC   C09474384   2.985   1.632   8.708
  106SBC   C09574385   3.110   1.670   8.658
  106SBC   C09R74386   3.157   1.568   8.571
  106SBC   C09774387   3.062   1.468   8.564
  106SBC   C09674388   2.956   1.507   8.648
  106SBC   C01I74389   2.589   1.309   8.874
  106SBC   C08A74390   2.846   1.428   8.660
  106SBC   C09L74391   3.063   1.339   8.504
  106SBC   C09K74392   3.162   1.260   8.440
  106SBC   C09J74393   3.295   1.309   8.421
  106SBC   C09I74394   3.405   1.220   8.393
  106SBC   C09O74395   3.432   1.084   8.350
  106SBC   C09N74396   3.328   0.985   8.342
  106SBC   C09M74397   3.187   1.004   8.375
  106SBC   C06O74398   3.371   0.862   8.287
  106SBC   C05M74399   3.504   0.841   8.251
  106SBC   C06P74400   3.605   0.931   8.278
  106SBC   C04274401   3.543   0.719   8.195
  106SBC   C04174402   3.452   0.615   8.184
  106SBC   C04074403   3.494   0.489   8.134
  106SBC   C03Z74404   3.402   0.384   8.118
  106SBC   C03Y74405   3.275   0.403   8.160
  106SBC   C02774406   3.189   0.293   8.167
  106SBC   C02674407   3.058   0.309   8.212
  106SBC   C02874408   2.975   0.201   8.226
  106SBC   C02974409   3.014   0.074   8.183
  106SBC   C02B74410   2.933  -0.038   8.208
  106SBC   C02C74411   2.984  -0.164   8.185
  106SBC   C02X74412   2.907  -0.270   8.217
  106SBC   C03E74413   2.954  -0.393   8.191
  106SBC   C03G74414   3.084  -0.420   8.146
  106SBC   C04Q74415   3.160  -0.313   8.110
  106SBC   C04R74416   3.291  -0.331   8.064
  106SBC   C04S74417   3.374  -0.222   8.033
  106SBC   C04L74418   3.325  -0.093   8.066
  106SBC   C04M74419   3.190  -0.072   8.105
  106SBC   C04K74420   3.403   0.016   8.049
  106SBC   C04F74421   3.534  -0.002   8.006
  106SBC   C04E74422   3.588  -0.128   7.978
  106SBC   C04D74423   3.726  -0.146   7.949
  106SBC   C05074424   3.768  -0.272   7.918
  106SBC   C05174425   3.907  -0.291   7.887
  106SBC   C05Q74426   3.956  -0.421   7.867
  106SBC   C05V74427   4.092  -0.434   7.851
  106SBC   N00574428   4.148  -0.565   7.852
  106SBC   C07V74429   4.057  -0.673   7.856
  106SBC   C08274430   4.111  -0.802   7.864
  106SBC   C08174431   4.243  -0.828   7.850
  106SBC   C07C74432   4.331  -0.723   7.830
  106SBC   C07B74433   4.461  -0.747   7.787
  106SBC   C08074434   4.509  -0.880   7.761
  106SBC   C07Z74435   4.635  -0.894   7.695
  106SBC   H00L74436   4.659  -0.994   7.662
  106SBC   C07974437   4.713  -0.788   7.651
  106SBC   C07874438   4.665  -0.657   7.692
  106SBC   C07774439   4.743  -0.545   7.659
  106SBC   C07X74440   4.853  -0.557   7.575
  106SBC   H00I74441   4.905  -0.466   7.551
  106SBC   C07Y74442   4.892  -0.683   7.530
  106SBC   H00H74443   4.980  -0.699   7.471
  106SBC   C07674444   4.710  -0.423   7.716
  106SBC   C06C74445   4.789  -0.309   7.691
  106SBC   H00C74446   4.890  -0.302   7.654
  106SBC   C06F74447   4.583  -0.405   7.770
  106SBC   C06E74448   4.534  -0.274   7.800
  106SBC   C06G74449   4.405  -0.241   7.837
  106SBC   C06H74450   4.319  -0.350   7.843
  106SBC   C06I74451   4.368  -0.481   7.822
  106SBC   C06L74452   4.364  -0.105   7.851
  106SBC   C06M74453   4.460   0.002   7.850
  106SBC   C06K74454   4.226  -0.086   7.874
  106SBC   C05S74455   4.141  -0.197   7.872
  106SBC   C05U74456   4.177   0.041   7.901
  106SBC   C05X74457   4.268   0.148   7.912
  106SBC   C05G74458   4.200   0.267   7.951
  106SBC   C05F74459   4.062   0.270   7.969
  106SBC   C05E74460   4.019   0.390   8.014
  106SBC   C04874461   3.884   0.419   8.041
  106SBC   C05674462   3.852   0.541   8.091
  106SBC   C04574463   3.719   0.568   8.122
  106SBC   C04774464   3.798   0.313   8.029
  106SBC   C04974465   3.842   0.183   7.990
  106SBC   C04B74466   3.757   0.080   7.987
  106SBC   C04674467   3.665   0.336   8.053
  106SBC   C04H74468   3.576   0.229   8.048
  106SBC   C05D74469   4.120   0.473   8.038
  106SBC   C04A74470   3.977   0.168   7.961
  106SBC   C05T74471   4.033   0.049   7.930
  106SBC   C05574472   3.949  -0.060   7.923
  106SBC   C06D74473   4.618  -0.164   7.779
  106SBC   C07W74474   4.498  -0.507   7.783
  106SBC   C08574475   4.830  -0.798   7.575
  106SBC   H00M74476   4.870  -0.893   7.543
  106SBC   C08474477   4.430  -0.981   7.816
  106SBC   H00J74478   4.463  -1.083   7.806
  106SBC   C07A74479   4.541  -0.637   7.753
  106SBC   C08374480   4.299  -0.954   7.860
  106SBC   H00K74481   4.250  -1.044   7.894
  106SBC   O00K74482   4.033  -0.908   7.864
  106SBC   C0GO74483   3.895  -0.892   7.872
  106SBC   C0GN74484   3.812  -0.999   7.880
  106SBC   H01L74485   3.862  -1.094   7.872
  106SBC   C0GM74486   3.667  -0.986   7.887
  106SBC   C0GL74487   3.592  -1.092   7.901
  106SBC   H01M74488   3.628  -1.193   7.889
  106SBC   O00J74489   3.458  -1.089   7.920
  106SBC   C0GK74490   3.410  -0.959   7.941
  106SBC   H01N74491   3.302  -0.953   7.945
  106SBC   C05K74492   3.489  -0.851   7.953
  106SBC   C05J74493   3.440  -0.719   7.992
  106SBC   C04Y74494   3.309  -0.697   8.048
  106SBC   C04X74495   3.258  -0.573   8.084
  106SBC   O00674496   3.227  -0.803   8.076
  106SBC   C05374497   3.110  -0.792   8.153
  106SBC   C04O74498   3.054  -0.660   8.179
  106SBC   C03C74499   2.932  -0.623   8.246
  106SBC   C03B74500   2.829  -0.694   8.319
  106SBC   C05474501   2.823  -0.828   8.337
  106SBC   C0GR74502   2.709  -0.891   8.393
  106SBC   C03M74503   2.583  -0.847   8.471
  106SBC   C03I74504   2.548  -0.709   8.503
  106SBC   C03J74505   2.440  -0.687   8.596
  106SBC   N00274506   2.389  -0.553   8.613
  106SBC   C02U74507   2.283  -0.526   8.707
  106SBC   C02T74508   2.231  -0.398   8.728
  106SBC   C02Z74509   2.127  -0.382   8.824
  106SBC   N00174510   2.079  -0.248   8.854
  106SBC   C02R74511   1.990  -0.234   8.963
  106SBC   C03274512   1.936  -0.341   9.030
  106SBC   C03174513   1.982  -0.472   8.990
  106SBC   H00774514   1.931  -0.558   9.031
  106SBC   C03374515   1.831  -0.314   9.124
  106SBC   H00374516   1.806  -0.398   9.187
  106SBC   O00474517   1.791  -0.190   9.165
  106SBC   C03474518   1.845  -0.087   9.091
  106SBC   C03574519   1.804   0.041   9.121
  106SBC   C03674520   1.846   0.153   9.041
  106SBC   H00574521   1.817   0.257   9.047
  106SBC   C03774522   1.929   0.130   8.934
  106SBC   H00674523   1.945   0.217   8.872
  106SBC   C00D74524   1.996   0.005   8.922
  106SBC   C00C74525   2.096  -0.011   8.826
  106SBC   C00B74526   2.161   0.110   8.755
  106SBC   C00A74527   2.171   0.259   8.760
  106SBC   C00974528   2.261   0.283   8.645
  106SBC   C00874529   2.349   0.396   8.627
  106SBC   C00774530   2.322   0.506   8.711
  106SBC   C00674531   2.392   0.624   8.682
  106SBC   C00574532   2.371   0.735   8.767
  106SBC   C00474533   2.293   0.721   8.882
  106SBC   C00374534   2.236   0.596   8.912
  106SBC   C00274535   2.170   0.582   9.031
  106SBC   C01C74536   2.142   0.696   9.113
  106SBC   C01B74537   2.050   0.685   9.225
  106SBC   H00074538   1.989   0.595   9.232
  106SBC   C00174539   2.132   0.452   9.074
  106SBC   C00074540   2.155   0.344   8.985
  106SBC   C01U74541   2.165   0.236   9.077
  106SBC   H00274542   2.202   0.137   9.056
  106SBC   C01T74543   2.118   0.286   9.213
  106SBC   O00274544   2.088   0.225   9.312
  106SBC   O00174545   2.112   0.417   9.203
  106SBC   C01S74546   2.246   0.487   8.821
  106SBC   C00N74547   2.450   0.382   8.537
  106SBC   C00M74548   2.489   0.262   8.483
  106SBC   C00J74549   2.417   0.148   8.508
  106SBC   C00I74550   2.454   0.023   8.474
  106SBC   C00H74551   2.383  -0.086   8.525
  106SBC   C00G74552   2.283  -0.070   8.613
  106SBC   C00F74553   2.231  -0.172   8.685
  106SBC   C01X74554   2.428  -0.212   8.493
  106SBC   C01W74555   2.543  -0.227   8.413
  106SBC   C01V74556   2.606  -0.115   8.361
  106SBC   C02074557   2.728  -0.128   8.297
  106SBC   C01Z74558   2.595  -0.352   8.393
  106SBC   C02Y74559   2.704  -0.359   8.311
  106SBC   C03974560   2.765  -0.482   8.297
  106SBC   C02W74561   2.545  -0.467   8.458
  106SBC   C01Y74562   2.376  -0.320   8.556
  106SBC   C00U74563   2.568   0.010   8.403
  106SBC   C00S74564   2.641   0.121   8.364
  106SBC   C00T74565   2.769   0.107   8.302
  106SBC   C00R74566   2.604   0.245   8.406
  106SBC   C00Q74567   2.684   0.350   8.384
  106SBC   C00V74568   2.809   0.335   8.321
  106SBC   C02474569   2.888   0.447   8.304
  106SBC   C00X74570   2.845   0.570   8.349
  106SBC   C00P74571   2.643   0.472   8.442
  106SBC   C00O74572   2.527   0.488   8.514
  106SBC   C00K74573   2.300   0.167   8.583
  106SBC   N00074574   2.195   0.362   8.856
  106SBC   C00L74575   2.241   0.065   8.647
  106SBC   H00474576   1.732   0.056   9.201
  106SBC   C02Q74577   1.941  -0.107   8.987
  106SBC   C00E74578   2.137  -0.139   8.784
  106SBC   C03074579   2.079  -0.490   8.896
  106SBC   O00374580   2.117  -0.617   8.860
  106SBC   C02S74581   2.280  -0.296   8.657
  106SBC   C03874582   2.229  -0.633   8.774
  106SBC   C03L74583   2.275  -0.763   8.748
  106SBC   H00874584   2.229  -0.842   8.805
  106SBC   C02V74585   2.436  -0.445   8.542
  106SBC   C03K74586   2.369  -0.792   8.651
  106SBC   C0BK74587   2.394  -0.920   8.600
  106SBC   H00T74588   2.335  -1.003   8.634
  106SBC   C03H74589   2.604  -0.596   8.441
  106SBC   C0BL74590   2.498  -0.955   8.507
  106SBC   C0GU74591   2.519  -1.089   8.462
  106SBC   H01O74592   2.452  -1.165   8.498
  106SBC   C0GT74593   2.631  -1.127   8.385
  106SBC   H01P74594   2.644  -1.228   8.348
  106SBC   C0GS74595   2.725  -1.028   8.351
  106SBC   C0GV74596   2.838  -1.040   8.271
  106SBC   C0GW74597   2.888  -1.165   8.203
  106SBC   H01Q74598   2.843  -1.263   8.209
  106SBC   C0GX74599   3.007  -1.149   8.145
  106SBC   H01R74600   3.046  -1.237   8.096
  106SBC   O00L74601   3.079  -1.030   8.127
  106SBC   C0GQ74602   2.907  -0.918   8.262
  106SBC   C03A74603   2.723  -0.595   8.361
  106SBC   C05L74604   3.029  -0.910   8.184
  106SBC   C04W74605   3.520  -0.610   7.976
  106SBC   C05I74606   3.653  -0.621   7.930
  106SBC   C05O74607   3.702  -0.741   7.903
  106SBC   C05274608   3.738  -0.511   7.917
  106SBC   C04V74609   3.473  -0.481   7.994
  106SBC   C04U74610   3.550  -0.368   7.971
  106SBC   N00974611   3.619  -0.857   7.915
  106SBC   C0GP74612   3.837  -0.764   7.883
  106SBC   C05W74613   3.920  -0.655   7.871
  106SBC   C07D74614   4.286  -0.593   7.834
  106SBC   C06J74615   4.183  -0.326   7.854
  106SBC   C05P74616   3.875  -0.529   7.882
  106SBC   C05R74617   4.003  -0.187   7.891
  106SBC   C04Z74618   3.684  -0.382   7.930
  106SBC   C04C74619   3.816  -0.042   7.954
  106SBC   C04G74620   3.620   0.102   8.014
  106SBC   C04J74621   3.358   0.143   8.087
  106SBC   C04T74622   3.502  -0.241   7.992
  106SBC   N00374623   3.344  -0.460   8.049
  106SBC   C04P74624   3.129  -0.549   8.136
  106SBC   C03D74625   2.885  -0.496   8.237
  106SBC   C02174626   2.776  -0.250   8.265
  106SBC   C03F74627   3.111  -0.181   8.134
  106SBC   C02274628   2.811  -0.021   8.265
  106SBC   C02A74629   3.143   0.055   8.133
  106SBC   C02374630   2.851   0.216   8.287
  106SBC   C02574631   3.017   0.435   8.252
  106SBC   C02D74632   3.104   0.543   8.246
  106SBC   C02E74633   3.060   0.666   8.294
  106SBC   C02N74634   3.148   0.776   8.310
  106SBC   C04N74635   3.230   0.164   8.128
  106SBC   C02P74636   3.233   0.529   8.201
  106SBC   C04I74637   3.445   0.251   8.083
  106SBC   C04474638   3.627   0.458   8.107
  106SBC   C04374639   3.321   0.637   8.217
  106SBC   C05N74640   3.276   0.761   8.269
  106SBC   C09U74641   3.571   1.054   8.327
  106SBC   C09V74642   3.673   1.139   8.370
  106SBC   C09X74643   3.650   1.262   8.435
  106SBC   C09Y74644   3.743   1.351   8.489
  106SBC   C0A174645   3.873   1.309   8.485
  106SBC   C0A274646   3.904   1.193   8.411
  106SBC   C0A474647   4.038   1.159   8.408
  106SBC   C07174648   4.074   1.043   8.336
  106SBC   C0A574649   4.205   1.005   8.329
  106SBC   C0A974650   4.303   1.087   8.391
  106SBC   C0A874651   4.262   1.200   8.457
  106SBC   C0AP74652   4.355   1.282   8.512
  106SBC   C0BY74653   4.313   1.393   8.577
  106SBC   C0BX74654   4.185   1.430   8.597
  106SBC   C0C274655   4.153   1.531   8.690
  106SBC   C0C374656   4.021   1.567   8.700
  106SBC   C0CT74657   3.927   1.501   8.625
  106SBC   C0C174658   4.249   1.595   8.764
  106SBC   C0C074659   4.391   1.569   8.735
  106SBC   C0A774660   4.093   1.358   8.527
  106SBC   C0BZ74661   4.414   1.469   8.639
  106SBC   C0BO74662   4.546   1.436   8.629
  106SBC   C0BN74663   4.586   1.313   8.581
  106SBC   C0BM74664   4.715   1.277   8.596
  106SBC   C0B974665   4.752   1.159   8.525
  106SBC   C0B874666   4.659   1.088   8.456
  106SBC   C0AD74667   4.526   1.128   8.450
  106SBC   C0AF74668   4.703   0.975   8.388
  106SBC   C0AG74669   4.838   0.931   8.391
  106SBC   C0B774670   4.928   1.006   8.466
  106SBC   C0AE74671   4.607   0.913   8.324
  106SBC   C0AB74672   4.477   0.948   8.315
  106SBC   C0AA74673   4.380   0.865   8.254
  106SBC   C0AJ74674   4.650   0.800   8.260
  106SBC   C0AK74675   4.553   0.729   8.187
  106SBC   C06W74676   4.623   0.635   8.127
  106SBC   C0AI74677   4.783   0.755   8.243
  106SBC   C0BP74678   4.621   1.519   8.712
  106SBC   C0BQ74679   4.757   1.478   8.731
  106SBC   C0BW74680   4.488   1.238   8.517
  106SBC   C0AC74681   4.435   1.051   8.389
  106SBC   C0A674682   4.131   1.243   8.460
  106SBC   C0A374683   3.964   1.388   8.548
  106SBC   C09Z74684   3.704   1.469   8.555
  106SBC   C09W74685   3.807   1.112   8.360
  106SBC   C07274686   3.840   0.995   8.298
  106SBC   C09H74687   3.517   1.297   8.426
  106SBC   C09G74688   3.481   1.420   8.476
  106SBC   C09P74689   3.349   1.432   8.475
  106SBC   C02O74690   3.116   1.127   8.417
  106SBC   C02M74691   3.102   0.897   8.366
  106SBC   C02F74692   2.932   0.678   8.342
  106SBC   C00W74693   2.723   0.576   8.412
  106SBC   C01R74694   2.496   0.607   8.581
  106SBC   C01N74695   2.707   0.902   8.511
  106SBC   C01L74696   2.699   1.106   8.632
  106SBC   C01H74697   2.504   1.205   8.916
  106SBC   C01K74698   2.432   0.870   8.750
  106SBC   C01E74699   2.283   0.831   8.973
  106SBC   C01G74700   2.414   1.189   9.026
  106SBC   C01D74701   2.205   0.820   9.087
  106SBC   C01A74702   2.033   0.794   9.308
  106SBC   H00174703   1.962   0.791   9.389
  106SBC   C01F74704   2.250   1.149   9.254
  106SBC   C03P74705   2.186   1.352   9.448
  106SBC   C03T74706   2.336   1.491   9.339
  106SBC   C08I74707   2.487   1.722   9.313
  106SBC   C08J74708   2.570   1.828   9.292
  106SBC   C08L74709   2.765   1.927   9.185
  106SBC   C09374710   2.993   1.999   9.101
  106SBC   C08Z74711   2.982   1.794   8.915
  106SBC   C09T74712   3.421   1.946   8.921
  106SBC   C09S74713   3.199   1.766   8.707
  106SBC   C09Q74714   3.289   1.551   8.531
  106SBC   C09F74715   3.576   1.503   8.547
  106SBC   C09E74716   3.542   1.800   8.763
  106SBC   C0A074717   3.793   1.541   8.631
  106SBC   C0CU74718   3.978   1.666   8.789
  106SBC   C0CR74719   4.076   1.724   8.875
  106SBC   C0CZ74720   4.042   1.835   8.959
  106SBC   C0DA74721   3.559   1.885   8.882
  106SBC   C0D974722   3.730   2.042   9.160
  106SBC   H00V74723   3.641   2.034   9.221
  106SBC   C0CY74724   3.923   1.901   8.931
  106SBC   C0DF74725   3.855   2.101   9.206
  106SBC   C0DE74726   3.935   2.163   9.313
  106SBC   C0GI74727   3.901   2.247   9.424
  106SBC   H01K74728   3.800   2.276   9.450
  106SBC   C0GJ74729   4.005   2.307   9.490
  106SBC   H01J74730   3.987   2.378   9.570
  106SBC   O00I74731   4.143   2.282   9.465
  106SBC   C0GH74732   4.182   2.206   9.354
  106SBC   C0GG74733   4.321   2.177   9.332
  106SBC   O00G74734   4.410   2.263   9.385
  106SBC   C0G874735   4.542   2.242   9.365
  106SBC   C0G974736   4.617   2.341   9.418
  106SBC   H01G74737   4.568   2.422   9.470
  106SBC   C0GA74738   4.756   2.332   9.410
  106SBC   H01H74739   4.807   2.416   9.454
  106SBC   C0GB74740   4.828   2.221   9.359
  106SBC   C0EP74741   4.749   2.124   9.289
  106SBC   C0E874742   4.815   2.024   9.205
  106SBC   C0CK74743   4.786   1.919   9.117
  106SBC   C0CL74744   4.664   1.857   9.131
  106SBC   C0E974745   4.549   1.912   9.196
  106SBC   C0GE74746   4.510   2.038   9.262
  106SBC   C0E774747   4.956   2.008   9.219
  106SBC   C0CJ74748   5.005   1.904   9.143
  106SBC   C0E674749   5.141   1.875   9.165
  106SBC   H00Y74750   5.194   1.789   9.126
  106SBC   C0EO74751   5.225   1.974   9.228
  106SBC   H01174752   5.330   1.958   9.249
  106SBC   C0G674753   5.172   2.089   9.290
  106SBC   C0G574754   5.247   2.196   9.348
  106SBC   H01F74755   5.355   2.194   9.342
  106SBC   C0GD74756   5.186   2.307   9.392
  106SBC   H01I74757   5.247   2.392   9.418
  106SBC   O00H74758   5.053   2.314   9.416
  106SBC   C0EQ74759   5.030   2.104   9.295
  106SBC   C0GC74760   4.973   2.213   9.364
  106SBC   C0G774761   4.605   2.129   9.302
  106SBC   C0DD74762   4.073   2.155   9.277
  106SBC   C0GF74763   4.368   2.063   9.266
  106SBC   C0CO74764   4.453   1.816   9.171
  106SBC   C0D074765   4.139   1.871   9.059
  106SBC   C0C474766   4.212   1.674   8.871
  106SBC   C0CN74767   4.502   1.698   9.113
  106SBC   C0CP74768   4.525   1.603   8.777
  106SBC   C0CM74769   4.639   1.718   9.089
  106SBC   C0CI74770   4.899   1.850   9.059
  106SBC   C0CD74771   5.218   1.581   8.817
  106SBC   C0BR74772   4.850   1.556   8.808
  106SBC   C0CS74773   4.801   1.359   8.664
  106SBC   C0B674774   4.888   1.126   8.527
  106SBC   C0CG74775   5.162   1.368   8.726
  106SBC   C0CF74776   5.256   1.457   8.773
  106SBC   C0E574777   5.451   1.642   8.843
  106SBC   C0DT74778   5.714   1.570   8.839
  106SBC   C0DL74779   5.560   1.250   8.747
  106SBC   C0DM74780   5.604   1.118   8.702
  106SBC   C0DY74781   5.835   1.171   8.748
  106SBC   C0DU74782   5.845   1.527   8.840
  106SBC   C0F074783   6.072   1.597   8.825
  106SBC   C0F474784   6.316   1.570   8.711
  106SBC   C0FG74785   6.198   1.215   8.764
  106SBC   O00B74786   6.468   1.400   8.598
  106SBC   C0FN74787   6.259   1.111   8.708
  106SBC   C0DZ74788   5.972   1.137   8.742
  106SBC   O00C74789   5.952   0.821   8.560
  106SBC   C0FR74790   5.873   0.744   8.488
  106SBC   O00D74791   5.930   0.656   8.423
  106SBC   C0E074792   5.741   1.085   8.698
  106SBC   C0E374793   5.735   0.774   8.494
  106SBC   C0AW74794   5.637   0.695   8.432
  106SBC   C0AV74795   5.668   0.583   8.354
  106SBC   H00Q74796   5.755   0.519   8.355
  106SBC   C0AU74797   5.570   0.525   8.273
  106SBC   H00R74798   5.589   0.438   8.212
  106SBC   C0AT74799   5.441   0.574   8.271
  106SBC   C0AS74800   5.314   0.550   8.205
  106SBC   C0AR74801   5.310   0.461   8.091
  106SBC   C0BE74802   5.412   0.676   8.362
  106SBC   C0DN74803   5.507   1.045   8.642
  106SBC   C0AX74804   5.507   0.741   8.440
  106SBC   C0BB74805   5.282   1.005   8.557
  106SBC   C0BD74806   5.278   0.710   8.360
  106SBC   C0B274807   5.056   0.966   8.480
  106SBC   C0AH74808   4.886   0.821   8.315
  106SBC   C0BF74809   5.205   0.634   8.264
  106SBC   C0AL74810   4.765   0.640   8.151
  106SBC   C07U74811   5.054   0.444   8.078
  106SBC   C0AQ74812   5.188   0.406   8.052
  106SBC   C0BG74813   5.417   0.379   8.038
  106SBC   C0FY74814   5.378   0.165   7.755
  106SBC   C0BJ74815   5.534   0.416   7.952
  106SBC   H00S74816   5.584   0.512   7.952
  106SBC   C0FZ74817   5.474   0.196   7.653
  106SBC   C07S74818   5.249   0.119   7.714
  106SBC   C0G174819   5.308   0.097   7.345
  106SBC   C07K74820   4.976  -0.071   7.363
  106SBC   C07H74821   4.991   0.049   7.626
  106SBC   C06B74822   4.738  -0.184   7.719
  106SBC   C06N74823   4.592  -0.033   7.806
  106SBC   C06674824   4.905   0.187   7.826
  106SBC   C06274825   4.707   0.383   7.952
  106SBC   C05Y74826   4.414   0.135   7.883
  106SBC   C06174827   4.587   0.460   7.954
  106SBC   C05H74828   4.233   0.398   7.993
  106SBC   C06V74829   4.545   0.556   8.048
  106SBC   C06Y74830   4.412   0.759   8.181
  106SBC   C05C74831   4.088   0.599   8.102
  106SBC   C06Z74832   4.246   0.893   8.263
  106SBC   C07074833   3.973   0.966   8.280
  106SBC   C05B74834   3.953   0.632   8.125
  106SBC   C05774835   3.679   0.691   8.171
  106SBC   C05974836   3.743   0.909   8.255
  107SBC   C05874837   9.631   5.453   7.312
  107SBC   C05A74838   9.502   5.397   7.316
  107SBC   C06Q74839   9.394   5.479   7.321
  107SBC   C06R74840   9.263   5.431   7.329
  107SBC   C06S74841   9.240   5.291   7.348
  107SBC   C06T74842   9.107   5.247   7.369
  107SBC   C06U74843   9.066   5.116   7.415
  107SBC   C06X74844   9.123   4.992   7.417
  107SBC   C06074845   9.035   4.894   7.476
  107SBC   C05Z74846   9.016   4.751   7.469
  107SBC   C06874847   8.871   4.738   7.515
  107SBC   C06774848   8.799   4.615   7.549
  107SBC   C06974849   8.853   4.486   7.517
  107SBC   C06A74850   8.796   4.351   7.543
  107SBC   C07374851   8.723   4.302   7.651
  107SBC   C07P74852   8.771   4.192   7.726
  107SBC   C07O74853   8.899   4.137   7.723
  107SBC   H00D74854   8.983   4.189   7.680
  107SBC   C07N74855   8.926   4.007   7.766
  107SBC   H00E74856   9.031   3.983   7.760
  107SBC   C07M74857   8.828   3.939   7.836
  107SBC   H00F74858   8.873   3.852   7.881
  107SBC   C07L74859   8.705   4.005   7.870
  107SBC   C07Q74860   8.601   3.944   7.953
  107SBC   H00G74861   8.624   3.848   7.996
  107SBC   O00F74862   8.483   4.002   7.986
  107SBC   C07J74863   8.460   4.120   7.927
  107SBC   C07I74864   8.559   4.191   7.844
  107SBC   N00474865   8.518   4.312   7.777
  107SBC   C07R74866   8.380   4.353   7.791
  107SBC   C07T74867   8.293   4.284   7.879
  107SBC   C0FX74868   8.174   4.341   7.919
  107SBC   C0FW74869   8.085   4.291   8.013
  107SBC   C0G074870   8.126   4.170   8.069
  107SBC   C0G274871   8.047   4.105   8.168
  107SBC   H01E74872   8.083   4.012   8.209
  107SBC   C0G374873   7.927   4.161   8.208
  107SBC   H01C74874   7.861   4.123   8.284
  107SBC   C0G474875   7.903   4.294   8.158
  107SBC   H01D74876   7.824   4.350   8.206
  107SBC   O00E74877   8.240   4.102   8.025
  107SBC   C0FV74878   7.970   4.360   8.057
  107SBC   C0FU74879   7.944   4.486   7.992
  107SBC   H01B74880   7.853   4.535   8.023
  107SBC   C0FT74881   8.023   4.534   7.890
  107SBC   C0FS74882   8.034   4.644   7.798
  107SBC   C0BI74883   8.135   4.614   7.704
  107SBC   C0BH74884   8.178   4.724   7.629
  107SBC   C07F74885   8.315   4.763   7.628
  107SBC   C07E74886   8.426   4.679   7.619
  107SBC   C07G74887   8.437   4.547   7.658
  107SBC   C07474888   8.570   4.507   7.638
  107SBC   C06574889   8.551   4.721   7.596
  107SBC   C06474890   8.560   4.864   7.576
  107SBC   C06374891   8.666   4.934   7.529
  107SBC   C07574892   8.618   5.082   7.529
  107SBC   C0AM74893   8.476   5.090   7.564
  107SBC   C0AN74894   8.391   5.218   7.573
  107SBC   C0AO74895   8.423   5.369   7.546
  107SBC   C0B174896   8.326   5.471   7.575
  107SBC   C0B074897   8.193   5.443   7.615
  107SBC   C0AZ74898   8.095   5.538   7.646
  107SBC   C0AY74899   7.970   5.495   7.698
  107SBC   N00774900   7.873   5.586   7.736
  107SBC   C0E274901   7.756   5.542   7.801
  107SBC   C0E174902   7.666   5.639   7.844
  107SBC   C0E474903   7.550   5.599   7.913
  107SBC   C0FF74904   7.452   5.689   7.953
  107SBC   C0FJ74905   7.337   5.670   8.038
  107SBC   C0FK74906   7.340   5.588   8.151
  107SBC   H01674907   7.413   5.512   8.171
  107SBC   C0FL74908   7.251   5.655   8.249
  107SBC   H01774909   7.263   5.625   8.352
  107SBC   C0FM74910   7.189   5.770   8.188
  107SBC   C0FH74911   7.165   5.912   8.219
  107SBC   C0FI74912   7.202   5.982   8.097
  107SBC   C0F374913   7.253   6.111   8.121
  107SBC   C0F274914   7.348   6.140   8.032
  107SBC   C0DW74915   7.420   6.056   7.948
  107SBC   C0FE74916   7.386   5.925   7.944
  107SBC   C0DV74917   7.545   6.093   7.896
  107SBC   C0DX74918   7.628   6.000   7.844
  107SBC   C0DK74919   7.753   6.045   7.804
  107SBC   C0DJ74920   7.796   6.179   7.821
  107SBC   C0DI74921   7.926   6.218   7.782
  107SBC   C0DH74922   8.014   6.128   7.722
  107SBC   C0DG74923   7.973   5.992   7.715
  107SBC   C0BV74924   8.061   5.894   7.665
  107SBC   C0BC74925   8.026   5.758   7.673
  107SBC   C0BA74926   8.180   5.939   7.607
  107SBC   C0B474927   8.273   5.843   7.572
  107SBC   C0B374928   8.251   5.706   7.589
  107SBC   C0B574929   8.398   5.888   7.524
  107SBC   C0BU74930   8.424   6.026   7.504
  107SBC   C0BT74931   8.327   6.121   7.542
  107SBC   C0BS74932   8.359   6.261   7.527
  107SBC   C0CC74933   8.266   6.354   7.579
  107SBC   C0CB74934   8.291   6.488   7.561
  107SBC   C0CH74935   8.225   6.568   7.657
  107SBC   C0DO74936   8.107   6.534   7.727
  107SBC   C0DP74937   8.029   6.626   7.798
  107SBC   C0EA74938   8.067   6.762   7.810
  107SBC   H01274939   8.163   6.789   7.771
  107SBC   O00974940   7.993   6.853   7.878
  107SBC   C0EH74941   7.887   6.797   7.945
  107SBC   C0EG74942   7.824   6.882   8.033
  107SBC   C0EJ74943   7.844   7.023   8.077
  107SBC   H01074944   7.919   7.091   8.040
  107SBC   C0EK74945   7.744   7.061   8.178
  107SBC   H00Z74946   7.744   7.155   8.231
  107SBC   C0EL74947   7.663   6.946   8.185
  107SBC   C0EM74948   7.554   6.918   8.272
  107SBC   C0EW74949   7.483   7.005   8.364
  107SBC   H01374950   7.519   7.107   8.374
  107SBC   C0EX74951   7.375   6.950   8.447
  107SBC   H01474952   7.332   7.012   8.524
  107SBC   C0F174953   7.333   6.814   8.440
  107SBC   C0EU74954   7.397   6.737   8.347
  107SBC   C0ET74955   7.376   6.599   8.323
  107SBC   C0ES74956   7.469   6.568   8.220
  107SBC   C0EE74957   7.551   6.681   8.187
  107SBC   C0ED74958   7.659   6.719   8.100
  107SBC   C0EC74959   7.728   6.626   8.014
  107SBC   C0EB74960   7.685   6.491   7.986
  107SBC   C0EN74961   7.563   6.432   8.037
  107SBC   C0ER74962   7.518   6.311   7.982
  107SBC   C0DS74963   7.758   6.406   7.905
  107SBC   C0DR74964   7.877   6.447   7.852
  107SBC   C0EY74965   7.465   6.458   8.136
  107SBC   C0EZ74966   7.368   6.354   8.156
  107SBC   C0F574967   7.275   6.310   8.260
  107SBC   C0F674968   7.237   6.392   8.368
  107SBC   N00874969   7.146   6.329   8.462
  107SBC   C0F774970   7.108   6.190   8.456
  107SBC   C0FQ74971   7.026   6.144   8.556
  107SBC   H01874972   7.002   6.039   8.551
  107SBC   C0FP74973   6.976   6.214   8.666
  107SBC   H01974974   6.905   6.168   8.733
  107SBC   C0FO74975   7.020   6.340   8.673
  107SBC   H01A74976   6.988   6.388   8.764
  107SBC   C0F874977   7.159   6.114   8.340
  107SBC   C0F974978   7.088   6.406   8.568
  107SBC   C0FA74979   7.115   6.545   8.586
  107SBC   H01574980   7.077   6.604   8.668
  107SBC   C0FB74981   7.209   6.610   8.496
  107SBC   C0FD74982   7.270   6.531   8.394
  107SBC   C0FC74983   7.239   6.746   8.525
  107SBC   O00A74984   7.195   6.815   8.618
  107SBC   C0EV74985   7.504   6.788   8.266
  107SBC   C0EF74986   7.712   6.846   8.105
  107SBC   C0EI74987   7.840   6.666   7.941
  107SBC   C0DQ74988   7.912   6.579   7.861
  107SBC   C0CE74989   8.073   6.399   7.723
  107SBC   H00U74990   8.257   6.671   7.664
  107SBC   C0CA74991   8.379   6.534   7.452
  107SBC   C0C974992   8.479   6.441   7.401
  107SBC   C0C874993   8.570   6.487   7.302
  107SBC   C0C774994   8.704   6.440   7.259
  107SBC   C0C674995   8.770   6.510   7.158
  107SBC   C0C574996   8.903   6.550   7.122
  107SBC   C0CQ74997   8.916   6.672   7.048
  107SBC   C0D174998   8.821   6.775   7.058
  107SBC   C0D874999   8.876   6.894   7.086
  107SBC   C0D775000   9.014   6.885   7.043
  107SBC   C0D675001   9.112   6.985   7.058
  107SBC   C0D575002   9.252   6.968   7.030
  107SBC   C0D475003   9.329   6.857   6.992
  107SBC   C0D375004   9.464   6.881   7.037
  107SBC   C0CX75005   9.525   6.758   7.074
  107SBC   C0CW75006   9.415   6.667   7.100
  107SBC   C0CV75007   9.403   6.528   7.153
  107SBC   C0D275008   9.519   6.449   7.205
  107SBC   C09D75009   9.648   6.491   7.225
  107SBC   C09C75010   9.746   6.405   7.288
  107SBC   C09B75011   9.886   6.430   7.299
  107SBC   C09A75012   9.928   6.555   7.258
  107SBC   C09975013   9.836   6.648   7.215
  107SBC   C09875014   9.902   6.746   7.144
  107SBC   C08Y75015  10.044   6.702   7.127
  107SBC   C08X75016  10.149   6.739   7.033
  107SBC   C08W75017  10.120   6.837   6.932
  107SBC   C08U75018   9.989   6.898   6.902
  107SBC   C08V75019   9.844   6.873   6.939
  107SBC   C0DC75020   9.772   6.974   6.865
  107SBC   H00W75021   9.664   6.984   6.865
  107SBC   C0DB75022   9.856   7.053   6.778
  107SBC   H00X75023   9.814   7.129   6.712
  107SBC   C08T75024   9.991   7.004   6.801
  107SBC   C08S75025  10.098   7.045   6.727
  107SBC   H00N75026  10.085   7.120   6.650
  107SBC   C08R75027  10.222   6.979   6.743
  107SBC   C08Q75028  10.336   7.001   6.663
  107SBC   H00O75029  10.326   7.079   6.589
  107SBC   C08P75030  10.462   6.947   6.675
  107SBC   C08O75031  10.573   6.979   6.589
  107SBC   H00P75032  10.570   7.059   6.517
  107SBC   C08N75033  10.691   6.899   6.606
  107SBC   C08M75034  10.804   6.930   6.513
  107SBC   O00875035  10.799   7.007   6.417
  107SBC   O00775036  10.925   6.863   6.534
  107SBC   C08H75037  10.940   6.765   6.628
  107SBC   C08G75038  11.060   6.687   6.636
  107SBC   C03V75039  11.181   6.699   6.565
  107SBC   H00975040  11.174   6.758   6.475
  107SBC   C03U75041  11.296   6.628   6.599
  107SBC   C03W75042  11.426   6.652   6.544
  107SBC   H00A75043  11.427   6.737   6.478
  107SBC   C03X75044  11.527   6.575   6.584
  107SBC   H00B75045  11.621   6.598   6.536
  107SBC   O00575046  11.526   6.470   6.670
  107SBC   C03O75047  11.400   6.447   6.726
  107SBC   C03N75048  11.387   6.344   6.821
  107SBC   O00075049  11.500   6.270   6.848
  107SBC   C01975050  11.486   6.152   6.917
  107SBC   C01875051  11.364   6.113   6.974
  107SBC   C01775052  11.255   6.201   6.963
  107SBC   C01675053  11.134   6.175   7.031
  107SBC   C01575054  11.134   6.051   7.098
  107SBC   C01475055  11.020   6.020   7.174
  107SBC   C01375056  10.905   6.103   7.176
  107SBC   C01275057  10.810   6.020   7.253
  107SBC   C01175058  10.886   5.906   7.299
  107SBC   C01075059  10.828   5.814   7.372
  107SBC   C00Z75060  10.871   5.685   7.398
  107SBC   C00Y75061  10.749   5.623   7.443
  107SBC   C01O75062  10.641   5.709   7.453
  107SBC   C01P75063  10.512   5.662   7.424
  107SBC   C02L75064  10.420   5.756   7.394
  107SBC   C02K75065  10.467   5.886   7.366
  107SBC   C01M75066  10.603   5.925   7.353
  107SBC   C02J75067  10.366   5.982   7.360
  107SBC   C02I75068  10.376   6.120   7.349
  107SBC   C02H75069  10.483   6.194   7.311
  107SBC   C01Q75070  10.610   6.158   7.268
  107SBC   C02G75071  10.667   6.265   7.202
  107SBC   C08975072  10.578   6.371   7.221
  107SBC   C08875073  10.594   6.470   7.123
  107SBC   C08775074  10.723   6.430   7.070
  107SBC   C08675075  10.791   6.487   6.955
  107SBC   C03S75076  10.928   6.464   6.910
  107SBC   N00675077  10.949   6.558   6.807
  107SBC   C08F75078  10.838   6.627   6.792
  107SBC   C01J75079  11.029   6.375   6.935
  107SBC   C03R75080  11.148   6.395   6.859
  107SBC   C03Q75081  11.163   6.498   6.764
  107SBC   C08E75082  10.737   6.601   6.883
  107SBC   C08D75083  10.610   6.675   6.887
  107SBC   C08K75084  10.592   6.777   6.791
  107SBC   C08C75085  10.497   6.644   6.966
  107SBC   C09175086  10.378   6.715   6.952
  107SBC   C09275087  10.359   6.818   6.857
  107SBC   C08B75088  10.488   6.555   7.073
  107SBC   C09075089  10.352   6.577   7.124
  107SBC   C09475090  10.296   6.520   7.241
  107SBC   C09575091  10.155   6.511   7.263
  107SBC   C09R75092  10.119   6.392   7.321
  107SBC   C09775093  10.234   6.312   7.331
  107SBC   C09675094  10.341   6.395   7.288
  107SBC   C01I75095  10.781   6.305   7.124
  107SBC   C08A75096  10.461   6.325   7.274
  107SBC   C09L75097  10.253   6.176   7.350
  107SBC   C09K75098  10.153   6.071   7.370
  107SBC   C09J75099  10.017   6.086   7.402
  107SBC   C09I75100   9.919   5.983   7.379
  107SBC   C09O75101   9.921   5.843   7.355
  107SBC   C09N75102  10.040   5.761   7.361
  107SBC   C09M75103  10.177   5.806   7.370
  107SBC   C06O75104  10.019   5.619   7.361
  107SBC   C05M75105   9.888   5.563   7.348
  107SBC   C06P75106   9.776   5.645   7.340
  107SBC   C04275107   9.868   5.428   7.332
  107SBC   C04175108   9.978   5.341   7.337
  107SBC   C04075109   9.959   5.201   7.316
  107SBC   C03Z75110  10.061   5.113   7.324
  107SBC   C03Y75111  10.187   5.164   7.342
  107SBC   C02775112  10.296   5.079   7.336
  107SBC   C02675113  10.422   5.129   7.351
  107SBC   C02875114  10.527   5.045   7.351
  107SBC   C02975115  10.511   4.909   7.331
  107SBC   C02B75116  10.616   4.823   7.324
  107SBC   C02C75117  10.590   4.687   7.318
  107SBC   C02X75118  10.696   4.604   7.308
  107SBC   C03E75119  10.671   4.472   7.290
  107SBC   C03G75120  10.553   4.407   7.276
  107SBC   C04Q75121  10.446   4.491   7.292
  107SBC   C04R75122  10.319   4.443   7.280
  107SBC   C04S75123  10.211   4.527   7.284
  107SBC   C04L75124  10.231   4.666   7.294
  107SBC   C04M75125  10.359   4.720   7.309
  107SBC   C04K75126  10.125   4.752   7.298
  107SBC   C04F75127   9.995   4.704   7.273
  107SBC   C04E75128   9.974   4.565   7.282
  107SBC   C04D75129   9.847   4.519   7.297
  107SBC   C05075130   9.823   4.383   7.309
  107SBC   C05175131   9.691   4.335   7.326
  107SBC   C05Q75132   9.670   4.199   7.324
  107SBC   C05V75133   9.541   4.153   7.342
  107SBC   N00575134   9.518   4.017   7.327
  107SBC   C07V75135   9.624   3.930   7.307
  107SBC   C08275136   9.602   3.794   7.295
  107SBC   C08175137   9.477   3.741   7.282
  107SBC   C07C75138   9.369   3.829   7.293
  107SBC   C07B75139   9.236   3.784   7.281
  107SBC   C08075140   9.213   3.648   7.236
  107SBC   C07Z75141   9.073   3.612   7.223
  107SBC   H00L75142   9.054   3.513   7.184
  107SBC   C07975143   8.969   3.691   7.262
  107SBC   C07875144   8.997   3.823   7.297
  107SBC   C07775145   8.890   3.904   7.337
  107SBC   C07X75146   8.755   3.850   7.338
  107SBC   H00I75147   8.668   3.909   7.362
  107SBC   C07Y75148   8.723   3.725   7.296
  107SBC   H00H75149   8.626   3.679   7.300
  107SBC   C07675150   8.918   4.038   7.376
  107SBC   C06C75151   8.814   4.118   7.430
  107SBC   H00C75152   8.714   4.085   7.452
  107SBC   C06F75153   9.046   4.093   7.361
  107SBC   C06E75154   9.073   4.228   7.377
  107SBC   C06G75155   9.195   4.281   7.382
  107SBC   C06H75156   9.305   4.193   7.361
  107SBC   C06I75157   9.280   4.058   7.339
  107SBC   C06L75158   9.210   4.420   7.403
  107SBC   C06M75159   9.102   4.513   7.426
  107SBC   C06K75160   9.340   4.467   7.380
  107SBC   C05S75161   9.452   4.378   7.358
  107SBC   C05U75162   9.365   4.606   7.369
  107SBC   C05X75163   9.258   4.699   7.391
  107SBC   C05G75164   9.301   4.836   7.359
  107SBC   C05F75165   9.429   4.862   7.327
  107SBC   C05E75166   9.450   4.992   7.310
  107SBC   C04875167   9.579   5.046   7.302
  107SBC   C05675168   9.592   5.180   7.313
  107SBC   C04575169   9.722   5.235   7.307
  107SBC   C04775170   9.682   4.963   7.293
  107SBC   C04975171   9.659   4.825   7.293
  107SBC   C04B75172   9.761   4.736   7.283
  107SBC   C04675173   9.810   5.015   7.290
  107SBC   C04H75174   9.915   4.928   7.288
  107SBC   C05D75175   9.337   5.066   7.326
  107SBC   C04A75176   9.536   4.776   7.321
  107SBC   C05T75177   9.497   4.644   7.346
  107SBC   C05575178   9.604   4.558   7.331
  107SBC   C06D75179   8.971   4.309   7.430
  107SBC   C07W75180   9.149   4.009   7.331
  107SBC   C08575181   8.833   3.643   7.250
  107SBC   H00M75182   8.811   3.544   7.214
  107SBC   C08475183   9.325   3.562   7.223
  107SBC   H00J75184   9.307   3.459   7.198
  107SBC   C07A75185   9.129   3.874   7.303
  107SBC   C08375186   9.452   3.603   7.246
  107SBC   H00K75187   9.530   3.529   7.248
  107SBC   O00K75188   9.704   3.707   7.265
  107SBC   C0GO75189   9.830   3.756   7.252
  107SBC   C0GN75190   9.929   3.670   7.215
  107SBC   H01L75191   9.898   3.567   7.216
  107SBC   C0GM75192  10.068   3.714   7.198
  107SBC   C0GL75193  10.159   3.623   7.163
  107SBC   H01M75194  10.125   3.520   7.158
  107SBC   O00J75195  10.295   3.660   7.160
  107SBC   C0GK75196  10.318   3.799   7.170
  107SBC   H01N75197  10.423   3.819   7.155
  107SBC   C05K75198  10.225   3.887   7.199
  107SBC   C05J75199  10.258   4.026   7.226
  107SBC   C04Y75200  10.387   4.087   7.216
  107SBC   C04X75201  10.409   4.227   7.234
  107SBC   O00675202  10.505   4.011   7.204
  107SBC   C05375203  10.635   4.058   7.200
  107SBC   C04O75204  10.657   4.194   7.226
  107SBC   C03C75205  10.786   4.263   7.233
  107SBC   C03B75206  10.923   4.232   7.201
  107SBC   C05475207  10.972   4.107   7.167
  107SBC   C0GR75208  11.110   4.077   7.135
  107SBC   C03M75209  11.233   4.155   7.129
  107SBC   C03I75210  11.249   4.300   7.154
  107SBC   C03J75211  11.376   4.362   7.123
  107SBC   N00275212  11.395   4.506   7.139
  107SBC   C02U75213  11.516   4.571   7.107
  107SBC   C02T75214  11.531   4.711   7.125
  107SBC   C02Z75215  11.650   4.774   7.093
  107SBC   N00175216  11.667   4.915   7.114
  107SBC   C02R75217  11.793   4.974   7.089
  107SBC   C03275218  11.894   4.898   7.031
  107SBC   C03175219  11.879   4.762   7.006
  107SBC   H00775220  11.957   4.703   6.961
  107SBC   C03375221  12.010   4.974   6.989
  107SBC   H00375222  12.087   4.919   6.937
  107SBC   O00475223  12.032   5.105   7.032
  107SBC   C03475224  11.935   5.165   7.100
  107SBC   C03575225  11.951   5.293   7.151
  107SBC   C03675226  11.862   5.365   7.223
  107SBC   H00575227  11.900   5.451   7.277
  107SBC   C03775228  11.732   5.310   7.230
  107SBC   H00675229  11.657   5.359   7.290
  107SBC   C00D75230  11.702   5.186   7.167
  107SBC   C00C75231  11.579   5.138   7.156
  107SBC   C00B75232  11.455   5.226   7.177
  107SBC   C00A75233  11.414   5.368   7.216
  107SBC   C00975234  11.287   5.347   7.279
  107SBC   C00875235  11.181   5.439   7.301
  107SBC   C00775236  11.197   5.571   7.262
  107SBC   C00675237  11.091   5.664   7.283
  107SBC   C00575238  11.107   5.791   7.225
  107SBC   C00475239  11.223   5.832   7.159
  107SBC   C00375240  11.328   5.738   7.143
  107SBC   C00275241  11.443   5.773   7.064
  107SBC   C01C75242  11.461   5.903   7.021
  107SBC   C01B75243  11.590   5.951   6.970
  107SBC   H00075244  11.677   5.888   6.970
  107SBC   C00175245  11.534   5.674   7.033
  107SBC   C00075246  11.518   5.542   7.073
  107SBC   C01U75247  11.615   5.469   7.011
  107SBC   H00275248  11.638   5.365   6.997
  107SBC   C01T75249  11.699   5.562   6.932
  107SBC   O00275250  11.812   5.540   6.882
  107SBC   O00175251  11.641   5.684   6.947
  107SBC   C01S75252  11.318   5.607   7.196
  107SBC   C00N75253  11.060   5.386   7.343
  107SBC   C00M75254  11.038   5.246   7.339
  107SBC   C00J75255  11.135   5.154   7.309
  107SBC   C00I75256  11.115   5.022   7.290
  107SBC   C00H75257  11.220   4.942   7.252
  107SBC   C00G75258  11.341   5.000   7.221
  107SBC   C00F75259  11.442   4.928   7.168
  107SBC   C01X75260  11.203   4.808   7.243
  107SBC   C01W75261  11.080   4.753   7.257
  107SBC   C01V75262  10.974   4.834   7.297
  107SBC   C02075263  10.846   4.786   7.315
  107SBC   C01Z75264  11.060   4.617   7.251
  107SBC   C02Y75265  10.936   4.572   7.271
  107SBC   C03975266  10.916   4.439   7.259
  107SBC   C02W75267  11.164   4.524   7.215
  107SBC   C01Y75268  11.310   4.725   7.208
  107SBC   C00U75269  10.995   4.971   7.315
  107SBC   C00S75270  10.892   5.055   7.342
  107SBC   C00T75271  10.764   5.005   7.346
  107SBC   C00R75272  10.917   5.192   7.360
  107SBC   C00Q75273  10.815   5.277   7.387
  107SBC   C00V75274  10.681   5.228   7.385
  107SBC   C02475275  10.571   5.310   7.388
  107SBC   C00X75276  10.597   5.438   7.423
  107SBC   C00P75277  10.841   5.411   7.402
  107SBC   C00O75278  10.963   5.471   7.366
  107SBC   C00K75279  11.258   5.212   7.282
  107SBC   N00075280  11.415   5.503   7.162
  107SBC   C00L75281  11.355   5.140   7.224
  107SBC   H00475282  12.052   5.328   7.157
  107SBC   C02Q75283  11.805   5.111   7.111
  107SBC   C00E75284  11.561   4.996   7.152
  107SBC   C03075285  11.758   4.696   7.048
  107SBC   O00375286  11.743   4.560   7.020
  107SBC   C02S75287  11.426   4.792   7.165
  107SBC   C03875288  11.624   4.499   7.051
  107SBC   C03L75289  11.606   4.362   7.033
  107SBC   H00875290  11.687   4.308   6.987
  107SBC   C02V75291  11.289   4.585   7.193
  107SBC   C03K75292  11.488   4.292   7.069
  107SBC   C0BK75293  11.469   4.155   7.060
  107SBC   H00T75294  11.552   4.097   7.023
  107SBC   C03H75295  11.148   4.387   7.199
  107SBC   C0BL75296  11.347   4.082   7.083
  107SBC   C0GU75297  11.341   3.939   7.060
  107SBC   H01O75298  11.433   3.886   7.038
  107SBC   C0GT75299  11.219   3.868   7.062
  107SBC   H01P75300  11.205   3.765   7.033
  107SBC   C0GS75301  11.106   3.940   7.097
  107SBC   C0GV75302  10.973   3.888   7.110
  107SBC   C0GW75303  10.925   3.756   7.104
  107SBC   H01Q75304  10.982   3.666   7.089
  107SBC   C0GX75305  10.796   3.742   7.133
  107SBC   H01R75306  10.772   3.637   7.130
  107SBC   O00L75307  10.700   3.837   7.153
  107SBC   C0GQ75308  10.888   3.995   7.154
  107SBC   C03A75309  11.009   4.345   7.214
  107SBC   C05L75310  10.745   3.969   7.170
  107SBC   C04W75311  10.147   4.110   7.257
  107SBC   C05I75312  10.014   4.068   7.273
  107SBC   C05O75313   9.986   3.934   7.260
  107SBC   C05275314   9.909   4.159   7.284
  107SBC   C04V75315  10.166   4.252   7.263
  107SBC   C04U75316  10.060   4.342   7.278
  107SBC   N00975317  10.094   3.844   7.226
  107SBC   C0GP75318   9.856   3.888   7.267
  107SBC   C05W75319   9.752   3.978   7.298
  107SBC   C07D75320   9.388   3.966   7.320
  107SBC   C06J75321   9.435   4.240   7.360
  107SBC   C05P75322   9.778   4.113   7.305
  107SBC   C05R75323   9.582   4.421   7.340
  107SBC   C04Z75324   9.932   4.294   7.291
  107SBC   C04C75325   9.733   4.603   7.300
  107SBC   C04G75326   9.891   4.793   7.270
  107SBC   C04J75327  10.146   4.889   7.312
  107SBC   C04T75328  10.083   4.474   7.286
  107SBC   N00375329  10.296   4.311   7.254
  107SBC   C04P75330  10.541   4.275   7.242
  107SBC   C03D75331  10.788   4.393   7.275
  107SBC   C02175332  10.826   4.652   7.305
  107SBC   C03F75333  10.464   4.630   7.311
  107SBC   C02275334  10.744   4.872   7.326
  107SBC   C02A75335  10.383   4.853   7.320
  107SBC   C02375336  10.658   5.096   7.362
  107SBC   C02575337  10.443   5.266   7.365
  107SBC   C02D75338  10.338   5.352   7.374
  107SBC   C02E75339  10.359   5.487   7.396
  107SBC   C02N75340  10.258   5.577   7.382
  107SBC   C04N75341  10.276   4.941   7.327
  107SBC   C02P75342  10.210   5.303   7.358
  107SBC   C04I75343  10.042   4.980   7.308
  107SBC   C04475344   9.831   5.154   7.298
  107SBC   C04375345  10.109   5.393   7.354
  107SBC   C05N75346  10.128   5.529   7.365
  107SBC   C09U75347   9.792   5.784   7.349
  107SBC   C09V75348   9.674   5.861   7.336
  107SBC   C09X75349   9.680   5.993   7.326
  107SBC   C09Y75350   9.578   6.083   7.300
  107SBC   C0A175351   9.458   6.034   7.283
  107SBC   C0A275352   9.444   5.894   7.294
  107SBC   C0A475353   9.318   5.842   7.285
  107SBC   C07175354   9.300   5.706   7.298
  107SBC   C0A575355   9.175   5.653   7.313
  107SBC   C0A975356   9.070   5.743   7.317
  107SBC   C0A875357   9.087   5.879   7.301
  107SBC   C0AP75358   8.985   5.963   7.317
  107SBC   C0BY75359   9.008   6.098   7.298
  107SBC   C0BX75360   9.126   6.152   7.253
  107SBC   C0C275361   9.135   6.288   7.232
  107SBC   C0C375362   9.261   6.339   7.203
  107SBC   C0CT75363   9.367   6.260   7.230
  107SBC   C0C175364   9.022   6.365   7.222
  107SBC   C0C075365   8.909   6.320   7.304
  107SBC   C0A775366   9.229   6.063   7.260
  107SBC   C0BZ75367   8.913   6.183   7.341
  107SBC   C0BO75368   8.795   6.140   7.397
  107SBC   C0BN75369   8.764   6.005   7.398
  107SBC   C0BM75370   8.639   5.971   7.438
  107SBC   C0B975371   8.611   5.837   7.450
  107SBC   C0B875372   8.716   5.745   7.423
  107SBC   C0AD75373   8.843   5.786   7.374
  107SBC   C0AF75374   8.694   5.609   7.436
  107SBC   C0AG75375   8.571   5.561   7.483
  107SBC   C0B775376   8.469   5.658   7.510
  107SBC   C0AE75377   8.801   5.526   7.411
  107SBC   C0AB75378   8.925   5.566   7.371
  107SBC   C0AA75379   9.032   5.475   7.364
  107SBC   C0AJ75380   8.774   5.390   7.426
  107SBC   C0AK75381   8.879   5.299   7.406
  107SBC   C06W75382   8.834   5.183   7.450
  107SBC   C0AI75383   8.654   5.335   7.475
  107SBC   C0BP75384   8.709   6.247   7.406
  107SBC   C0BQ75385   8.565   6.205   7.435
  107SBC   C0BW75386   8.867   5.919   7.363
  107SBC   C0AC75387   8.944   5.699   7.351
  107SBC   C0A675388   9.212   5.928   7.282
  107SBC   C0A375389   9.354   6.120   7.257
  107SBC   C09Z75390   9.593   6.225   7.292
  107SBC   C09W75391   9.550   5.809   7.310
  107SBC   C07275392   9.537   5.673   7.313
  107SBC   C09H75393   9.796   6.050   7.361
  107SBC   C09G75394   9.808   6.187   7.356
  107SBC   C09P75395   9.946   6.212   7.370
  107SBC   C02O75396  10.220   5.945   7.363
  107SBC   C02M75397  10.285   5.716   7.380
  107SBC   C02F75398  10.487   5.530   7.422
  107SBC   C00W75399  10.726   5.484   7.428
  107SBC   C01R75400  10.980   5.605   7.350
  107SBC   C01N75401  10.693   5.825   7.404
  107SBC   C01L75402  10.669   6.038   7.295
  107SBC   C01H75403  10.901   6.229   7.106
  107SBC   C01K75404  11.009   5.895   7.239
  107SBC   C01E75405  11.235   5.958   7.103
  107SBC   C01G75406  11.018   6.264   7.026
  107SBC   C01D75407  11.355   5.992   7.037
  107SBC   C01A75408  11.597   6.073   6.921
  107SBC   H00175409  11.690   6.115   6.885
  107SBC   C01F75410  11.264   6.315   6.885
  107SBC   C03P75411  11.286   6.525   6.695
  107SBC   C03T75412  11.062   6.584   6.736
  107SBC   C08I75413  10.826   6.736   6.708
  107SBC   C08J75414  10.704   6.805   6.703
  107SBC   C08L75415  10.466   6.846   6.774
  107SBC   C09375416  10.230   6.881   6.844
  107SBC   C08Z75417  10.277   6.673   7.042
  107SBC   C09T75418   9.802   6.798   7.054
  107SBC   C09S75419  10.054   6.597   7.221
  107SBC   C09Q75420   9.985   6.342   7.336
  107SBC   C09F75421   9.711   6.278   7.318
  107SBC   C09E75422   9.703   6.619   7.180
  107SBC   C0A075423   9.497   6.312   7.239
  107SBC   C0CU75424   9.272   6.475   7.159
  107SBC   C0CR75425   9.153   6.544   7.128
  107SBC   C0CZ75426   9.165   6.673   7.071
  107SBC   C0DA75427   9.666   6.726   7.095
  107SBC   C0D975428   9.463   7.001   7.119
  107SBC   H00V75429   9.537   7.020   7.195
  107SBC   C0CY75430   9.300   6.725   7.044
  107SBC   C0DF75431   9.330   7.051   7.115
  107SBC   C0DE75432   9.232   7.142   7.176
  107SBC   C0GI75433   9.253   7.256   7.256
  107SBC   H01K75434   9.351   7.291   7.285
  107SBC   C0GJ75435   9.147   7.331   7.278
  107SBC   H01J75436   9.171   7.428   7.320
  107SBC   O00I75437   9.013   7.298   7.235
  107SBC   C0GH75438   8.985   7.172   7.183
  107SBC   C0GG75439   8.847   7.131   7.175
  107SBC   O00G75440   8.752   7.222   7.209
  107SBC   C0G875441   8.623   7.187   7.248
  107SBC   C0G975442   8.530   7.288   7.263
  107SBC   H01G75443   8.566   7.387   7.240
  107SBC   C0GA75444   8.399   7.258   7.295
  107SBC   H01H75445   8.342   7.350   7.294
  107SBC   C0GB75446   8.353   7.132   7.329
  107SBC   C0EP75447   8.446   7.026   7.306
  107SBC   C0E875448   8.398   6.896   7.342
  107SBC   C0CK75449   8.456   6.769   7.361
  107SBC   C0CL75450   8.541   6.729   7.262
  107SBC   C0E975451   8.631   6.817   7.187
  107SBC   C0GE75452   8.666   6.956   7.189
  107SBC   C0E775453   8.261   6.868   7.369
  107SBC   C0CJ75454   8.236   6.736   7.402
  107SBC   C0E675455   8.099   6.700   7.416
  107SBC   H00Y75456   8.058   6.599   7.418
  107SBC   C0EO75457   8.004   6.806   7.422
  107SBC   H01175458   7.904   6.770   7.445
  107SBC   C0G675459   8.037   6.943   7.398
  107SBC   C0G575460   7.948   7.056   7.396
  107SBC   H01F75461   7.845   7.029   7.413
  107SBC   C0GD75462   7.997   7.179   7.378
  107SBC   H01I75463   7.917   7.252   7.377
  107SBC   O00H75464   8.130   7.212   7.362
  107SBC   C0EQ75465   8.170   6.975   7.376
  107SBC   C0GC75466   8.217   7.108   7.365
  107SBC   C0G775467   8.577   7.047   7.253
  107SBC   C0DD75468   9.105   7.099   7.139
  107SBC   C0GF75469   8.801   6.998   7.145
  107SBC   C0CO75470   8.700   6.727   7.108
  107SBC   C0D075471   9.039   6.746   7.060
  107SBC   C0C475472   9.023   6.488   7.160
  107SBC   C0CN75473   8.660   6.593   7.121
  107SBC   C0CP75474   8.775   6.359   7.344
  107SBC   C0CM75475   8.554   6.593   7.213
  107SBC   C0CI75476   8.362   6.669   7.415
  107SBC   C0CD75477   8.156   6.310   7.654
  107SBC   C0BR75478   8.473   6.306   7.453
  107SBC   C0CS75479   8.543   6.066   7.452
  107SBC   C0B675480   8.493   5.793   7.491
  107SBC   C0CG75481   8.212   6.080   7.605
  107SBC   C0CF75482   8.132   6.173   7.665
  107SBC   C0E575483   7.959   6.355   7.787
  107SBC   C0DT75484   7.713   6.271   7.879
  107SBC   C0DL75485   7.848   5.949   7.765
  107SBC   C0DM75486   7.811   5.812   7.764
  107SBC   C0DY75487   7.595   5.864   7.858
  107SBC   C0DU75488   7.593   6.224   7.910
  107SBC   C0F075489   7.405   6.265   8.051
  107SBC   C0F475490   7.228   6.181   8.239
  107SBC   C0FG75491   7.264   5.890   8.008
  107SBC   O00B75492   7.131   5.977   8.334
  107SBC   C0FN75493   7.236   5.763   8.056
  107SBC   C0DZ75494   7.473   5.824   7.911
  107SBC   O00C75495   7.517   5.466   7.924
  107SBC   C0FR75496   7.589   5.365   7.862
  107SBC   O00D75497   7.540   5.250   7.860
  107SBC   C0E075498   7.689   5.774   7.823
  107SBC   C0E375499   7.722   5.403   7.804
  107SBC   C0AW75500   7.815   5.308   7.751
  107SBC   C0AV75501   7.799   5.166   7.738
  107SBC   H00Q75502   7.706   5.118   7.764
  107SBC   C0AU75503   7.904   5.080   7.689
  107SBC   H00R75504   7.881   4.974   7.683
  107SBC   C0AT75505   8.028   5.135   7.660
  107SBC   C0AS75506   8.163   5.089   7.635
  107SBC   C0AR75507   8.195   4.953   7.657
  107SBC   C0BE75508   8.038   5.272   7.669
  107SBC   C0DN75509   7.902   5.721   7.726
  107SBC   C0AX75510   7.933   5.359   7.703
  107SBC   C0BB75511   8.122   5.669   7.637
  107SBC   C0BD75512   8.166   5.311   7.635
  107SBC   C0B275513   8.351   5.608   7.563
  107SBC   C0AH75514   8.544   5.421   7.502
  107SBC   C0BF75515   8.254   5.199   7.613
  107SBC   C0AL75516   8.693   5.193   7.486
  107SBC   C07U75517   8.447   4.952   7.592
  107SBC   C0AQ75518   8.322   4.899   7.622
  107SBC   C0BG75519   8.110   4.836   7.685
  107SBC   C0FY75520   8.205   4.508   7.753
  107SBC   C0BJ75521   8.031   4.792   7.803
  107SBC   H00S75522   7.978   4.854   7.873
  107SBC   C0FZ75523   8.137   4.457   7.859
  107SBC   C07S75524   8.339   4.473   7.729
  107SBC   C0G175525   8.332   4.167   7.946
  107SBC   C07K75526   8.677   4.132   7.813
  107SBC   C07H75527   8.604   4.375   7.683
  107SBC   C06B75528   8.852   4.248   7.462
  107SBC   C06N75529   8.982   4.441   7.463
  107SBC   C06675530   8.653   4.617   7.585
  107SBC   C06275531   8.804   4.874   7.519
  107SBC   C05Y75532   9.125   4.651   7.428
  107SBC   C06175533   8.919   4.960   7.507
  107SBC   C05H75534   9.237   4.964   7.348
  107SBC   C06V75535   8.932   5.088   7.460
  107SBC   C06Y75536   9.009   5.342   7.377
  107SBC   C05C75537   9.352   5.212   7.332
  107SBC   C06Z75538   9.158   5.521   7.335
  107SBC   C07075539   9.407   5.620   7.309
  107SBC   C05B75540   9.481   5.263   7.322
  107SBC   C05775541   9.740   5.373   7.316
  107SBC   C05975542   9.649   5.590   7.320
  108SBC   C05875543   0.014   3.205  14.588
  108SBC   C05A75544  -0.012   3.347  14.581
  108SBC   C06Q75545  -0.009   3.415  14.463
  108SBC   C06R75546  -0.041   3.555  14.463
  108SBC   C06S75547  -0.060   3.631  14.577
  108SBC   C06T75548  -0.098   3.767  14.570
  108SBC   C06U75549  -0.137   3.864  14.677
  108SBC   C06X75550  -0.139   3.866  14.814
  108SBC   C06075551  -0.202   3.986  14.868
  108SBC   C05Z75552  -0.175   4.060  14.991
  108SBC   C06875553  -0.174   4.203  14.943
  108SBC   C06775554  -0.142   4.323  15.022
  108SBC   C06975555  -0.146   4.318  15.174
  108SBC   C06A75556  -0.116   4.428  15.276
  108SBC   C07375557  -0.042   4.543  15.272
  108SBC   C07P75558   0.036   4.587  15.388
  108SBC   C07O75559   0.064   4.516  15.507
  108SBC   H00D75560   0.043   4.410  15.511
  108SBC   C07N75561   0.097   4.570  15.633
  108SBC   H00E75562   0.087   4.514  15.724
  108SBC   C07M75563   0.140   4.701  15.629
  108SBC   H00F75564   0.175   4.748  15.720
  108SBC   C07L75565   0.151   4.769  15.509
  108SBC   C07Q75566   0.224   4.896  15.494
  108SBC   H00G75567   0.282   4.922  15.582
  108SBC   O00F75568   0.259   4.951  15.373
  108SBC   C07J75569   0.175   4.910  15.275
  108SBC   C07I75570   0.098   4.790  15.277
  108SBC   N00475571   0.019   4.752  15.167
  108SBC   C07R75572  -0.010   4.859  15.075
  108SBC   C07T75573   0.065   4.977  15.077
  108SBC   C0FX75574   0.052   5.079  14.981
  108SBC   C0FW75575   0.131   5.191  14.963
  108SBC   C0G075576   0.238   5.200  15.061
  108SBC   C0G275577   0.331   5.304  15.055
  108SBC   H01E75578   0.404   5.307  15.134
  108SBC   C0G375579   0.322   5.394  14.943
  108SBC   H01C75580   0.393   5.475  14.933
  108SBC   C0G475581   0.227   5.375  14.838
  108SBC   H01D75582   0.225   5.446  14.757
  108SBC   O00E75583   0.249   5.110  15.167
  108SBC   C0FV75584   0.128   5.273  14.843
  108SBC   C0FU75585   0.037   5.233  14.744
  108SBC   H01B75586   0.033   5.271  14.643
  108SBC   C0FT75587  -0.057   5.126  14.766
  108SBC   C0FS75588  -0.149   5.043  14.688
  108SBC   C0BI75589  -0.215   4.953  14.780
  108SBC   C0BH75590  -0.284   4.855  14.710
  108SBC   C07F75591  -0.238   4.717  14.722
  108SBC   C07E75592  -0.207   4.647  14.840
  108SBC   C07G75593  -0.145   4.697  14.953
  108SBC   C07475594  -0.104   4.594  15.032
  108SBC   C06575595  -0.184   4.508  14.843
  108SBC   C06475596  -0.195   4.442  14.712
  108SBC   C06375597  -0.185   4.309  14.691
  108SBC   C07575598  -0.197   4.292  14.541
  108SBC   C0AM75599  -0.215   4.422  14.473
  108SBC   C0AN75600  -0.221   4.459  14.326
  108SBC   C0AO75601  -0.221   4.369  14.202
  108SBC   C0B175602  -0.239   4.419  14.068
  108SBC   C0B075603  -0.259   4.552  14.043
  108SBC   C0AZ75604  -0.277   4.614  13.921
  108SBC   C0AY75605  -0.294   4.752  13.904
  108SBC   N00775606  -0.306   4.818  13.778
  108SBC   C0E275607  -0.302   4.956  13.768
  108SBC   C0E175608  -0.320   5.015  13.644
  108SBC   C0E475609  -0.312   5.154  13.625
  108SBC   C0FF75610  -0.346   5.222  13.504
  108SBC   C0FJ75611  -0.336   5.362  13.460
  108SBC   C0FK75612  -0.230   5.460  13.492
  108SBC   H01675613  -0.171   5.470  13.582
  108SBC   C0FL75614  -0.212   5.546  13.375
  108SBC   H01775615  -0.141   5.626  13.358
  108SBC   C0FM75616  -0.311   5.509  13.276
  108SBC   C0FH75617  -0.332   5.496  13.130
  108SBC   C0FI75618  -0.416   5.380  13.121
  108SBC   C0F375619  -0.393   5.295  13.012
  108SBC   C0F275620  -0.427   5.169  13.034
  108SBC   C0DW75621  -0.444   5.106  13.158
  108SBC   C0FE75622  -0.435   5.184  13.271
  108SBC   C0DV75623  -0.411   4.970  13.171
  108SBC   C0DX75624  -0.379   4.913  13.293
  108SBC   C0DK75625  -0.353   4.778  13.302
  108SBC   C0DJ75626  -0.344   4.701  13.190
  108SBC   C0DI75627  -0.321   4.563  13.200
  108SBC   C0DH75628  -0.305   4.503  13.328
  108SBC   C0DG75629  -0.315   4.579  13.440
  108SBC   C0BV75630  -0.297   4.519  13.565
  108SBC   C0BC75631  -0.297   4.597  13.679
  108SBC   C0BA75632  -0.267   4.379  13.578
  108SBC   C0B475633  -0.246   4.321  13.704
  108SBC   C0B375634  -0.247   4.400  13.821
  108SBC   C0B575635  -0.228   4.186  13.713
  108SBC   C0BU75636  -0.228   4.105  13.598
  108SBC   C0BT75637  -0.251   4.164  13.474
  108SBC   C0BS75638  -0.259   4.082  13.356
  108SBC   C0CC75639  -0.266   4.147  13.229
  108SBC   C0CB75640  -0.262   4.069  13.112
  108SBC   C0CH75641  -0.233   4.140  12.990
  108SBC   C0DO75642  -0.247   4.279  12.986
  108SBC   C0DP75643  -0.245   4.342  12.861
  108SBC   C0EA75644  -0.235   4.270  12.735
  108SBC   H01275645  -0.217   4.164  12.738
  108SBC   O00975646  -0.242   4.318  12.608
  108SBC   C0EH75647  -0.248   4.452  12.604
  108SBC   C0EG75648  -0.232   4.509  12.481
  108SBC   C0EJ75649  -0.209   4.454  12.352
  108SBC   H01075650  -0.207   4.349  12.330
  108SBC   C0EK75651  -0.188   4.572  12.260
  108SBC   H00Z75652  -0.172   4.574  12.153
  108SBC   C0EL75653  -0.195   4.686  12.343
  108SBC   C0EM75654  -0.173   4.821  12.311
  108SBC   C0EW75655  -0.146   4.880  12.184
  108SBC   H01375656  -0.121   4.814  12.102
  108SBC   C0EX75657  -0.135   5.029  12.173
  108SBC   H01475658  -0.125   5.077  12.078
  108SBC   C0F175659  -0.156   5.110  12.298
  108SBC   C0EU75660  -0.184   5.048  12.415
  108SBC   C0ET75661  -0.216   5.109  12.540
  108SBC   C0ES75662  -0.239   4.997  12.630
  108SBC   C0EE75663  -0.227   4.872  12.560
  108SBC   C0ED75664  -0.247   4.735  12.578
  108SBC   C0EC75665  -0.284   4.676  12.705
  108SBC   C0EB75666  -0.319   4.750  12.818
  108SBC   C0EN75667  -0.353   4.894  12.820
  108SBC   C0ER75668  -0.390   4.952  12.939
  108SBC   C0DS75669  -0.328   4.689  12.947
  108SBC   C0DR75670  -0.303   4.552  12.959
  108SBC   C0EY75671  -0.328   5.005  12.736
  108SBC   C0EZ75672  -0.349   5.132  12.805
  108SBC   C0F575673  -0.303   5.261  12.788
  108SBC   C0F675674  -0.243   5.315  12.666
  108SBC   N00875675  -0.213   5.455  12.671
  108SBC   C0F775676  -0.223   5.533  12.795
  108SBC   C0FQ75677  -0.185   5.668  12.793
  108SBC   H01875678  -0.183   5.718  12.888
  108SBC   C0FP75679  -0.149   5.732  12.680
  108SBC   H01975680  -0.129   5.837  12.692
  108SBC   C0FO75681  -0.150   5.662  12.563
  108SBC   H01A75682  -0.120   5.729  12.483
  108SBC   C0F875683  -0.267   5.472  12.911
  108SBC   C0F975684  -0.170   5.524  12.557
  108SBC   C0FA75685  -0.151   5.454  12.430
  108SBC   H01575686  -0.128   5.506  12.338
  108SBC   C0FB75687  -0.174   5.315  12.428
  108SBC   C0FD75688  -0.215   5.255  12.545
  108SBC   C0FC75689  -0.157   5.248  12.302
  108SBC   O00A75690  -0.131   5.311  12.197
  108SBC   C0EV75691  -0.195   4.908  12.425
  108SBC   C0EF75692  -0.233   4.644  12.471
  108SBC   C0EI75693  -0.276   4.535  12.716
  108SBC   C0DQ75694  -0.275   4.478  12.843
  108SBC   C0CE75695  -0.280   4.353  13.095
  108SBC   H00U75696  -0.206   4.078  12.906
  108SBC   C0CA75697  -0.297   3.934  13.119
  108SBC   C0C975698  -0.280   3.861  13.245
  108SBC   C0C875699  -0.313   3.720  13.261
  108SBC   C0C775700  -0.262   3.613  13.348
  108SBC   C0C675701  -0.305   3.483  13.318
  108SBC   C0C575702  -0.258   3.346  13.335
  108SBC   C0CQ75703  -0.304   3.254  13.238
  108SBC   C0D175704  -0.366   3.300  13.122
  108SBC   C0D875705  -0.322   3.224  13.017
  108SBC   C0D775706  -0.275   3.103  13.075
  108SBC   C0D675707  -0.213   2.996  13.011
  108SBC   C0D575708  -0.168   2.872  13.071
  108SBC   C0D475709  -0.145   2.838  13.209
  108SBC   C0D375710  -0.032   2.752  13.213
  108SBC   C0CX75711   0.034   2.765  13.342
  108SBC   C0CW75712  -0.002   2.896  13.399
  108SBC   C0CV75713   0.026   2.974  13.516
  108SBC   C0D275714   0.085   2.913  13.634
  108SBC   C09D75715   0.141   2.781  13.643
  108SBC   C09C75716   0.187   2.732  13.768
  108SBC   C09B75717   0.219   2.594  13.800
  108SBC   C09A75718   0.232   2.507  13.688
  108SBC   C09975719   0.227   2.559  13.565
  108SBC   C09875720   0.198   2.452  13.482
  108SBC   C08Y75721   0.177   2.331  13.565
  108SBC   C08X75722   0.104   2.212  13.530
  108SBC   C08W75723   0.045   2.191  13.394
  108SBC   C08U75724   0.043   2.276  13.279
  108SBC   C08V75725   0.076   2.420  13.264
  108SBC   C0DC75726   0.112   2.439  13.129
  108SBC   H00W75727   0.156   2.534  13.108
  108SBC   C0DB75728   0.079   2.321  13.056
  108SBC   H00X75729   0.091   2.312  12.949
  108SBC   C08T75730   0.038   2.223  13.150
  108SBC   C08S75731  -0.004   2.098  13.123
  108SBC   H00N75732  -0.001   2.069  13.019
  108SBC   C08R75733  -0.022   2.010  13.230
  108SBC   C08Q75734  -0.063   1.876  13.211
  108SBC   H00O75735  -0.084   1.853  13.107
  108SBC   C08P75736  -0.095   1.781  13.312
  108SBC   C08O75737  -0.146   1.648  13.291
  108SBC   H00P75738  -0.165   1.613  13.191
  108SBC   C08N75739  -0.187   1.571  13.398
  108SBC   C08M75740  -0.265   1.453  13.371
  108SBC   O00875741  -0.300   1.418  13.256
  108SBC   O00775742  -0.306   1.382  13.484
  108SBC   C08H75743  -0.284   1.422  13.613
  108SBC   C08G75744  -0.332   1.347  13.733
  108SBC   C03V75745  -0.417   1.236  13.735
  108SBC   H00975746  -0.447   1.195  13.640
  108SBC   C03U75747  -0.462   1.180  13.856
  108SBC   C03W75748  -0.557   1.074  13.869
  108SBC   H00A75749  -0.591   1.036  13.774
  108SBC   C03X75750  -0.594   1.026  13.988
  108SBC   H00B75751  -0.676   0.956  13.986
  108SBC   O00575752  -0.527   1.063  14.106
  108SBC   C03O75753  -0.456   1.180  14.096
  108SBC   C03N75754  -0.418   1.237  14.215
  108SBC   O00075755  -0.459   1.172  14.323
  108SBC   C01975756  -0.467   1.241  14.437
  108SBC   C01875757  -0.395   1.366  14.458
  108SBC   C01775758  -0.332   1.423  14.343
  108SBC   C01675759  -0.258   1.542  14.351
  108SBC   C01575760  -0.253   1.598  14.480
  108SBC   C01475761  -0.177   1.712  14.507
  108SBC   C01375762  -0.118   1.777  14.396
  108SBC   C01275763  -0.059   1.896  14.463
  108SBC   C01175764  -0.086   1.882  14.602
  108SBC   C01075765  -0.031   1.969  14.693
  108SBC   C00Z75766  -0.076   1.976  14.826
  108SBC   C00Y75767  -0.022   2.098  14.859
  108SBC   C01O75768   0.049   2.170  14.756
  108SBC   C01P75769   0.045   2.306  14.745
  108SBC   C02L75770   0.061   2.358  14.621
  108SBC   C02K75771   0.065   2.266  14.512
  108SBC   C01M75772   0.039   2.122  14.518
  108SBC   C02J75773   0.106   2.329  14.388
  108SBC   C02I75774   0.131   2.267  14.264
  108SBC   C02H75775   0.106   2.136  14.224
  108SBC   C01Q75776   0.040   2.026  14.284
  108SBC   C02G75777   0.025   1.923  14.187
  108SBC   C08975778   0.095   1.966  14.071
  108SBC   C08875779   0.034   1.904  13.955
  108SBC   C08775780  -0.039   1.795  14.009
  108SBC   C08675781  -0.100   1.688  13.930
  108SBC   C03S75782  -0.185   1.586  13.976
  108SBC   N00675783  -0.223   1.510  13.869
  108SBC   C08F75784  -0.182   1.573  13.759
  108SBC   C01J75785  -0.230   1.539  14.107
  108SBC   C03R75786  -0.306   1.418  14.100
  108SBC   C03Q75787  -0.333   1.348  13.981
  108SBC   C08E75788  -0.104   1.687  13.784
  108SBC   C08D75789  -0.062   1.781  13.688
  108SBC   C08K75790  -0.086   1.736  13.551
  108SBC   C08C75791  -0.004   1.906  13.702
  108SBC   C09175792   0.018   1.987  13.593
  108SBC   C09275793  -0.019   1.957  13.459
  108SBC   C08B75794   0.048   1.965  13.818
  108SBC   C09075795   0.102   2.097  13.773
  108SBC   C09475796   0.183   2.189  13.856
  108SBC   C09575797   0.220   2.316  13.823
  108SBC   C09R75798   0.239   2.398  13.932
  108SBC   C09775799   0.204   2.326  14.044
  108SBC   C09675800   0.176   2.196  13.996
  108SBC   C01I75801  -0.056   1.808  14.158
  108SBC   C08A75802   0.131   2.101  14.088
  108SBC   C09L75803   0.183   2.367  14.177
  108SBC   C09K75804   0.198   2.490  14.248
  108SBC   C09J75805   0.213   2.614  14.187
  108SBC   C09I75806   0.162   2.733  14.236
  108SBC   C09O75807   0.118   2.785  14.363
  108SBC   C09N75808   0.094   2.710  14.479
  108SBC   C09M75809   0.100   2.568  14.489
  108SBC   C06O75810   0.065   2.782  14.595
  108SBC   C05M75811   0.048   2.924  14.593
  108SBC   C06P75812   0.068   2.999  14.474
  108SBC   C04275813   0.009   2.992  14.703
  108SBC   C04175814  -0.028   2.927  14.823
  108SBC   C04075815  -0.074   3.000  14.936
  108SBC   C03Z75816  -0.121   2.931  15.048
  108SBC   C03Y75817  -0.112   2.793  15.047
  108SBC   C02775818  -0.164   2.731  15.160
  108SBC   C02675819  -0.160   2.593  15.165
  108SBC   C02875820  -0.221   2.527  15.271
  108SBC   C02975821  -0.279   2.597  15.374
  108SBC   C02B75822  -0.357   2.534  15.466
  108SBC   C02C75823  -0.418   2.606  15.563
  108SBC   C02X75824  -0.504   2.538  15.650
  108SBC   C03E75825  -0.573   2.615  15.741
  108SBC   C03G75826  -0.549   2.749  15.763
  108SBC   C04Q75827  -0.460   2.813  15.684
  108SBC   C04R75828  -0.445   2.948  15.690
  108SBC   C04S75829  -0.368   3.016  15.595
  108SBC   C04L75830  -0.319   2.947  15.487
  108SBC   C04M75831  -0.331   2.808  15.480
  108SBC   C04K75832  -0.260   3.010  15.380
  108SBC   C04F75833  -0.252   3.149  15.385
  108SBC   C04E75834  -0.306   3.223  15.490
  108SBC   C04D75835  -0.307   3.359  15.486
  108SBC   C05075836  -0.360   3.431  15.586
  108SBC   C05175837  -0.353   3.570  15.588
  108SBC   C05Q75838  -0.395   3.639  15.696
  108SBC   C05V75839  -0.373   3.777  15.696
  108SBC   N00575840  -0.403   3.848  15.818
  108SBC   C07V75841  -0.465   3.780  15.925
  108SBC   C08275842  -0.510   3.855  16.036
  108SBC   C08175843  -0.496   3.991  16.045
  108SBC   C07C75844  -0.428   4.060  15.944
  108SBC   C07B75845  -0.399   4.197  15.959
  108SBC   C08075846  -0.436   4.267  16.076
  108SBC   C07Z75847  -0.403   4.402  16.080
  108SBC   H00L75848  -0.430   4.454  16.170
  108SBC   C07975849  -0.345   4.477  15.978
  108SBC   C07875850  -0.318   4.403  15.858
  108SBC   C07775851  -0.263   4.468  15.749
  108SBC   C07X75852  -0.231   4.609  15.759
  108SBC   H00I75853  -0.189   4.667  15.679
  108SBC   C07Y75854  -0.248   4.678  15.877
  108SBC   H00H75855  -0.224   4.783  15.888
  108SBC   C07675856  -0.255   4.402  15.629
  108SBC   C06C75857  -0.225   4.471  15.510
  108SBC   H00C75858  -0.213   4.578  15.504
  108SBC   C06F75859  -0.273   4.265  15.617
  108SBC   C06E75860  -0.238   4.191  15.504
  108SBC   C06G75861  -0.253   4.053  15.485
  108SBC   C06H75862  -0.300   3.987  15.598
  108SBC   C06I75863  -0.334   4.054  15.716
  108SBC   C06L75864  -0.226   3.991  15.360
  108SBC   C06M75865  -0.190   4.064  15.237
  108SBC   C06K75866  -0.239   3.850  15.356
  108SBC   C05S75867  -0.287   3.778  15.471
  108SBC   C05U75868  -0.203   3.773  15.247
  108SBC   C05X75869  -0.172   3.842  15.121
  108SBC   C05G75870  -0.123   3.748  15.020
  108SBC   C05F75871  -0.117   3.607  15.042
  108SBC   C05E75872  -0.082   3.537  14.932
  108SBC   C04875873  -0.073   3.399  14.935
  108SBC   C05675874  -0.044   3.338  14.814
  108SBC   C04575875  -0.032   3.203  14.822
  108SBC   C04775876  -0.108   3.342  15.054
  108SBC   C04975877  -0.151   3.416  15.163
  108SBC   C04B75878  -0.204   3.352  15.270
  108SBC   C04675879  -0.111   3.203  15.054
  108SBC   C04H75880  -0.158   3.139  15.163
  108SBC   C05D75881  -0.068   3.623  14.830
  108SBC   C04A75882  -0.153   3.552  15.159
  108SBC   C05T75883  -0.201   3.632  15.258
  108SBC   C05575884  -0.250   3.567  15.371
  108SBC   C06D75885  -0.200   4.260  15.386
  108SBC   C07W75886  -0.319   4.192  15.729
  108SBC   C08575887  -0.309   4.611  15.984
  108SBC   H00M75888  -0.323   4.671  16.072
  108SBC   C08475889  -0.509   4.196  16.175
  108SBC   H00J75890  -0.548   4.247  16.262
  108SBC   C07A75891  -0.342   4.266  15.849
  108SBC   C08375892  -0.535   4.063  16.164
  108SBC   H00K75893  -0.571   4.015  16.253
  108SBC   O00K75894  -0.579   3.793  16.138
  108SBC   C0GO75895  -0.608   3.658  16.119
  108SBC   C0GN75896  -0.678   3.596  16.222
  108SBC   H01L75897  -0.723   3.655  16.300
  108SBC   C0GM75898  -0.703   3.453  16.227
  108SBC   C0GL75899  -0.780   3.397  16.325
  108SBC   H01M75900  -0.809   3.449  16.415
  108SBC   O00J75901  -0.806   3.262  16.319
  108SBC   C0GK75902  -0.757   3.189  16.213
  108SBC   H01N75903  -0.781   3.085  16.226
  108SBC   C05K75904  -0.687   3.246  16.108
  108SBC   C05J75905  -0.639   3.161  16.002
  108SBC   C04Y75906  -0.667   3.021  15.980
  108SBC   C04X75907  -0.606   2.946  15.881
  108SBC   O00675908  -0.756   2.952  16.066
  108SBC   C05375909  -0.788   2.818  16.048
  108SBC   C04O75910  -0.724   2.741  15.948
  108SBC   C03C75911  -0.752   2.607  15.916
  108SBC   C03B75912  -0.835   2.503  15.963
  108SBC   C05475913  -0.923   2.508  16.065
  108SBC   C0GR75914  -0.986   2.392  16.119
  108SBC   C03M75915  -1.002   2.253  16.071
  108SBC   C03I75916  -0.945   2.192  15.954
  108SBC   C03J75917  -0.987   2.060  15.923
  108SBC   N00275918  -0.927   1.983  15.816
  108SBC   C02U75919  -0.968   1.852  15.776
  108SBC   C02T75920  -0.900   1.783  15.672
  108SBC   C02Z75921  -0.946   1.656  15.637
  108SBC   N00175922  -0.882   1.587  15.530
  108SBC   C02R75923  -0.916   1.453  15.505
  108SBC   C03275924  -1.018   1.394  15.579
  108SBC   C03175925  -1.094   1.468  15.670
  108SBC   H00775926  -1.184   1.430  15.717
  108SBC   C03375927  -1.035   1.256  15.560
  108SBC   H00375928  -1.106   1.207  15.626
  108SBC   O00475929  -0.958   1.170  15.480
  108SBC   C03475930  -0.860   1.237  15.415
  108SBC   C03575931  -0.771   1.153  15.346
  108SBC   C03675932  -0.657   1.205  15.283
  108SBC   H00575933  -0.596   1.131  15.233
  108SBC   C03775934  -0.630   1.340  15.289
  108SBC   H00675935  -0.549   1.380  15.231
  108SBC   C00D75936  -0.720   1.432  15.358
  108SBC   C00C75937  -0.705   1.570  15.359
  108SBC   C00B75938  -0.596   1.640  15.285
  108SBC   C00A75939  -0.488   1.615  15.182
  108SBC   C00975940  -0.396   1.720  15.196
  108SBC   C00875941  -0.319   1.785  15.095
  108SBC   C00775942  -0.312   1.728  14.976
  108SBC   C00675943  -0.226   1.780  14.880
  108SBC   C00575944  -0.236   1.721  14.750
  108SBC   C00475945  -0.313   1.607  14.722
  108SBC   C00375946  -0.399   1.562  14.819
  108SBC   C00275947  -0.483   1.453  14.794
  108SBC   C01C75948  -0.466   1.373  14.683
  108SBC   C01B75949  -0.526   1.248  14.669
  108SBC   H00075950  -0.559   1.191  14.754
  108SBC   C00175951  -0.594   1.433  14.878
  108SBC   C00075952  -0.605   1.518  14.988
  108SBC   C01U75953  -0.728   1.479  15.043
  108SBC   H00275954  -0.785   1.512  15.128
  108SBC   C01T75955  -0.770   1.356  14.971
  108SBC   O00275956  -0.852   1.280  15.011
  108SBC   O00175957  -0.688   1.338  14.869
  108SBC   C01S75958  -0.404   1.629  14.942
  108SBC   C00N75959  -0.261   1.909  15.130
  108SBC   C00M75960  -0.300   1.981  15.242
  108SBC   C00J75961  -0.398   1.933  15.323
  108SBC   C00I75962  -0.469   2.007  15.419
  108SBC   C00H75963  -0.575   1.950  15.484
  108SBC   C00G75964  -0.631   1.833  15.446
  108SBC   C00F75965  -0.745   1.779  15.497
  108SBC   C01X75966  -0.646   2.023  15.579
  108SBC   C01W75967  -0.606   2.151  15.600
  108SBC   C01V75968  -0.505   2.204  15.528
  108SBC   C02075969  -0.470   2.337  15.540
  108SBC   C01Z75970  -0.673   2.220  15.699
  108SBC   C02Y75971  -0.633   2.350  15.712
  108SBC   C03975972  -0.692   2.420  15.814
  108SBC   C02W75973  -0.784   2.172  15.769
  108SBC   C01Y75974  -0.759   1.972  15.643
  108SBC   C00U75975  -0.434   2.136  15.429
  108SBC   C00S75976  -0.334   2.191  15.353
  108SBC   C00T75977  -0.316   2.329  15.361
  108SBC   C00R75978  -0.266   2.118  15.257
  108SBC   C00Q75979  -0.199   2.182  15.158
  108SBC   C00V75980  -0.185   2.321  15.161
  108SBC   C02475981  -0.121   2.386  15.058
  108SBC   C00X75982  -0.062   2.310  14.960
  108SBC   C00P75983  -0.160   2.107  15.051
  108SBC   C00O75984  -0.191   1.974  15.032
  108SBC   C00K75985  -0.442   1.805  15.296
  108SBC   N00075986  -0.503   1.590  15.043
  108SBC   C00L75987  -0.559   1.761  15.351
  108SBC   H00475988  -0.796   1.048  15.341
  108SBC   C02Q75989  -0.830   1.380  15.423
  108SBC   C00E75990  -0.772   1.649  15.457
  108SBC   C03075991  -1.062   1.599  15.707
  108SBC   O00375992  -1.129   1.671  15.803
  108SBC   C02S75993  -0.803   1.845  15.602
  108SBC   C03875994  -1.082   1.797  15.840
  108SBC   C03L75995  -1.137   1.871  15.946
  108SBC   H00875996  -1.214   1.821  16.002
  108SBC   C02V75997  -0.822   2.039  15.744
  108SBC   C03K75998  -1.087   1.999  15.991
  108SBC   C0BK75999  -1.138   2.061  16.108
  108SBC   H00T76000  -1.217   2.012  16.161
  108SBC   C03H76001  -0.851   2.248  15.869
  108SBC   C0BL76002  -1.096   2.185  16.156
  108SBC   C0GU76003  -1.143   2.229  16.282
  108SBC   H01O76004  -1.209   2.179  16.352
  108SBC   C0GT76005  -1.120   2.357  16.323
  108SBC   H01P76006  -1.168   2.390  16.413
  108SBC   C0GS76007  -1.034   2.436  16.248
  108SBC   C0GV76008  -0.996   2.575  16.270
  108SBC   C0GW76009  -0.999   2.660  16.392
  108SBC   H01Q76010  -1.041   2.630  16.487
  108SBC   C0GX76011  -0.963   2.788  16.369
  108SBC   H01R76012  -0.965   2.858  16.451
  108SBC   O00L76013  -0.910   2.838  16.249
  108SBC   C0GQ76014  -0.926   2.620  16.155
  108SBC   C03A76015  -0.808   2.387  15.882
  108SBC   C05L76016  -0.876   2.751  16.148
  108SBC   C04W76017  -0.566   3.226  15.901
  108SBC   C05I76018  -0.544   3.367  15.900
  108SBC   C05O76019  -0.593   3.441  16.007
  108SBC   C05276020  -0.475   3.433  15.799
  108SBC   C04V76021  -0.503   3.157  15.798
  108SBC   C04U76022  -0.429   3.225  15.698
  108SBC   N00976023  -0.662   3.379  16.112
  108SBC   C0GP76024  -0.565   3.579  16.012
  108SBC   C05W76025  -0.493   3.646  15.914
  108SBC   C07D76026  -0.389   3.989  15.827
  108SBC   C06J76027  -0.321   3.849  15.587
  108SBC   C05P76028  -0.453   3.571  15.805
  108SBC   C05R76029  -0.300   3.639  15.477
  108SBC   C04Z76030  -0.421   3.360  15.693
  108SBC   C04C76031  -0.255   3.426  15.375
  108SBC   C04G76032  -0.205   3.214  15.272
  108SBC   C04J76033  -0.220   2.939  15.268
  108SBC   C04T76034  -0.363   3.155  15.597
  108SBC   N00376035  -0.514   3.016  15.794
  108SBC   C04P76036  -0.627   2.812  15.865
  108SBC   C03D76037  -0.675   2.557  15.814
  108SBC   C02176038  -0.535   2.407  15.638
  108SBC   C03F76039  -0.397   2.739  15.578
  108SBC   C02276040  -0.385   2.398  15.454
  108SBC   C02A76041  -0.273   2.734  15.376
  108SBC   C02376042  -0.237   2.391  15.266
  108SBC   C02576043  -0.111   2.523  15.053
  108SBC   C02D76044  -0.062   2.586  14.942
  108SBC   C02E76045  -0.016   2.514  14.836
  108SBC   C02N76046   0.028   2.577  14.718
  108SBC   C04N76047  -0.223   2.801  15.263
  108SBC   C02P76048  -0.063   2.725  14.937
  108SBC   C04I76049  -0.163   3.003  15.164
  108SBC   C04476050  -0.070   3.137  14.936
  108SBC   C04376051  -0.019   2.788  14.821
  108SBC   C05N76052   0.028   2.716  14.710
  108SBC   C09U76053   0.093   2.928  14.357
  108SBC   C09V76054   0.093   3.005  14.238
  108SBC   C09X76055   0.120   2.951  14.115
  108SBC   C09Y76056   0.099   3.012  13.991
  108SBC   C0A176057   0.061   3.142  13.992
  108SBC   C0A276058   0.053   3.210  14.113
  108SBC   C0A476059   0.024   3.343  14.106
  108SBC   C07176060   0.017   3.414  14.224
  108SBC   C0A576061  -0.022   3.547  14.221
  108SBC   C0A976062  -0.030   3.612  14.096
  108SBC   C0A876063  -0.015   3.544  13.980
  108SBC   C0AP76064  -0.046   3.599  13.863
  108SBC   C0BY76065  -0.046   3.526  13.750
  108SBC   C0BX76066  -0.021   3.397  13.744
  108SBC   C0C276067  -0.041   3.316  13.628
  108SBC   C0C376068  -0.008   3.182  13.630
  108SBC   C0CT76069   0.040   3.126  13.746
  108SBC   C0C176070  -0.097   3.377  13.516
  108SBC   C0C076071  -0.100   3.528  13.512
  108SBC   C0A776072   0.012   3.337  13.864
  108SBC   C0BZ76073  -0.074   3.588  13.633
  108SBC   C0BO76074  -0.106   3.723  13.625
  108SBC   C0BN76075  -0.117   3.799  13.740
  108SBC   C0BM76076  -0.161   3.920  13.725
  108SBC   C0B976077  -0.165   4.002  13.841
  108SBC   C0B876078  -0.121   3.949  13.961
  108SBC   C0AD76079  -0.088   3.811  13.969
  108SBC   C0AF76080  -0.131   4.022  14.077
  108SBC   C0AG76081  -0.176   4.154  14.078
  108SBC   C0B776082  -0.198   4.210  13.952
  108SBC   C0AE76083  -0.117   3.950  14.191
  108SBC   C0AB76084  -0.088   3.816  14.202
  108SBC   C0AA76085  -0.079   3.752  14.329
  108SBC   C0AJ76086  -0.138   4.020  14.309
  108SBC   C0AK76087  -0.133   3.959  14.434
  108SBC   C06W76088  -0.169   4.049  14.527
  108SBC   C0AI76089  -0.180   4.154  14.322
  108SBC   C0BP76090  -0.152   3.754  13.504
  108SBC   C0BQ76091  -0.208   3.889  13.487
  108SBC   C0BW76092  -0.083   3.736  13.857
  108SBC   C0AC76093  -0.058   3.746  14.087
  108SBC   C0A676094   0.009   3.408  13.981
  108SBC   C0A376095   0.038   3.201  13.867
  108SBC   C09Z76096   0.116   2.939  13.871
  108SBC   C09W76097   0.070   3.142  14.237
  108SBC   C07276098   0.053   3.211  14.355
  108SBC   C09H76099   0.152   2.816  14.118
  108SBC   C09G76100   0.183   2.755  14.005
  108SBC   C09P76101   0.215   2.630  14.038
  108SBC   C02O76102   0.141   2.470  14.378
  108SBC   C02M76103   0.064   2.501  14.606
  108SBC   C02F76104  -0.007   2.373  14.850
  108SBC   C00W76105  -0.077   2.174  14.964
  108SBC   C01R76106  -0.164   1.902  14.913
  108SBC   C01N76107   0.022   2.087  14.650
  108SBC   C01L76108   0.005   2.022  14.419
  108SBC   C01H76109  -0.124   1.729  14.258
  108SBC   C01K76110  -0.172   1.774  14.632
  108SBC   C01E76111  -0.315   1.546  14.591
  108SBC   C01G76112  -0.204   1.602  14.235
  108SBC   C01D76113  -0.383   1.424  14.581
  108SBC   C01A76114  -0.533   1.183  14.543
  108SBC   H00176115  -0.578   1.085  14.532
  108SBC   C01F76116  -0.349   1.360  14.220
  108SBC   C03P76117  -0.414   1.233  13.977
  108SBC   C03T76118  -0.293   1.394  13.859
  108SBC   C08I76119  -0.206   1.537  13.634
  108SBC   C08J76120  -0.164   1.612  13.527
  108SBC   C08L76121  -0.067   1.825  13.438
  108SBC   C09376122   0.001   2.055  13.361
  108SBC   C08Z76123   0.079   2.109  13.630
  108SBC   C09T76124   0.126   2.509  13.368
  108SBC   C09S76125   0.223   2.372  13.694
  108SBC   C09Q76126   0.230   2.538  13.930
  108SBC   C09F76127   0.166   2.813  13.876
  108SBC   C09E76128   0.163   2.679  13.537
  108SBC   C0A076129   0.081   2.990  13.753
  108SBC   C0CU76130  -0.033   3.105  13.516
  108SBC   C0CR76131  -0.116   3.156  13.418
  108SBC   C0CZ76132  -0.154   3.076  13.310
  108SBC   C0DA76133   0.110   2.658  13.405
  108SBC   C0D976134   0.029   2.754  13.076
  108SBC   H00V76135   0.132   2.726  13.058
  108SBC   C0CY76136  -0.106   2.941  13.305
  108SBC   C0DF76137  -0.060   2.821  12.990
  108SBC   C0DE76138  -0.075   2.891  12.862
  108SBC   C0GI76139  -0.041   2.847  12.729
  108SBC   H01K76140   0.014   2.755  12.716
  108SBC   C0GJ76141  -0.067   2.933  12.630
  108SBC   H01J76142  -0.047   2.903  12.528
  108SBC   O00I76143  -0.136   3.054  12.640
  108SBC   C0GH76144  -0.197   3.085  12.766
  108SBC   C0GG76145  -0.263   3.213  12.763
  108SBC   O00G76146  -0.254   3.281  12.644
  108SBC   C0G876147  -0.319   3.401  12.637
  108SBC   C0G976148  -0.345   3.433  12.506
  108SBC   H01G76149  -0.319   3.371  12.421
  108SBC   C0GA76150  -0.411   3.559  12.486
  108SBC   H01H76151  -0.422   3.579  12.380
  108SBC   C0GB76152  -0.434   3.652  12.588
  108SBC   C0EP76153  -0.386   3.617  12.721
  108SBC   C0E876154  -0.373   3.725  12.816
  108SBC   C0CK76155  -0.330   3.736  12.948
  108SBC   C0CL76156  -0.371   3.629  13.032
  108SBC   C0E976157  -0.379   3.491  12.995
  108SBC   C0GE76158  -0.349   3.417  12.871
  108SBC   C0E776159  -0.426   3.852  12.791
  108SBC   C0CJ76160  -0.424   3.945  12.897
  108SBC   C0E676161  -0.485   4.067  12.888
  108SBC   H00Y76162  -0.485   4.145  12.962
  108SBC   C0EO76163  -0.546   4.095  12.764
  108SBC   H01176164  -0.597   4.190  12.754
  108SBC   C0G676165  -0.549   4.006  12.652
  108SBC   C0G576166  -0.614   4.032  12.526
  108SBC   H01F76167  -0.661   4.124  12.495
  108SBC   C0GD76168  -0.607   3.933  12.428
  108SBC   H01I76169  -0.655   3.948  12.332
  108SBC   O00H76170  -0.546   3.811  12.443
  108SBC   C0EQ76171  -0.494   3.874  12.670
  108SBC   C0GC76172  -0.492   3.783  12.566
  108SBC   C0G776173  -0.346   3.483  12.751
  108SBC   C0DD76174  -0.166   3.001  12.878
  108SBC   C0GF76175  -0.313   3.277  12.882
  108SBC   C0CO76176  -0.403   3.424  13.112
  108SBC   C0D076177  -0.241   3.134  13.212
  108SBC   C0C476178  -0.156   3.294  13.420
  108SBC   C0CN76179  -0.411   3.508  13.227
  108SBC   C0CP76180  -0.146   3.636  13.426
  108SBC   C0CM76181  -0.401   3.641  13.176
  108SBC   C0CI76182  -0.347   3.873  13.000
  108SBC   C0CD76183  -0.279   4.285  13.221
  108SBC   C0BR76184  -0.252   3.940  13.361
  108SBC   C0CS76185  -0.205   3.969  13.606
  108SBC   C0B676186  -0.203   4.131  13.834
  108SBC   C0CG76187  -0.258   4.304  13.462
  108SBC   C0CF76188  -0.285   4.365  13.339
  108SBC   C0E576189  -0.303   4.490  13.084
  108SBC   C0DT76190  -0.363   4.754  13.061
  108SBC   C0DL76191  -0.335   4.719  13.427
  108SBC   C0DM76192  -0.336   4.799  13.541
  108SBC   C0DY76193  -0.377   4.995  13.408
  108SBC   C0DU76194  -0.396   4.890  13.060
  108SBC   C0F076195  -0.390   5.087  12.928
  108SBC   C0F476196  -0.320   5.342  12.902
  108SBC   C0FG76197  -0.439   5.324  13.248
  108SBC   O00B76198  -0.260   5.547  13.025
  108SBC   C0FN76199  -0.394   5.411  13.342
  108SBC   C0DZ76200  -0.391   5.137  13.396
  108SBC   O00C76201  -0.292   5.235  13.738
  108SBC   C0FR76202  -0.294   5.178  13.869
  108SBC   O00D76203  -0.284   5.265  13.957
  108SBC   C0E076204  -0.348   4.936  13.532
  108SBC   C0E376205  -0.303   5.033  13.887
  108SBC   C0AW76206  -0.313   4.977  14.010
  108SBC   C0AV76207  -0.319   5.042  14.135
  108SBC   H00Q76208  -0.328   5.149  14.143
  108SBC   C0AU76209  -0.315   4.973  14.256
  108SBC   H00R76210  -0.323   5.038  14.341
  108SBC   C0AT76211  -0.296   4.835  14.255
  108SBC   C0AS76212  -0.271   4.731  14.356
  108SBC   C0AR76213  -0.265   4.757  14.496
  108SBC   C0BE76214  -0.296   4.771  14.136
  108SBC   C0DN76215  -0.314   4.733  13.663
  108SBC   C0AX76216  -0.302   4.840  14.011
  108SBC   C0BB76217  -0.269   4.538  13.807
  108SBC   C0BD76218  -0.266   4.632  14.156
  108SBC   C0B276219  -0.230   4.343  13.950
  108SBC   C0AH76220  -0.196   4.231  14.199
  108SBC   C0BF76221  -0.252   4.595  14.291
  108SBC   C0AL76222  -0.192   4.173  14.463
  108SBC   C07U76223  -0.223   4.510  14.587
  108SBC   C0AQ76224  -0.247   4.651  14.594
  108SBC   C0BG76225  -0.275   4.883  14.570
  108SBC   C0FY76226  -0.133   4.942  14.893
  108SBC   C0BJ76227  -0.180   4.998  14.553
  108SBC   H00S76228  -0.118   5.034  14.472
  108SBC   C0FZ76229  -0.052   5.056  14.890
  108SBC   C07S76230  -0.097   4.829  14.970
  108SBC   C0G176231   0.167   4.998  15.170
  108SBC   C07K76232   0.089   4.715  15.391
  108SBC   C07H76233  -0.050   4.622  15.161
  108SBC   C06B76234  -0.187   4.397  15.395
  108SBC   C06N76235  -0.175   4.204  15.264
  108SBC   C06676236  -0.146   4.464  14.973
  108SBC   C06276237  -0.201   4.203  14.800
  108SBC   C05Y76238  -0.174   3.991  15.118
  108SBC   C06176239  -0.237   4.068  14.763
  108SBC   C05H76240  -0.089   3.757  14.884
  108SBC   C06V76241  -0.181   3.997  14.650
  108SBC   C06Y76242  -0.098   3.821  14.445
  108SBC   C05C76243  -0.055   3.558  14.699
  108SBC   C06Z76244  -0.048   3.616  14.337
  108SBC   C07076245   0.024   3.345  14.345
  108SBC   C05B76246  -0.036   3.416  14.697
  108SBC   C05776247  -0.004   3.129  14.706
  108SBC   C05976248   0.049   3.140  14.472
  109SBC   C05876249   4.028   3.116   7.669
  109SBC   C05A76250   3.963   3.034   7.575
  109SBC   C06Q76251   3.829   3.060   7.542
  109SBC   C06R76252   3.766   2.982   7.443
  109SBC   C06S76253   3.837   2.875   7.374
  109SBC   C06T76254   3.765   2.797   7.282
  109SBC   C06U76255   3.816   2.699   7.181
  109SBC   C06X76256   3.939   2.637   7.163
  109SBC   C06076257   3.941   2.566   7.041
  109SBC   C05Z76258   4.011   2.441   7.004
  109SBC   C06876259   3.902   2.362   6.940
  109SBC   C06776260   3.910   2.238   6.864
  109SBC   C06976261   4.045   2.175   6.827
  109SBC   C06A76262   4.074   2.049   6.753
  109SBC   C07376263   3.994   1.938   6.716
  109SBC   C07P76264   4.059   1.812   6.727
  109SBC   C07O76265   4.182   1.793   6.794
  109SBC   H00D76266   4.214   1.871   6.861
  109SBC   C07N76267   4.250   1.677   6.784
  109SBC   H00E76268   4.336   1.670   6.850
  109SBC   C07M76269   4.195   1.567   6.714
  109SBC   H00F76270   4.250   1.475   6.699
  109SBC   C07L76271   4.074   1.582   6.648
  109SBC   C07Q76272   4.010   1.474   6.576
  109SBC   H00G76273   4.065   1.382   6.564
  109SBC   O00F76274   3.900   1.495   6.498
  109SBC   C07J76275   3.855   1.625   6.496
  109SBC   C07I76276   3.899   1.727   6.576
  109SBC   N00476277   3.832   1.859   6.572
  109SBC   C07R76278   3.724   1.876   6.486
  109SBC   C07T76279   3.680   1.763   6.416
  109SBC   C0FX76280   3.563   1.758   6.344
  109SBC   C0FW76281   3.501   1.652   6.281
  109SBC   C0G076282   3.584   1.534   6.274
  109SBC   C0G276283   3.534   1.424   6.204
  109SBC   H01E76284   3.602   1.340   6.195
  109SBC   C0G376285   3.421   1.435   6.125
  109SBC   H01C76286   3.406   1.361   6.048
  109SBC   C0G476287   3.336   1.540   6.145
  109SBC   H01D76288   3.238   1.531   6.100
  109SBC   O00E76289   3.708   1.535   6.334
  109SBC   C0FV76290   3.369   1.655   6.223
  109SBC   C0FU76291   3.288   1.769   6.256
  109SBC   H01B76292   3.183   1.766   6.229
  109SBC   C0FT76293   3.350   1.882   6.317
  109SBC   C0FS76294   3.312   2.008   6.377
  109SBC   C0BI76295   3.434   2.085   6.399
  109SBC   C0BH76296   3.400   2.190   6.487
  109SBC   C07F76297   3.473   2.208   6.607
  109SBC   C07E76298   3.604   2.185   6.638
  109SBC   C07G76299   3.689   2.093   6.580
  109SBC   C07476300   3.797   2.084   6.668
  109SBC   C06576301   3.664   2.236   6.753
  109SBC   C06476302   3.580   2.308   6.834
  109SBC   C06376303   3.624   2.388   6.937
  109SBC   C07576304   3.497   2.458   6.984
  109SBC   C0AM76305   3.385   2.407   6.913
  109SBC   C0AN76306   3.237   2.431   6.935
  109SBC   C0AO76307   3.168   2.526   7.028
  109SBC   C0B176308   3.028   2.517   7.060
  109SBC   C0B076309   2.956   2.410   7.005
  109SBC   C0AZ76310   2.817   2.390   7.024
  109SBC   C0AY76311   2.751   2.281   6.975
  109SBC   N00776312   2.614   2.264   6.998
  109SBC   C0E276313   2.548   2.152   6.933
  109SBC   C0E176314   2.412   2.142   6.954
  109SBC   C0E476315   2.346   2.030   6.898
  109SBC   C0FF76316   2.205   2.013   6.913
  109SBC   C0FJ76317   2.115   1.900   6.876
  109SBC   C0FK76318   2.159   1.766   6.858
  109SBC   H01676319   2.260   1.729   6.854
  109SBC   C0FL76320   2.040   1.688   6.902
  109SBC   H01776321   2.031   1.583   6.922
  109SBC   C0FM76322   1.928   1.774   6.931
  109SBC   C0FH76323   1.817   1.797   7.020
  109SBC   C0FI76324   1.813   1.939   7.024
  109SBC   C0F376325   1.768   1.997   7.150
  109SBC   C0F276326   1.834   2.114   7.179
  109SBC   C0DW76327   1.949   2.169   7.124
  109SBC   C0FE76328   2.002   2.107   7.015
  109SBC   C0DV76329   2.019   2.270   7.185
  109SBC   C0DX76330   2.149   2.288   7.158
  109SBC   C0DK76331   2.217   2.384   7.231
  109SBC   C0DJ76332   2.157   2.457   7.339
  109SBC   C0DI76333   2.224   2.560   7.397
  109SBC   C0DH76334   2.353   2.596   7.357
  109SBC   C0DG76335   2.411   2.519   7.259
  109SBC   C0BV76336   2.541   2.551   7.220
  109SBC   C0BC76337   2.614   2.463   7.133
  109SBC   C0BA76338   2.606   2.659   7.280
  109SBC   C0B476339   2.743   2.677   7.249
  109SBC   C0B376340   2.816   2.588   7.164
  109SBC   C0B576341   2.808   2.783   7.306
  109SBC   C0BU76342   2.739   2.868   7.397
  109SBC   C0BT76343   2.602   2.850   7.428
  109SBC   C0BS76344   2.539   2.932   7.523
  109SBC   C0CC76345   2.411   2.894   7.568
  109SBC   C0CB76346   2.348   2.967   7.667
  109SBC   C0CH76347   2.246   2.896   7.733
  109SBC   C0DO76348   2.176   2.789   7.680
  109SBC   C0DP76349   2.058   2.738   7.733
  109SBC   C0EA76350   1.990   2.802   7.847
  109SBC   H01276351   2.041   2.884   7.895
  109SBC   O00976352   1.873   2.758   7.891
  109SBC   C0EH76353   1.798   2.665   7.825
  109SBC   C0EG76354   1.667   2.642   7.861
  109SBC   C0EJ76355   1.575   2.686   7.962
  109SBC   H01076356   1.582   2.766   8.035
  109SBC   C0EK76357   1.453   2.610   7.968
  109SBC   H00Z76358   1.371   2.614   8.037
  109SBC   C0EL76359   1.477   2.516   7.866
  109SBC   C0EM76360   1.399   2.398   7.823
  109SBC   C0EW76361   1.268   2.353   7.870
  109SBC   H01376362   1.214   2.419   7.937
  109SBC   C0EX76363   1.204   2.226   7.825
  109SBC   H01476364   1.106   2.207   7.865
  109SBC   C0F176365   1.278   2.145   7.730
  109SBC   C0EU76366   1.410   2.185   7.690
  109SBC   C0ET76367   1.497   2.121   7.595
  109SBC   C0ES76368   1.598   2.217   7.579
  109SBC   C0EE76369   1.583   2.328   7.663
  109SBC   C0ED76370   1.657   2.445   7.712
  109SBC   C0EC76371   1.785   2.488   7.656
  109SBC   C0EB76372   1.852   2.426   7.549
  109SBC   C0EN76373   1.796   2.313   7.472
  109SBC   C0ER76374   1.849   2.283   7.351
  109SBC   C0DS76375   1.975   2.474   7.497
  109SBC   C0DR76376   2.042   2.581   7.555
  109SBC   C0EY76377   1.696   2.217   7.485
  109SBC   C0EZ76378   1.692   2.117   7.384
  109SBC   C0F576379   1.631   1.989   7.349
  109SBC   C0F676380   1.526   1.933   7.431
  109SBC   N00876381   1.490   1.799   7.383
  109SBC   C0F776382   1.562   1.724   7.281
  109SBC   C0FQ76383   1.510   1.597   7.255
  109SBC   H01876384   1.567   1.539   7.184
  109SBC   C0FP76385   1.399   1.543   7.312
  109SBC   H01976386   1.363   1.448   7.275
  109SBC   C0FO76387   1.328   1.621   7.405
  109SBC   H01A76388   1.240   1.578   7.452
  109SBC   C0F876389   1.661   1.794   7.212
  109SBC   C0F976390   1.372   1.749   7.434
  109SBC   C0FA76391   1.294   1.815   7.533
  109SBC   H01576392   1.215   1.759   7.582
  109SBC   C0FB76393   1.323   1.947   7.582
  109SBC   C0FD76394   1.448   1.998   7.533
  109SBC   C0FC76395   1.234   2.017   7.675
  109SBC   O00A76396   1.134   1.960   7.712
  109SBC   C0EV76397   1.455   2.312   7.724
  109SBC   C0EF76398   1.601   2.534   7.807
  109SBC   C0EI76399   1.856   2.592   7.717
  109SBC   C0DQ76400   1.985   2.636   7.668
  109SBC   C0CE76401   2.228   2.732   7.568
  109SBC   H00U76402   2.225   2.935   7.831
  109SBC   C0CA76403   2.394   3.099   7.689
  109SBC   C0C976404   2.521   3.150   7.643
  109SBC   C0C876405   2.555   3.288   7.664
  109SBC   C0C776406   2.682   3.360   7.670
  109SBC   C0C676407   2.678   3.498   7.709
  109SBC   C0C576408   2.769   3.596   7.771
  109SBC   C0CQ76409   2.705   3.704   7.839
  109SBC   C0D176410   2.575   3.694   7.871
  109SBC   C0D876411   2.554   3.742   7.994
  109SBC   C0D776412   2.663   3.836   8.018
  109SBC   C0D676413   2.695   3.897   8.142
  109SBC   C0D576414   2.804   3.980   8.159
  109SBC   C0D476415   2.910   4.008   8.075
  109SBC   C0D376416   3.011   4.067   8.164
  109SBC   C0CX76417   3.143   4.030   8.112
  109SBC   C0CW76418   3.115   3.909   8.027
  109SBC   C0CV76419   3.187   3.795   7.975
  109SBC   C0D276420   3.326   3.771   8.014
  109SBC   C09D76421   3.403   3.842   8.109
  109SBC   C09C76422   3.536   3.802   8.148
  109SBC   C09B76423   3.625   3.871   8.234
  109SBC   C09A76424   3.582   3.993   8.282
  109SBC   C09976425   3.454   4.032   8.261
  109SBC   C09876426   3.451   4.171   8.268
  109SBC   C08Y76427   3.590   4.220   8.290
  109SBC   C08X76428   3.648   4.347   8.269
  109SBC   C08W76429   3.561   4.460   8.233
  109SBC   C08U76430   3.417   4.460   8.199
  109SBC   C08V76431   3.314   4.358   8.172
  109SBC   C0DC76432   3.197   4.419   8.156
  109SBC   H00W76433   3.106   4.364   8.139
  109SBC   C0DB76434   3.215   4.558   8.164
  109SBC   H00X76435   3.146   4.636   8.137
  109SBC   C08T76436   3.350   4.584   8.183
  109SBC   C08S76437   3.418   4.702   8.183
  109SBC   H00N76438   3.356   4.786   8.155
  109SBC   C08R76439   3.555   4.707   8.201
  109SBC   C08Q76440   3.631   4.826   8.190
  109SBC   H00O76441   3.572   4.914   8.170
  109SBC   C08P76442   3.771   4.838   8.202
  109SBC   C08O76443   3.846   4.962   8.194
  109SBC   H00P76444   3.799   5.058   8.181
  109SBC   C08N76445   3.990   4.963   8.193
  109SBC   C08M76446   4.070   5.081   8.185
  109SBC   O00876447   4.017   5.194   8.179
  109SBC   O00776448   4.208   5.070   8.159
  109SBC   C08H76449   4.268   4.952   8.153
  109SBC   C08G76450   4.411   4.944   8.134
  109SBC   C03V76451   4.509   5.046   8.122
  109SBC   H00976452   4.467   5.146   8.116
  109SBC   C03U76453   4.648   5.029   8.107
  109SBC   C03W76454   4.739   5.133   8.083
  109SBC   H00A76455   4.711   5.238   8.086
  109SBC   C03X76456   4.864   5.105   8.057
  109SBC   H00B76457   4.933   5.185   8.033
  109SBC   O00576458   4.921   4.983   8.061
  109SBC   C03O76459   4.832   4.883   8.085
  109SBC   C03N76460   4.880   4.755   8.108
  109SBC   O00076461   5.011   4.735   8.091
  109SBC   C01976462   5.062   4.610   8.094
  109SBC   C01876463   4.988   4.504   8.152
  109SBC   C01776464   4.850   4.521   8.174
  109SBC   C01676465   4.775   4.417   8.219
  109SBC   C01576466   4.846   4.298   8.237
  109SBC   C01476467   4.774   4.188   8.284
  109SBC   C01376468   4.633   4.190   8.295
  109SBC   C01276469   4.601   4.054   8.332
  109SBC   C01176470   4.729   3.993   8.350
  109SBC   C01076471   4.734   3.856   8.377
  109SBC   C00Z76472   4.840   3.773   8.363
  109SBC   C00Y76473   4.785   3.642   8.343
  109SBC   C01O76474   4.647   3.649   8.342
  109SBC   C01P76475   4.568   3.562   8.266
  109SBC   C02L76476   4.446   3.608   8.223
  109SBC   C02K76477   4.408   3.736   8.264
  109SBC   C01M76478   4.500   3.837   8.313
  109SBC   C02J76479   4.270   3.754   8.257
  109SBC   C02I76480   4.203   3.863   8.310
  109SBC   C02H76481   4.245   3.989   8.363
  109SBC   C01Q76482   4.367   4.048   8.354
  109SBC   C02G76483   4.350   4.187   8.361
  109SBC   C08976484   4.218   4.216   8.415
  109SBC   C08876485   4.173   4.336   8.353
  109SBC   C08776486   4.299   4.386   8.291
  109SBC   C08676487   4.314   4.517   8.243
  109SBC   C03S76488   4.438   4.581   8.221
  109SBC   N00676489   4.398   4.709   8.180
  109SBC   C08F76490   4.266   4.727   8.200
  109SBC   C01J76491   4.576   4.557   8.211
  109SBC   C03R76492   4.658   4.666   8.165
  109SBC   C03Q76493   4.608   4.794   8.140
  109SBC   C08E76494   4.209   4.608   8.222
  109SBC   C08D76495   4.063   4.598   8.235
  109SBC   C08K76496   3.989   4.720   8.223
  109SBC   C08C76497   3.985   4.484   8.266
  109SBC   C09176498   3.849   4.485   8.255
  109SBC   C09276499   3.772   4.599   8.228
  109SBC   C08B76500   4.027   4.358   8.321
  109SBC   C09076501   3.907   4.283   8.343
  109SBC   C09476502   3.898   4.143   8.386
  109SBC   C09576503   3.793   4.061   8.357
  109SBC   C09R76504   3.840   3.938   8.318
  109SBC   C09776505   3.975   3.924   8.346
  109SBC   C09676506   4.012   4.057   8.392
  109SBC   C01I76507   4.413   4.303   8.308
  109SBC   C08A76508   4.150   4.089   8.401
  109SBC   C09L76509   4.070   3.836   8.295
  109SBC   C09K76510   4.051   3.714   8.227
  109SBC   C09J76511   3.947   3.697   8.132
  109SBC   C09I76512   3.943   3.597   8.036
  109SBC   C09O76513   4.027   3.492   7.980
  109SBC   C09N76514   4.162   3.469   8.023
  109SBC   C09M76515   4.235   3.549   8.117
  109SBC   C06O76516   4.227   3.359   7.960
  109SBC   C05M76517   4.160   3.281   7.862
  109SBC   C06P76518   4.028   3.313   7.819
  109SBC   C04276519   4.222   3.175   7.800
  109SBC   C04176520   4.359   3.153   7.828
  109SBC   C04076521   4.428   3.059   7.755
  109SBC   C03Z76522   4.565   3.041   7.775
  109SBC   C03Y76523   4.635   3.115   7.866
  109SBC   C02776524   4.774   3.091   7.890
  109SBC   C02676525   4.836   3.167   7.987
  109SBC   C02876526   4.972   3.150   8.003
  109SBC   C02976527   5.041   3.056   7.928
  109SBC   C02B76528   5.176   3.048   7.942
  109SBC   C02C76529   5.245   2.957   7.864
  109SBC   C02X76530   5.384   2.951   7.872
  109SBC   C03E76531   5.450   2.858   7.800
  109SBC   C03G76532   5.391   2.776   7.711
  109SBC   C04Q76533   5.253   2.778   7.696
  109SBC   C04R76534   5.193   2.699   7.604
  109SBC   C04S76535   5.053   2.708   7.592
  109SBC   C04L76536   4.981   2.803   7.670
  109SBC   C04M76537   5.043   2.878   7.766
  109SBC   C04K76538   4.842   2.821   7.654
  109SBC   C04F76539   4.775   2.741   7.562
  109SBC   C04E76540   4.845   2.649   7.489
  109SBC   C04D76541   4.780   2.579   7.385
  109SBC   C05076542   4.849   2.491   7.302
  109SBC   C05176543   4.780   2.423   7.205
  109SBC   C05Q76544   4.850   2.346   7.120
  109SBC   C05V76545   4.782   2.287   7.012
  109SBC   N00576546   4.863   2.212   6.915
  109SBC   C07V76547   4.993   2.187   6.940
  109SBC   C08276548   5.070   2.115   6.846
  109SBC   C08176549   5.019   2.088   6.716
  109SBC   C07C76550   4.883   2.102   6.700
  109SBC   C07B76551   4.822   2.065   6.580
  109SBC   C08076552   4.900   2.028   6.464
  109SBC   C07Z76553   4.835   1.991   6.346
  109SBC   H00L76554   4.891   1.956   6.261
  109SBC   C07976555   4.696   1.958   6.347
  109SBC   C07876556   4.618   1.999   6.458
  109SBC   C07776557   4.478   1.985   6.463
  109SBC   C07X76558   4.419   1.921   6.351
  109SBC   H00I76559   4.312   1.911   6.349
  109SBC   C07Y76560   4.486   1.863   6.240
  109SBC   H00H76561   4.438   1.813   6.157
  109SBC   C07676562   4.405   2.035   6.567
  109SBC   C06C76563   4.266   1.999   6.581
  109SBC   H00C76564   4.205   1.936   6.518
  109SBC   C06F76565   4.466   2.118   6.662
  109SBC   C06E76566   4.396   2.182   6.762
  109SBC   C06G76567   4.448   2.249   6.870
  109SBC   C06H76568   4.587   2.244   6.880
  109SBC   C06I76569   4.665   2.174   6.786
  109SBC   C06L76570   4.365   2.313   6.963
  109SBC   C06M76571   4.222   2.320   6.955
  109SBC   C06K76572   4.429   2.385   7.066
  109SBC   C05S76573   4.571   2.367   7.085
  109SBC   C05U76574   4.357   2.463   7.156
  109SBC   C05X76575   4.216   2.483   7.140
  109SBC   C05G76576   4.159   2.580   7.237
  109SBC   C05F76577   4.242   2.646   7.325
  109SBC   C05E76578   4.175   2.743   7.400
  109SBC   C04876579   4.244   2.829   7.488
  109SBC   C05676580   4.164   2.919   7.545
  109SBC   C04576581   4.228   2.996   7.639
  109SBC   C04776582   4.374   2.802   7.505
  109SBC   C04976583   4.441   2.703   7.430
  109SBC   C04B76584   4.577   2.687   7.444
  109SBC   C04676585   4.436   2.880   7.599
  109SBC   C04H76586   4.569   2.861   7.615
  109SBC   C05D76587   4.046   2.750   7.356
  109SBC   C04A76588   4.380   2.625   7.334
  109SBC   C05T76589   4.436   2.529   7.253
  109SBC   C05576590   4.572   2.513   7.272
  109SBC   C06D76591   4.260   2.154   6.776
  109SBC   C07W76592   4.604   2.123   6.670
  109SBC   C08576593   4.627   1.890   6.242
  109SBC   H00M76594   4.687   1.861   6.158
  109SBC   C08476595   5.038   2.023   6.481
  109SBC   H00J76596   5.090   2.001   6.389
  109SBC   C07A76597   4.680   2.062   6.570
  109SBC   C08376598   5.100   2.052   6.606
  109SBC   H00K76599   5.207   2.055   6.619
  109SBC   O00K76600   5.200   2.081   6.865
  109SBC   C0GO76601   5.251   2.117   6.990
  109SBC   C0GN76602   5.384   2.087   7.021
  109SBC   H01L76603   5.441   2.013   6.967
  109SBC   C0GM76604   5.449   2.140   7.139
  109SBC   C0GL76605   5.572   2.099   7.173
  109SBC   H01M76606   5.623   2.026   7.111
  109SBC   O00J76607   5.644   2.163   7.277
  109SBC   C0GK76608   5.581   2.259   7.344
  109SBC   H01N76609   5.634   2.306   7.426
  109SBC   C05K76610   5.458   2.303   7.310
  109SBC   C05J76611   5.398   2.414   7.384
  109SBC   C04Y76612   5.466   2.508   7.463
  109SBC   C04X76613   5.399   2.599   7.545
  109SBC   O00676614   5.603   2.524   7.455
  109SBC   C05376615   5.682   2.602   7.542
  109SBC   C04O76616   5.607   2.693   7.627
  109SBC   C03C76617   5.669   2.788   7.722
  109SBC   C03B76618   5.800   2.844   7.752
  109SBC   C05476619   5.908   2.812   7.676
  109SBC   C0GR76620   6.037   2.860   7.719
  109SBC   C03M76621   6.086   2.980   7.794
  109SBC   C03I76622   6.006   3.076   7.865
  109SBC   C03J76623   6.073   3.198   7.909
  109SBC   N00276624   5.997   3.305   7.974
  109SBC   C02U76625   6.061   3.428   8.008
  109SBC   C02T76626   5.987   3.529   8.072
  109SBC   C02Z76627   6.046   3.652   8.103
  109SBC   N00176628   5.972   3.754   8.167
  109SBC   C02R76629   6.041   3.867   8.221
  109SBC   C03276630   6.180   3.883   8.198
  109SBC   C03176631   6.246   3.794   8.108
  109SBC   H00776632   6.344   3.819   8.067
  109SBC   C03376633   6.235   4.005   8.258
  109SBC   H00376634   6.336   4.033   8.234
  109SBC   O00476635   6.169   4.090   8.346
  109SBC   C03476636   6.042   4.064   8.365
  109SBC   C03576637   5.981   4.152   8.455
  109SBC   C03676638   5.844   4.142   8.472
  109SBC   H00576639   5.790   4.224   8.518
  109SBC   C03776640   5.768   4.041   8.412
  109SBC   H00676641   5.660   4.045   8.422
  109SBC   C00D76642   5.832   3.947   8.324
  109SBC   C00C76643   5.759   3.847   8.260
  109SBC   C00B76644   5.614   3.826   8.274
  109SBC   C00A76645   5.487   3.902   8.318
  109SBC   C00976646   5.393   3.791   8.314
  109SBC   C00876647   5.250   3.791   8.319
  109SBC   C00776648   5.187   3.915   8.311
  109SBC   C00676649   5.044   3.918   8.320
  109SBC   C00576650   4.982   4.044   8.305
  109SBC   C00476651   5.053   4.159   8.266
  109SBC   C00376652   5.191   4.150   8.257
  109SBC   C00276653   5.259   4.257   8.200
  109SBC   C01C76654   5.190   4.374   8.162
  109SBC   C01B76655   5.259   4.474   8.078
  109SBC   H00076656   5.359   4.462   8.040
  109SBC   C00176657   5.398   4.256   8.200
  109SBC   C00076658   5.472   4.135   8.219
  109SBC   C01U76659   5.603   4.167   8.192
  109SBC   H00276660   5.692   4.106   8.184
  109SBC   C01T76661   5.610   4.312   8.190
  109SBC   O00276662   5.710   4.385   8.193
  109SBC   O00176663   5.485   4.358   8.183
  109SBC   C01S76664   5.262   4.032   8.287
  109SBC   C00N76665   5.185   3.669   8.299
  109SBC   C00M76666   5.252   3.557   8.260
  109SBC   C00J76667   5.389   3.555   8.250
  109SBC   C00I76668   5.459   3.449   8.195
  109SBC   C00H76669   5.592   3.464   8.168
  109SBC   C00G76670   5.656   3.585   8.198
  109SBC   C00F76671   5.778   3.614   8.156
  109SBC   C01X76672   5.664   3.367   8.097
  109SBC   C01W76673   5.596   3.258   8.058
  109SBC   C01V76674   5.459   3.243   8.083
  109SBC   C02076675   5.384   3.146   8.016
  109SBC   C01Z76676   5.664   3.161   7.987
  109SBC   C02Y76677   5.591   3.054   7.944
  109SBC   C03976678   5.657   2.960   7.870
  109SBC   C02W76679   5.802   3.176   7.964
  109SBC   C01Y76680   5.798   3.392   8.064
  109SBC   C00U76681   5.391   3.340   8.154
  109SBC   C00S76682   5.253   3.332   8.162
  109SBC   C00T76683   5.179   3.234   8.095
  109SBC   C00R76684   5.188   3.441   8.219
  109SBC   C00Q76685   5.050   3.443   8.217
  109SBC   C00V76686   4.977   3.337   8.152
  109SBC   C02476687   4.841   3.342   8.141
  109SBC   C00X76688   4.775   3.447   8.208
  109SBC   C00P76689   4.983   3.555   8.264
  109SBC   C00O76690   5.049   3.671   8.308
  109SBC   C00K76691   5.452   3.673   8.272
  109SBC   N00076692   5.410   4.020   8.271
  109SBC   C00L76693   5.583   3.691   8.250
  109SBC   H00476694   6.046   4.225   8.502
  109SBC   C02Q76695   5.971   3.962   8.299
  109SBC   C00E76696   5.833   3.743   8.191
  109SBC   C03076697   6.181   3.672   8.069
  109SBC   O00376698   6.250   3.572   8.003
  109SBC   C02S76699   5.856   3.512   8.102
  109SBC   C03876700   6.196   3.450   7.975
  109SBC   C03L76701   6.268   3.343   7.925
  109SBC   H00876702   6.369   3.372   7.902
  109SBC   C02V76703   5.862   3.291   7.998
  109SBC   C03K76704   6.211   3.222   7.888
  109SBC   C0BK76705   6.280   3.110   7.846
  109SBC   H00T76706   6.388   3.122   7.851
  109SBC   C03H76707   5.871   3.076   7.893
  109SBC   C0BL76708   6.229   2.988   7.799
  109SBC   C0GU76709   6.314   2.882   7.762
  109SBC   H01O76710   6.416   2.903   7.791
  109SBC   C0GT76711   6.268   2.763   7.703
  109SBC   H01P76712   6.333   2.681   7.674
  109SBC   C0GS76713   6.128   2.754   7.677
  109SBC   C0GV76714   6.059   2.649   7.615
  109SBC   C0GW76715   6.108   2.521   7.572
  109SBC   H01Q76716   6.210   2.490   7.591
  109SBC   C0GX76717   6.020   2.458   7.493
  109SBC   H01R76718   6.045   2.362   7.449
  109SBC   O00L76719   5.891   2.501   7.465
  109SBC   C0GQ76720   5.920   2.687   7.608
  109SBC   C03A76721   5.793   2.960   7.839
  109SBC   C05L76722   5.827   2.597   7.543
  109SBC   C04W76723   5.258   2.423   7.371
  109SBC   C05I76724   5.188   2.359   7.267
  109SBC   C05O76725   5.251   2.266   7.192
  109SBC   C05276726   5.058   2.387   7.242
  109SBC   C04V76727   5.193   2.521   7.439
  109SBC   C04U76728   5.053   2.543   7.423
  109SBC   N00976729   5.384   2.230   7.216
  109SBC   C0GP76730   5.186   2.204   7.081
  109SBC   C05W76731   5.056   2.235   7.058
  109SBC   C07D76732   4.805   2.163   6.799
  109SBC   C06J76733   4.646   2.300   6.988
  109SBC   C05P76734   4.986   2.325   7.138
  109SBC   C05R76735   4.641   2.426   7.193
  109SBC   C04Z76736   4.987   2.479   7.324
  109SBC   C04C76737   4.642   2.593   7.368
  109SBC   C04G76738   4.641   2.762   7.544
  109SBC   C04J76739   4.770   2.923   7.722
  109SBC   C04T76740   4.983   2.633   7.504
  109SBC   N00376741   5.261   2.598   7.527
  109SBC   C04P76742   5.466   2.687   7.630
  109SBC   C03D76743   5.588   2.861   7.802
  109SBC   C02176744   5.452   3.049   7.944
  109SBC   C03F76745   5.178   2.867   7.778
  109SBC   C02276746   5.248   3.142   8.019
  109SBC   C02A76747   4.973   2.974   7.840
  109SBC   C02376748   5.043   3.237   8.084
  109SBC   C02576749   4.765   3.256   8.063
  109SBC   C02D76750   4.630   3.273   8.042
  109SBC   C02E76751   4.567   3.378   8.107
  109SBC   C02N76752   4.434   3.413   8.077
  109SBC   C04N76753   4.841   2.998   7.814
  109SBC   C02P76754   4.565   3.208   7.942
  109SBC   C04I76755   4.637   2.943   7.704
  109SBC   C04476756   4.364   2.980   7.666
  109SBC   C04376757   4.430   3.229   7.919
  109SBC   C05N76758   4.360   3.329   7.989
  109SBC   C09U76759   3.960   3.416   7.878
  109SBC   C09V76760   3.823   3.430   7.846
  109SBC   C09X76761   3.742   3.518   7.911
  109SBC   C09Y76762   3.603   3.539   7.896
  109SBC   C0A176763   3.539   3.457   7.811
  109SBC   C0A276764   3.617   3.360   7.743
  109SBC   C0A476765   3.553   3.285   7.655
  109SBC   C07176766   3.624   3.189   7.587
  109SBC   C0A576767   3.561   3.103   7.498
  109SBC   C0A976768   3.422   3.106   7.487
  109SBC   C0A876769   3.354   3.190   7.562
  109SBC   C0AP76770   3.214   3.188   7.555
  109SBC   C0BY76771   3.150   3.286   7.626
  109SBC   C0BX76772   3.206   3.387   7.698
  109SBC   C0C276773   3.125   3.484   7.766
  109SBC   C0C376774   3.190   3.585   7.840
  109SBC   C0CT76775   3.328   3.574   7.862
  109SBC   C0C176776   2.988   3.480   7.754
  109SBC   C0C076777   2.931   3.358   7.702
  109SBC   C0A776778   3.343   3.389   7.707
  109SBC   C0BZ76779   3.014   3.275   7.637
  109SBC   C0BO76780   2.948   3.165   7.581
  109SBC   C0BN76781   3.015   3.075   7.499
  109SBC   C0BM76782   2.944   2.980   7.438
  109SBC   C0B976783   3.011   2.892   7.358
  109SBC   C0B876784   3.149   2.900   7.345
  109SBC   C0AD76785   3.217   2.998   7.419
  109SBC   C0AF76786   3.221   2.820   7.260
  109SBC   C0AG76787   3.158   2.723   7.185
  109SBC   C0B776788   3.018   2.712   7.204
  109SBC   C0AE76789   3.358   2.838   7.255
  109SBC   C0AB76790   3.424   2.933   7.324
  109SBC   C0AA76791   3.563   2.927   7.334
  109SBC   C0AJ76792   3.424   2.758   7.166
  109SBC   C0AK76793   3.559   2.753   7.177
  109SBC   C06W76794   3.599   2.656   7.094
  109SBC   C0AI76795   3.369   2.655   7.083
  109SBC   C0BP76796   2.816   3.171   7.605
  109SBC   C0BQ76797   2.736   3.061   7.547
  109SBC   C0BW76798   3.146   3.086   7.494
  109SBC   C0AC76799   3.354   3.015   7.405
  109SBC   C0A676800   3.416   3.288   7.637
  109SBC   C0A376801   3.404   3.474   7.796
  109SBC   C09Z76802   3.532   3.641   7.967
  109SBC   C09W76803   3.757   3.346   7.760
  109SBC   C07276804   3.824   3.246   7.700
  109SBC   C09H76805   3.804   3.593   8.008
  109SBC   C09G76806   3.731   3.687   8.078
  109SBC   C09P76807   3.812   3.749   8.157
  109SBC   C02O76808   4.177   3.658   8.201
  109SBC   C02M76809   4.375   3.526   8.137
  109SBC   C02F76810   4.636   3.457   8.200
  109SBC   C00W76811   4.847   3.544   8.265
  109SBC   C01R76812   4.978   3.794   8.331
  109SBC   C01N76813   4.622   3.782   8.354
  109SBC   C01L76814   4.482   3.975   8.327
  109SBC   C01H76815   4.558   4.313   8.268
  109SBC   C01K76816   4.838   4.067   8.310
  109SBC   C01E76817   4.984   4.277   8.228
  109SBC   C01G76818   4.633   4.430   8.227
  109SBC   C01D76819   5.055   4.386   8.182
  109SBC   C01A76820   5.196   4.596   8.055
  109SBC   H00176821   5.256   4.678   8.017
  109SBC   C01F76822   4.797   4.646   8.147
  109SBC   C03P76823   4.693   4.903   8.107
  109SBC   C03T76824   4.474   4.817   8.148
  109SBC   C08I76825   4.197   4.839   8.180
  109SBC   C08J76826   4.056   4.840   8.198
  109SBC   C08L76827   3.842   4.719   8.223
  109SBC   C09376828   3.626   4.589   8.230
  109SBC   C08Z76829   3.793   4.363   8.290
  109SBC   C09T76830   3.334   4.211   8.198
  109SBC   C09S76831   3.659   4.098   8.318
  109SBC   C09Q76832   3.763   3.848   8.240
  109SBC   C09F76833   3.593   3.704   8.072
  109SBC   C09E76834   3.368   3.970   8.169
  109SBC   C0A076835   3.396   3.659   7.953
  109SBC   C0CU76836   3.115   3.694   7.896
  109SBC   C0CR76837   2.977   3.697   7.872
  109SBC   C0CZ76838   2.901   3.805   7.930
  109SBC   C0DA76839   3.271   4.074   8.149
  109SBC   C0D976840   2.967   4.049   8.307
  109SBC   H00V76841   3.026   4.061   8.396
  109SBC   C0CY76842   2.974   3.898   8.007
  109SBC   C0DF76843   2.831   3.995   8.296
  109SBC   C0DE76844   2.719   3.936   8.368
  109SBC   C0GI76845   2.675   3.929   8.505
  109SBC   H01K76846   2.737   3.968   8.585
  109SBC   C0GJ76847   2.570   3.854   8.535
  109SBC   H01J76848   2.546   3.837   8.639
  109SBC   O00I76849   2.494   3.784   8.443
  109SBC   C0GH76850   2.531   3.780   8.309
  109SBC   C0GG76851   2.442   3.700   8.224
  109SBC   O00G76852   2.340   3.640   8.298
  109SBC   C0G876853   2.246   3.568   8.223
  109SBC   C0G976854   2.130   3.537   8.292
  109SBC   H01G76855   2.113   3.583   8.388
  109SBC   C0GA76856   2.030   3.462   8.236
  109SBC   H01H76857   1.935   3.449   8.287
  109SBC   C0GB76858   2.054   3.400   8.115
  109SBC   C0EP76859   2.178   3.422   8.051
  109SBC   C0E876860   2.217   3.322   7.944
  109SBC   C0CK76861   2.328   3.291   7.858
  109SBC   C0CL76862   2.399   3.401   7.815
  109SBC   C0E976863   2.416   3.524   7.896
  109SBC   C0GE76864   2.378   3.575   8.027
  109SBC   C0E776865   2.114   3.249   7.881
  109SBC   C0CJ76866   2.157   3.175   7.773
  109SBC   C0E676867   2.059   3.106   7.700
  109SBC   H00Y76868   2.088   3.047   7.614
  109SBC   C0EO76869   1.925   3.100   7.754
  109SBC   H01176870   1.849   3.056   7.692
  109SBC   C0G676871   1.884   3.182   7.867
  109SBC   C0G576872   1.751   3.187   7.920
  109SBC   H01F76873   1.670   3.144   7.862
  109SBC   C0GD76874   1.731   3.252   8.041
  109SBC   H01I76875   1.628   3.263   8.074
  109SBC   O00H76876   1.832   3.315   8.113
  109SBC   C0EQ76877   1.982   3.254   7.933
  109SBC   C0GC76878   1.955   3.324   8.050
  109SBC   C0G776879   2.273   3.515   8.094
  109SBC   C0DD76880   2.638   3.866   8.269
  109SBC   C0GF76881   2.456   3.682   8.086
  109SBC   C0CO76882   2.498   3.595   7.817
  109SBC   C0D076883   2.764   3.788   7.929
  109SBC   C0C476884   2.911   3.586   7.802
  109SBC   C0CN76885   2.541   3.527   7.702
  109SBC   C0CP76886   2.805   3.297   7.671
  109SBC   C0CM76887   2.465   3.406   7.686
  109SBC   C0CI76888   2.300   3.176   7.774
  109SBC   C0CD76889   2.352   2.776   7.518
  109SBC   C0BR76890   2.600   3.050   7.571
  109SBC   C0CS76891   2.806   2.972   7.461
  109SBC   C0B676892   2.943   2.800   7.286
  109SBC   C0CG76893   2.541   2.739   7.371
  109SBC   C0CF76894   2.416   2.702   7.418
  109SBC   C0E576895   2.166   2.621   7.508
  109SBC   C0DT76896   2.035   2.422   7.382
  109SBC   C0DL76897   2.343   2.418   7.194
  109SBC   C0DM76898   2.413   2.339   7.103
  109SBC   C0DY76899   2.210   2.211   7.056
  109SBC   C0DU76900   1.970   2.329   7.299
  109SBC   C0F076901   1.791   2.168   7.302
  109SBC   C0F476902   1.687   1.931   7.237
  109SBC   C0FG76903   1.928   1.997   6.967
  109SBC   O00B76904   1.727   1.726   7.099
  109SBC   C0FN76905   1.980   1.904   6.891
  109SBC   C0DZ76906   2.138   2.110   6.988
  109SBC   O00C76907   2.423   1.937   6.822
  109SBC   C0FR76908   2.552   1.950   6.797
  109SBC   O00D76909   2.595   1.863   6.720
  109SBC   C0E076910   2.345   2.230   7.038
  109SBC   C0E376911   2.622   2.063   6.853
  109SBC   C0AW76912   2.760   2.084   6.828
  109SBC   C0AV76913   2.842   2.000   6.749
  109SBC   H00Q76914   2.803   1.910   6.704
  109SBC   C0AU76915   2.973   2.035   6.720
  109SBC   H00R76916   3.025   1.962   6.660
  109SBC   C0AT76917   3.030   2.150   6.775
  109SBC   C0AS76918   3.156   2.230   6.769
  109SBC   C0AR76919   3.254   2.223   6.663
  109SBC   C0BE76920   2.947   2.222   6.860
  109SBC   C0DN76921   2.547   2.360   7.080
  109SBC   C0AX76922   2.810   2.192   6.892
  109SBC   C0BB76923   2.749   2.479   7.109
  109SBC   C0BD76924   3.019   2.329   6.914
  109SBC   C0B276925   2.955   2.605   7.141
  109SBC   C0AH76926   3.227   2.632   7.102
  109SBC   C0BF76927   3.153   2.336   6.873
  109SBC   C0AL76928   3.488   2.594   7.027
  109SBC   C07U76929   3.440   2.319   6.816
  109SBC   C0AQ76930   3.388   2.257   6.702
  109SBC   C0BG76931   3.264   2.187   6.519
  109SBC   C0FY76932   3.537   1.997   6.407
  109SBC   C0BJ76933   3.206   2.071   6.449
  109SBC   H00S76934   3.104   2.038   6.462
  109SBC   C0FZ76935   3.489   1.877   6.352
  109SBC   C07S76936   3.652   1.996   6.486
  109SBC   C0G176937   3.744   1.641   6.413
  109SBC   C07K76938   4.009   1.708   6.652
  109SBC   C07H76939   3.876   1.966   6.658
  109SBC   C06B76940   4.203   2.062   6.691
  109SBC   C06N76941   4.174   2.217   6.863
  109SBC   C06676942   3.801   2.192   6.770
  109SBC   C06276943   3.770   2.435   6.949
  109SBC   C05Y76944   4.150   2.413   7.028
  109SBC   C06176945   3.808   2.568   6.992
  109SBC   C05H76946   4.034   2.644   7.260
  109SBC   C06V76947   3.733   2.641   7.082
  109SBC   C06Y76948   3.633   2.827   7.269
  109SBC   C05C76949   3.968   2.859   7.412
  109SBC   C06Z76950   3.630   3.010   7.421
  109SBC   C07076951   3.758   3.163   7.608
  109SBC   C05B76952   4.033   2.937   7.514
  109SBC   C05776953   4.160   3.095   7.702
  109SBC   C05976954   3.961   3.225   7.729
  110SBC   C05876955   3.007   0.425   4.860
  110SBC   C05A76956   2.980   0.292   4.848
  110SBC   C06Q76957   2.907   0.223   4.939
  110SBC   C06R76958   2.882   0.086   4.924
  110SBC   C06S76959   2.931   0.011   4.820
  110SBC   C06T76960   2.887  -0.126   4.805
  110SBC   C06U76961   2.927  -0.231   4.708
  110SBC   C06X76962   3.007  -0.233   4.590
  110SBC   C06076963   3.027  -0.370   4.541
  110SBC   C05Z76964   3.004  -0.417   4.405
  110SBC   C06876965   2.939  -0.554   4.417
  110SBC   C06776966   2.949  -0.669   4.330
  110SBC   C06976967   3.029  -0.663   4.210
  110SBC   C06A76968   3.086  -0.775   4.136
  110SBC   C07376969   3.088  -0.919   4.152
  110SBC   C07P76970   3.196  -0.993   4.104
  110SBC   C07O76971   3.325  -0.943   4.079
  110SBC   H00D76972   3.350  -0.841   4.101
  110SBC   C07N76973   3.435  -1.021   4.039
  110SBC   H00E76974   3.537  -0.984   4.033
  110SBC   C07M76975   3.417  -1.156   4.025
  110SBC   H00F76976   3.509  -1.211   4.010
  110SBC   C07L76977   3.288  -1.213   4.046
  110SBC   C07Q76978   3.258  -1.349   4.013
  110SBC   H00G76979   3.339  -1.409   3.974
  110SBC   O00F76980   3.136  -1.411   4.036
  110SBC   C07J76981   3.044  -1.333   4.100
  110SBC   C07I76982   3.059  -1.191   4.111
  110SBC   N00476983   2.945  -1.117   4.175
  110SBC   C07R76984   2.819  -1.177   4.190
  110SBC   C07T76985   2.815  -1.318   4.177
  110SBC   C0FX76986   2.704  -1.392   4.221
  110SBC   C0FW76987   2.694  -1.529   4.233
  110SBC   C0G076988   2.806  -1.598   4.185
  110SBC   C0G276989   2.819  -1.733   4.216
  110SBC   H01E76990   2.907  -1.794   4.199
  110SBC   C0G376991   2.707  -1.801   4.273
  110SBC   H01C76992   2.710  -1.903   4.307
  110SBC   C0G476993   2.598  -1.723   4.319
  110SBC   H01D76994   2.514  -1.778   4.358
  110SBC   O00E76995   2.903  -1.528   4.117
  110SBC   C0FV76996   2.587  -1.587   4.300
  110SBC   C0FU76997   2.482  -1.507   4.345
  110SBC   H01B76998   2.407  -1.561   4.401
  110SBC   C0FT76999   2.481  -1.368   4.323
  110SBC   C0FS77000   2.418  -1.254   4.378
  110SBC   C0BI77001   2.470  -1.138   4.313
  110SBC   C0BH77002   2.445  -1.027   4.392
  110SBC   C07F77003   2.555  -0.952   4.441
  110SBC   C07E77004   2.665  -0.900   4.381
  110SBC   C07G77005   2.737  -0.970   4.281
  110SBC   C07477006   2.862  -0.913   4.271
  110SBC   C06577007   2.756  -0.807   4.433
  110SBC   C06477008   2.719  -0.751   4.556
  110SBC   C06377009   2.771  -0.639   4.614
  110SBC   C07577010   2.686  -0.624   4.735
  110SBC   C0AM77011   2.587  -0.729   4.756
  110SBC   C0AN77012   2.490  -0.758   4.861
  110SBC   C0AO77013   2.448  -0.677   4.983
  110SBC   C0B177014   2.360  -0.726   5.082
  110SBC   C0B077015   2.306  -0.848   5.077
  110SBC   C0AZ77016   2.219  -0.910   5.167
  110SBC   C0AY77017   2.184  -1.042   5.154
  110SBC   N00777018   2.089  -1.094   5.235
  110SBC   C0E277019   2.040  -1.227   5.211
  110SBC   C0E177020   1.944  -1.278   5.296
  110SBC   C0E477021   1.899  -1.410   5.277
  110SBC   C0FF77022   1.786  -1.461   5.348
  110SBC   C0FJ77023   1.730  -1.598   5.365
  110SBC   C0FK77024   1.801  -1.718   5.334
  110SBC   H01677025   1.884  -1.740   5.268
  110SBC   C0FL77026   1.728  -1.817   5.417
  110SBC   H01777027   1.748  -1.922   5.430
  110SBC   C0FM77028   1.626  -1.753   5.494
  110SBC   C0FH77029   1.548  -1.751   5.622
  110SBC   C0FI77030   1.511  -1.611   5.628
  110SBC   C0F377031   1.513  -1.555   5.756
  110SBC   C0F277032   1.546  -1.424   5.761
  110SBC   C0DW77033   1.611  -1.353   5.660
  110SBC   C0FE77034   1.631  -1.409   5.537
  110SBC   C0DV77035   1.676  -1.232   5.680
  110SBC   C0DX77036   1.765  -1.180   5.592
  110SBC   C0DK77037   1.820  -1.054   5.622
  110SBC   C0DJ77038   1.793  -0.987   5.744
  110SBC   C0DI77039   1.840  -0.860   5.767
  110SBC   C0DH77040   1.915  -0.797   5.670
  110SBC   C0DG77041   1.948  -0.867   5.551
  110SBC   C0BV77042   2.037  -0.808   5.460
  110SBC   C0BC77043   2.078  -0.880   5.352
  110SBC   C0BA77044   2.085  -0.677   5.485
  110SBC   C0B477045   2.180  -0.628   5.396
  110SBC   C0B377046   2.226  -0.704   5.288
  110SBC   C0B577047   2.234  -0.504   5.422
  110SBC   C0BU77048   2.193  -0.433   5.540
  110SBC   C0BT77049   2.100  -0.483   5.632
  110SBC   C0BS77050   2.066  -0.415   5.754
  110SBC   C0CC77051   1.981  -0.475   5.846
  110SBC   C0CB77052   1.940  -0.411   5.967
  110SBC   C0CH77053   1.841  -0.470   6.039
  110SBC   C0DO77054   1.807  -0.606   6.022
  110SBC   C0DP77055   1.742  -0.676   6.123
  110SBC   C0EA77056   1.699  -0.613   6.249
  110SBC   H01277057   1.705  -0.506   6.260
  110SBC   O00977058   1.647  -0.685   6.355
  110SBC   C0EH77059   1.647  -0.820   6.340
  110SBC   C0EG77060   1.589  -0.888   6.448
  110SBC   C0EJ77061   1.535  -0.846   6.574
  110SBC   H01077062   1.539  -0.748   6.620
  110SBC   C0EK77063   1.487  -0.966   6.650
  110SBC   H00Z77064   1.459  -0.971   6.754
  110SBC   C0EL77065   1.501  -1.076   6.555
  110SBC   C0EM77066   1.456  -1.215   6.554
  110SBC   C0EW77067   1.388  -1.280   6.659
  110SBC   H01377068   1.371  -1.230   6.754
  110SBC   C0EX77069   1.343  -1.416   6.643
  110SBC   H01477070   1.285  -1.474   6.714
  110SBC   C0F177071   1.359  -1.487   6.515
  110SBC   C0EU77072   1.431  -1.420   6.420
  110SBC   C0ET77073   1.461  -1.465   6.291
  110SBC   C0ES77074   1.533  -1.351   6.233
  110SBC   C0EE77075   1.548  -1.242   6.317
  110SBC   C0ED77076   1.588  -1.100   6.314
  110SBC   C0EC77077   1.636  -1.024   6.203
  110SBC   C0EB77078   1.648  -1.076   6.074
  110SBC   C0EN77079   1.591  -1.209   6.036
  110SBC   C0ER77080   1.583  -1.241   5.904
  110SBC   C0DS77081   1.705  -1.004   5.968
  110SBC   C0DR77082   1.757  -0.877   5.991
  110SBC   C0EY77083   1.531  -1.324   6.099
  110SBC   C0EZ77084   1.506  -1.430   6.003
  110SBC   C0F577085   1.469  -1.571   5.999
  110SBC   C0F677086   1.424  -1.641   6.108
  110SBC   N00877087   1.384  -1.775   6.076
  110SBC   C0F777088   1.408  -1.844   5.950
  110SBC   C0FQ77089   1.371  -1.978   5.937
  110SBC   H01877090   1.391  -2.029   5.845
  110SBC   C0FP77091   1.289  -2.040   6.025
  110SBC   H01977092   1.246  -2.138   6.010
  110SBC   C0FO77093   1.265  -1.975   6.143
  110SBC   H01A77094   1.203  -2.025   6.216
  110SBC   C0F877095   1.481  -1.768   5.857
  110SBC   C0F977096   1.321  -1.851   6.178
  110SBC   C0FA77097   1.305  -1.797   6.310
  110SBC   H01577098   1.243  -1.850   6.381
  110SBC   C0FB77099   1.346  -1.666   6.340
  110SBC   C0FD77100   1.413  -1.592   6.242
  110SBC   C0FC77101   1.310  -1.618   6.472
  110SBC   O00A77102   1.249  -1.694   6.549
  110SBC   C0EV77103   1.478  -1.288   6.435
  110SBC   C0EF77104   1.569  -1.027   6.440
  110SBC   C0EI77105   1.668  -0.886   6.216
  110SBC   C0DQ77106   1.722  -0.812   6.111
  110SBC   C0CE77107   1.854  -0.669   5.908
  110SBC   H00U77108   1.796  -0.416   6.120
  110SBC   C0CA77109   2.006  -0.283   6.006
  110SBC   C0C977110   2.076  -0.210   5.898
  110SBC   C0C877111   2.071  -0.070   5.909
  110SBC   C0C777112   2.151   0.036   5.847
  110SBC   C0C677113   2.115   0.164   5.881
  110SBC   C0C577114   2.185   0.294   5.898
  110SBC   C0CQ77115   2.134   0.389   5.991
  110SBC   C0D177116   2.046   0.338   6.086
  110SBC   C0D877117   2.066   0.391   6.206
  110SBC   C0D777118   2.161   0.493   6.191
  110SBC   C0D677119   2.216   0.566   6.295
  110SBC   C0D577120   2.296   0.677   6.258
  110SBC   C0D477121   2.401   0.703   6.167
  110SBC   C0D377122   2.405   0.844   6.132
  110SBC   C0CX77123   2.447   0.859   5.998
  110SBC   C0CW77124   2.456   0.728   5.942
  110SBC   C0CV77125   2.494   0.659   5.816
  110SBC   C0D277126   2.586   0.723   5.730
  110SBC   C09D77127   2.650   0.848   5.749
  110SBC   C09C77128   2.751   0.892   5.663
  110SBC   C09B77129   2.818   1.015   5.661
  110SBC   C09A77130   2.787   1.100   5.769
  110SBC   C09977131   2.708   1.056   5.868
  110SBC   C09877132   2.660   1.167   5.938
  110SBC   C08Y77133   2.693   1.286   5.862
  110SBC   C08X77134   2.638   1.427   5.864
  110SBC   C08W77135   2.539   1.459   5.962
  110SBC   C08U77136   2.466   1.369   6.052
  110SBC   C08V77137   2.461   1.223   6.065
  110SBC   C0DC77138   2.452   1.209   6.210
  110SBC   H00W77139   2.471   1.108   6.243
  110SBC   C0DB77140   2.409   1.333   6.270
  110SBC   H00X77141   2.373   1.337   6.372
  110SBC   C08T77142   2.421   1.432   6.168
  110SBC   C08S77143   2.388   1.563   6.184
  110SBC   H00N77144   2.346   1.599   6.276
  110SBC   C08R77145   2.418   1.649   6.080
  110SBC   C08Q77146   2.376   1.789   6.073
  110SBC   H00O77147   2.305   1.824   6.146
  110SBC   C08P77148   2.403   1.876   5.970
  110SBC   C08O77149   2.359   2.012   5.965
  110SBC   H00P77150   2.312   2.058   6.051
  110SBC   C08N77151   2.386   2.096   5.850
  110SBC   C08M77152   2.331   2.228   5.843
  110SBC   O00877153   2.274   2.288   5.935
  110SBC   O00777154   2.350   2.297   5.727
  110SBC   C08H77155   2.435   2.257   5.628
  110SBC   C08G77156   2.458   2.328   5.507
  110SBC   C03V77157   2.411   2.455   5.466
  110SBC   H00977158   2.346   2.507   5.535
  110SBC   C03U77159   2.443   2.517   5.342
  110SBC   C03W77160   2.386   2.640   5.298
  110SBC   H00A77161   2.324   2.692   5.369
  110SBC   C03X77162   2.404   2.689   5.170
  110SBC   H00B77163   2.357   2.783   5.148
  110SBC   O00577164   2.492   2.622   5.084
  110SBC   C03O77165   2.547   2.502   5.123
  110SBC   C03N77166   2.620   2.426   5.034
  110SBC   O00077167   2.622   2.476   4.908
  110SBC   C01977168   2.695   2.417   4.815
  110SBC   C01877169   2.764   2.295   4.836
  110SBC   C01777170   2.751   2.236   4.967
  110SBC   C01677171   2.808   2.114   4.996
  110SBC   C01577172   2.873   2.060   4.883
  110SBC   C01477173   2.920   1.928   4.895
  110SBC   C01377174   2.900   1.858   5.019
  110SBC   C01277175   2.964   1.729   4.991
  110SBC   C01177176   3.012   1.742   4.855
  110SBC   C01077177   3.096   1.655   4.801
  110SBC   C00Z77178   3.151   1.652   4.676
  110SBC   C00Y77179   3.199   1.516   4.663
  110SBC   C01O77180   3.177   1.448   4.780
  110SBC   C01P77181   3.163   1.309   4.782
  110SBC   C02L77182   3.106   1.265   4.892
  110SBC   C02K77183   3.066   1.354   4.995
  110SBC   C01M77184   3.052   1.499   4.982
  110SBC   C02J77185   3.032   1.292   5.116
  110SBC   C02I77186   3.004   1.353   5.237
  110SBC   C02H77187   2.982   1.487   5.270
  110SBC   C01Q77188   2.961   1.605   5.192
  110SBC   C02G77189   2.905   1.709   5.272
  110SBC   C08977190   2.911   1.663   5.400
  110SBC   C08877191   2.806   1.728   5.464
  110SBC   C08777192   2.779   1.846   5.380
  110SBC   C08677193   2.693   1.947   5.416
  110SBC   C03S77194   2.672   2.068   5.343
  110SBC   N00677195   2.591   2.145   5.425
  110SBC   C08F77196   2.565   2.081   5.540
  110SBC   C01J77197   2.711   2.124   5.220
  110SBC   C03R77198   2.655   2.250   5.186
  110SBC   C03Q77199   2.567   2.320   5.278
  110SBC   C08E77200   2.620   1.957   5.540
  110SBC   C08D77201   2.599   1.862   5.647
  110SBC   C08K77202   2.509   1.906   5.752
  110SBC   C08C77203   2.654   1.734   5.668
  110SBC   C09177204   2.618   1.651   5.774
  110SBC   C09277205   2.529   1.692   5.879
  110SBC   C08B77206   2.753   1.666   5.593
  110SBC   C09077207   2.772   1.538   5.662
  110SBC   C09477208   2.865   1.432   5.621
  110SBC   C09577209   2.852   1.299   5.659
  110SBC   C09R77210   2.904   1.215   5.564
  110SBC   C09777211   2.944   1.290   5.461
  110SBC   C09677212   2.916   1.421   5.490
  110SBC   C01I77213   2.847   1.838   5.251
  110SBC   C08A77214   2.942   1.521   5.398
  110SBC   C09L77215   2.984   1.254   5.333
  110SBC   C09K77216   3.006   1.130   5.266
  110SBC   C09J77217   2.975   1.005   5.324
  110SBC   C09I77218   2.961   0.883   5.246
  110SBC   C09O77219   2.986   0.829   5.115
  110SBC   C09N77220   3.040   0.912   5.012
  110SBC   C09M77221   3.055   1.057   5.017
  110SBC   C06O77222   3.076   0.839   4.895
  110SBC   C05M77223   3.059   0.701   4.885
  110SBC   C06P77224   2.987   0.632   4.981
  110SBC   C04277225   3.095   0.630   4.769
  110SBC   C04177226   3.156   0.697   4.662
  110SBC   C04077227   3.183   0.627   4.542
  110SBC   C03Z77228   3.227   0.700   4.427
  110SBC   C03Y77229   3.250   0.839   4.434
  110SBC   C02777230   3.288   0.907   4.316
  110SBC   C02677231   3.296   1.048   4.322
  110SBC   C02877232   3.318   1.119   4.205
  110SBC   C02977233   3.330   1.053   4.084
  110SBC   C02B77234   3.328   1.127   3.968
  110SBC   C02C77235   3.333   1.061   3.849
  110SBC   C02X77236   3.339   1.134   3.732
  110SBC   C03E77237   3.321   1.071   3.613
  110SBC   C03G77238   3.294   0.937   3.600
  110SBC   C04Q77239   3.303   0.864   3.716
  110SBC   C04R77240   3.281   0.723   3.711
  110SBC   C04S77241   3.288   0.644   3.829
  110SBC   C04L77242   3.303   0.712   3.951
  110SBC   C04M77243   3.321   0.851   3.955
  110SBC   C04K77244   3.283   0.639   4.070
  110SBC   C04F77245   3.265   0.503   4.061
  110SBC   C04E77246   3.254   0.434   3.938
  110SBC   C04D77247   3.235   0.294   3.933
  110SBC   C05077248   3.207   0.233   3.809
  110SBC   C05177249   3.180   0.096   3.806
  110SBC   C05Q77250   3.140   0.037   3.687
  110SBC   C05V77251   3.108  -0.095   3.686
  110SBC   N00577252   3.077  -0.157   3.564
  110SBC   C07V77253   3.069  -0.078   3.447
  110SBC   C08277254   3.036  -0.141   3.326
  110SBC   C08177255   3.028  -0.275   3.308
  110SBC   C07C77256   3.034  -0.351   3.423
  110SBC   C07B77257   3.031  -0.494   3.416
  110SBC   C08077258   2.996  -0.553   3.295
  110SBC   C07Z77259   2.980  -0.691   3.293
  110SBC   H00L77260   2.944  -0.739   3.204
  110SBC   C07977261   3.002  -0.778   3.401
  110SBC   C07877262   3.046  -0.716   3.515
  110SBC   C07777263   3.063  -0.793   3.638
  110SBC   C07X77264   3.043  -0.932   3.636
  110SBC   H00I77265   3.037  -0.997   3.721
  110SBC   C07Y77266   3.001  -0.994   3.516
  110SBC   H00H77267   2.985  -1.100   3.506
  110SBC   C07677268   3.081  -0.730   3.757
  110SBC   C06C77269   3.103  -0.804   3.877
  110SBC   H00C77270   3.115  -0.911   3.888
  110SBC   C06F77271   3.085  -0.588   3.768
  110SBC   C06E77272   3.086  -0.520   3.889
  110SBC   C06G77273   3.090  -0.388   3.908
  110SBC   C06H77274   3.088  -0.311   3.790
  110SBC   C06I77275   3.072  -0.372   3.664
  110SBC   C06L77276   3.091  -0.334   4.039
  110SBC   C06M77277   3.067  -0.407   4.161
  110SBC   C06K77278   3.115  -0.192   4.044
  110SBC   C05S77279   3.133  -0.118   3.928
  110SBC   C05U77280   3.128  -0.130   4.167
  110SBC   C05X77281   3.088  -0.201   4.288
  110SBC   C05G77282   3.085  -0.106   4.398
  110SBC   C05F77283   3.127   0.026   4.390
  110SBC   C05E77284   3.113   0.095   4.510
  110SBC   C04877285   3.136   0.234   4.524
  110SBC   C05677286   3.092   0.290   4.635
  110SBC   C04577287   3.109   0.425   4.647
  110SBC   C04777288   3.182   0.290   4.409
  110SBC   C04977289   3.190   0.219   4.282
  110SBC   C04B77290   3.220   0.290   4.170
  110SBC   C04677291   3.194   0.425   4.412
  110SBC   C04H77292   3.235   0.497   4.299
  110SBC   C05D77293   3.051   0.014   4.602
  110SBC   C04A77294   3.177   0.081   4.275
  110SBC   C05T77295   3.164   0.009   4.161
  110SBC   C05577296   3.185   0.086   4.048
  110SBC   C06D77297   3.084  -0.600   4.003
  110SBC   C07W77298   3.073  -0.509   3.651
  110SBC   C08577299   2.980  -0.918   3.400
  110SBC   H00M77300   2.954  -0.972   3.310
  110SBC   C08477301   2.984  -0.470   3.182
  110SBC   H00J77302   2.951  -0.525   3.095
  110SBC   C07A77303   3.048  -0.575   3.530
  110SBC   C08377304   3.001  -0.339   3.191
  110SBC   H00K77305   2.994  -0.268   3.110
  110SBC   O00K77306   3.024  -0.061   3.211
  110SBC   C0GO77307   3.044   0.075   3.222
  110SBC   C0GN77308   3.034   0.146   3.106
  110SBC   H01L77309   2.996   0.106   3.014
  110SBC   C0GM77310   3.076   0.284   3.099
  110SBC   C0GL77311   3.078   0.344   2.978
  110SBC   H01M77312   3.043   0.286   2.894
  110SBC   O00J77313   3.088   0.486   2.970
  110SBC   C0GK77314   3.111   0.545   3.094
  110SBC   H01N77315   3.123   0.651   3.080
  110SBC   C05K77316   3.131   0.475   3.213
  110SBC   C05J77317   3.168   0.545   3.340
  110SBC   C04Y77318   3.182   0.684   3.357
  110SBC   C04X77319   3.227   0.748   3.478
  110SBC   O00677320   3.150   0.764   3.254
  110SBC   C05377321   3.166   0.900   3.255
  110SBC   C04O77322   3.223   0.967   3.369
  110SBC   C03C77323   3.253   1.107   3.380
  110SBC   C03B77324   3.226   1.221   3.296
  110SBC   C05477325   3.147   1.225   3.181
  110SBC   C0GR77326   3.111   1.340   3.115
  110SBC   C03M77327   3.108   1.484   3.140
  110SBC   C03I77328   3.150   1.546   3.267
  110SBC   C03J77329   3.129   1.686   3.279
  110SBC   N00277330   3.152   1.752   3.401
  110SBC   C02U77331   3.125   1.894   3.417
  110SBC   C02T77332   3.129   1.959   3.540
  110SBC   C02Z77333   3.092   2.089   3.552
  110SBC   N00177334   3.087   2.157   3.673
  110SBC   C02R77335   3.033   2.293   3.686
  110SBC   C03277336   2.996   2.360   3.568
  110SBC   C03177337   2.999   2.288   3.448
  110SBC   H00777338   2.991   2.345   3.357
  110SBC   C03377339   2.948   2.493   3.589
  110SBC   H00377340   2.922   2.557   3.506
  110SBC   O00477341   2.942   2.549   3.714
  110SBC   C03477342   2.996   2.480   3.825
  110SBC   C03577343   2.988   2.547   3.946
  110SBC   C03677344   3.061   2.488   4.054
  110SBC   H00577345   3.051   2.542   4.146
  110SBC   C03777346   3.112   2.357   4.039
  110SBC   H00677347   3.166   2.309   4.119
  110SBC   C00D77348   3.094   2.284   3.922
  110SBC   C00C77349   3.114   2.146   3.911
  110SBC   C00B77350   3.154   2.067   4.027
  110SBC   C00A77351   3.145   2.063   4.179
  110SBC   C00977352   3.209   1.945   4.213
  110SBC   C00877353   3.189   1.876   4.337
  110SBC   C00777354   3.116   1.939   4.441
  110SBC   C00677355   3.096   1.867   4.565
  110SBC   C00577356   3.025   1.928   4.671
  110SBC   C00477357   2.965   2.057   4.651
  110SBC   C00377358   2.971   2.115   4.521
  110SBC   C00277359   2.904   2.233   4.491
  110SBC   C01C77360   2.836   2.293   4.601
  110SBC   C01B77361   2.775   2.416   4.584
  110SBC   H00077362   2.779   2.480   4.497
  110SBC   C00177363   2.899   2.280   4.358
  110SBC   C00077364   2.960   2.201   4.257
  110SBC   C01U77365   2.871   2.221   4.146
  110SBC   H00277366   2.873   2.177   4.047
  110SBC   C01T77367   2.794   2.344   4.177
  110SBC   O00277368   2.737   2.423   4.101
  110SBC   O00177369   2.803   2.357   4.313
  110SBC   C01S77370   3.051   2.058   4.421
  110SBC   C00N77371   3.225   1.741   4.333
  110SBC   C00M77372   3.268   1.676   4.218
  110SBC   C00J77373   3.283   1.739   4.101
  110SBC   C00I77374   3.296   1.681   3.979
  110SBC   C00H77375   3.258   1.754   3.865
  110SBC   C00G77376   3.223   1.884   3.873
  110SBC   C00F77377   3.176   1.953   3.767
  110SBC   C01X77378   3.248   1.689   3.747
  110SBC   C01W77379   3.270   1.549   3.741
  110SBC   C01V77380   3.298   1.476   3.855
  110SBC   C02077381   3.318   1.337   3.854
  110SBC   C01Z77382   3.266   1.484   3.619
  110SBC   C02Y77383   3.303   1.350   3.623
  110SBC   C03977384   3.302   1.285   3.498
  110SBC   C02W77385   3.221   1.547   3.503
  110SBC   C01Y77386   3.210   1.756   3.633
  110SBC   C00U77387   3.301   1.543   3.977
  110SBC   C00S77388   3.309   1.469   4.091
  110SBC   C00T77389   3.312   1.334   4.088
  110SBC   C00R77390   3.286   1.536   4.214
  110SBC   C00Q77391   3.276   1.463   4.327
  110SBC   C00V77392   3.288   1.324   4.322
  110SBC   C02477393   3.263   1.249   4.439
  110SBC   C00X77394   3.238   1.310   4.555
  110SBC   C00P77395   3.239   1.530   4.441
  110SBC   C00O77396   3.209   1.668   4.450
  110SBC   C00K77397   3.258   1.876   4.105
  110SBC   N00077398   3.051   2.103   4.284
  110SBC   C00L77399   3.221   1.950   3.994
  110SBC   H00477400   2.937   2.642   3.958
  110SBC   C02Q77401   3.046   2.349   3.809
  110SBC   C00E77402   3.123   2.081   3.785
  110SBC   C03077403   3.042   2.156   3.438
  110SBC   O00377404   3.039   2.094   3.319
  110SBC   C02S77405   3.183   1.893   3.642
  110SBC   C03877406   3.075   1.961   3.311
  110SBC   C03L77407   3.062   1.898   3.192
  110SBC   H00877408   3.029   1.957   3.108
  110SBC   C02V77409   3.197   1.684   3.516
  110SBC   C03K77410   3.076   1.757   3.173
  110SBC   C0BK77411   3.034   1.693   3.057
  110SBC   H00T77412   2.990   1.750   2.976
  110SBC   C03H77413   3.202   1.476   3.380
  110SBC   C0BL77414   3.050   1.556   3.033
  110SBC   C0GU77415   3.023   1.500   2.911
  110SBC   H01O77416   2.997   1.572   2.834
  110SBC   C0GT77417   3.014   1.369   2.880
  110SBC   H01P77418   2.988   1.322   2.786
  110SBC   C0GS77419   3.053   1.295   2.990
  110SBC   C0GV77420   3.057   1.151   2.979
  110SBC   C0GW77421   3.026   1.061   2.876
  110SBC   H01Q77422   2.994   1.100   2.780
  110SBC   C0GX77423   3.042   0.930   2.914
  110SBC   H01R77424   3.018   0.853   2.843
  110SBC   O00L77425   3.073   0.884   3.041
  110SBC   C0GQ77426   3.111   1.109   3.108
  110SBC   C03A77427   3.240   1.335   3.382
  110SBC   C05L77428   3.122   0.972   3.136
  110SBC   C04W77429   3.185   0.472   3.460
  110SBC   C05I77430   3.157   0.334   3.461
  110SBC   C05O77431   3.120   0.274   3.345
  110SBC   C05277432   3.170   0.253   3.574
  110SBC   C04V77433   3.228   0.525   3.582
  110SBC   C04U77434   3.237   0.446   3.700
  110SBC   N00977435   3.116   0.341   3.220
  110SBC   C0GP77436   3.089   0.137   3.342
  110SBC   C05W77437   3.098   0.059   3.456
  110SBC   C07D77438   3.059  -0.296   3.548
  110SBC   C06J77439   3.110  -0.175   3.800
  110SBC   C05P77440   3.133   0.118   3.570
  110SBC   C05R77441   3.164   0.022   3.926
  110SBC   C04Z77442   3.203   0.313   3.695
  110SBC   C04C77443   3.216   0.223   4.051
  110SBC   C04G77444   3.242   0.430   4.179
  110SBC   C04J77445   3.281   0.705   4.186
  110SBC   C04T77446   3.266   0.508   3.824
  110SBC   N00377447   3.249   0.663   3.588
  110SBC   C04P77448   3.246   0.884   3.481
  110SBC   C03D77449   3.311   1.147   3.498
  110SBC   C02177450   3.329   1.275   3.735
  110SBC   C03F77451   3.329   0.925   3.838
  110SBC   C02277452   3.325   1.267   3.971
  110SBC   C02A77453   3.320   0.913   4.081
  110SBC   C02377454   3.310   1.254   4.206
  110SBC   C02577455   3.266   1.109   4.442
  110SBC   C02D77456   3.230   1.040   4.555
  110SBC   C02E77457   3.190   1.107   4.669
  110SBC   C02N77458   3.133   1.048   4.786
  110SBC   C04N77459   3.293   0.839   4.195
  110SBC   C02P77460   3.218   0.904   4.552
  110SBC   C04I77461   3.247   0.637   4.304
  110SBC   C04477462   3.165   0.493   4.534
  110SBC   C04377463   3.172   0.838   4.666
  110SBC   C05N77464   3.130   0.909   4.784
  110SBC   C09U77465   2.949   0.696   5.096
  110SBC   C09V77466   2.877   0.623   5.193
  110SBC   C09X77467   2.839   0.680   5.307
  110SBC   C09Y77468   2.749   0.631   5.400
  110SBC   C0A177469   2.701   0.504   5.380
  110SBC   C0A277470   2.749   0.438   5.268
  110SBC   C0A477471   2.716   0.308   5.247
  110SBC   C07177472   2.769   0.237   5.138
  110SBC   C0A577473   2.743   0.105   5.128
  110SBC   C0A977474   2.656   0.042   5.213
  110SBC   C0A877475   2.607   0.114   5.323
  110SBC   C0AP77476   2.532   0.050   5.421
  110SBC   C0BY77477   2.494   0.122   5.527
  110SBC   C0BX77478   2.511   0.256   5.549
  110SBC   C0C277479   2.459   0.328   5.655
  110SBC   C0C377480   2.492   0.461   5.676
  110SBC   C0CT77481   2.574   0.522   5.585
  110SBC   C0C177482   2.363   0.262   5.738
  110SBC   C0C077483   2.347   0.116   5.721
  110SBC   C0A777484   2.587   0.319   5.458
  110SBC   C0BZ77485   2.411   0.059   5.617
  110SBC   C0BO77486   2.379  -0.077   5.611
  110SBC   C0BN77487   2.412  -0.145   5.497
  110SBC   C0BM77488   2.348  -0.265   5.482
  110SBC   C0B977489   2.376  -0.328   5.359
  110SBC   C0B877490   2.466  -0.272   5.272
  110SBC   C0AD77491   2.524  -0.144   5.287
  110SBC   C0AF77492   2.506  -0.344   5.157
  110SBC   C0AG77493   2.454  -0.470   5.124
  110SBC   C0B777494   2.358  -0.523   5.214
  110SBC   C0AE77495   2.593  -0.278   5.075
  110SBC   C0AB77496   2.657  -0.158   5.093
  110SBC   C0AA77497   2.750  -0.104   5.003
  110SBC   C0AJ77498   2.637  -0.351   4.969
  110SBC   C0AK77499   2.745  -0.303   4.890
  110SBC   C06W77500   2.783  -0.397   4.804
  110SBC   C0AI77501   2.604  -0.483   4.935
  110SBC   C0BP77502   2.282  -0.114   5.707
  110SBC   C0BQ77503   2.206  -0.231   5.680
  110SBC   C0BW77504   2.487  -0.080   5.400
  110SBC   C0AC77505   2.613  -0.089   5.200
  110SBC   C0A677506   2.640   0.248   5.347
  110SBC   C0A377507   2.619   0.452   5.474
  110SBC   C09Z77508   2.718   0.696   5.521
  110SBC   C09W77509   2.839   0.495   5.171
  110SBC   C07277510   2.881   0.429   5.061
  110SBC   C09H77511   2.896   0.801   5.338
  110SBC   C09G77512   2.868   0.861   5.457
  110SBC   C09P77513   2.917   0.986   5.453
  110SBC   C02O77514   3.027   1.147   5.128
  110SBC   C02M77515   3.101   1.123   4.899
  110SBC   C02F77516   3.201   1.242   4.672
  110SBC   C00W77517   3.225   1.449   4.550
  110SBC   C01R77518   3.153   1.731   4.566
  110SBC   C01N77519   3.115   1.534   4.859
  110SBC   C01L77520   2.990   1.606   5.059
  110SBC   C01H77521   2.839   1.915   5.132
  110SBC   C01K77522   2.993   1.865   4.794
  110SBC   C01E77523   2.893   2.116   4.754
  110SBC   C01G77524   2.792   2.056   5.123
  110SBC   C01D77525   2.835   2.238   4.732
  110SBC   C01A77526   2.698   2.479   4.693
  110SBC   H00177527   2.638   2.567   4.678
  110SBC   C01F77528   2.678   2.302   5.063
  110SBC   C03P77529   2.522   2.445   5.251
  110SBC   C03T77530   2.534   2.266   5.404
  110SBC   C08I77531   2.488   2.125   5.640
  110SBC   C08J77532   2.461   2.042   5.743
  110SBC   C08L77533   2.477   1.823   5.866
  110SBC   C09377534   2.496   1.600   5.973
  110SBC   C08Z77535   2.681   1.526   5.772
  110SBC   C09T77536   2.530   1.121   5.985
  110SBC   C09S77537   2.789   1.241   5.771
  110SBC   C09Q77538   2.890   1.075   5.557
  110SBC   C09F77539   2.777   0.816   5.554
  110SBC   C09E77540   2.622   0.944   5.853
  110SBC   C0A077541   2.624   0.650   5.612
  110SBC   C0CU77542   2.442   0.528   5.791
  110SBC   C0CR77543   2.353   0.464   5.876
  110SBC   C0CZ77544   2.319   0.526   5.996
  110SBC   C0DA77545   2.512   0.973   5.939
  110SBC   C0D977546   2.295   0.911   6.209
  110SBC   H00V77547   2.266   1.014   6.192
  110SBC   C0CY77548   2.405   0.636   6.041
  110SBC   C0DF77549   2.228   0.802   6.285
  110SBC   C0DE77550   2.130   0.761   6.382
  110SBC   C0GI77551   2.055   0.833   6.479
  110SBC   H01K77552   2.063   0.941   6.487
  110SBC   C0GJ77553   1.969   0.760   6.556
  110SBC   H01J77554   1.909   0.813   6.629
  110SBC   O00I77555   1.957   0.619   6.558
  110SBC   C0GH77556   2.019   0.549   6.455
  110SBC   C0GG77557   1.989   0.409   6.442
  110SBC   O00G77558   1.920   0.344   6.547
  110SBC   C0G877559   1.927   0.212   6.551
  110SBC   C0G977560   1.890   0.164   6.674
  110SBC   H01G77561   1.878   0.226   6.762
  110SBC   C0GA77562   1.885   0.030   6.694
  110SBC   H01H77563   1.856   0.001   6.794
  110SBC   C0GB77564   1.901  -0.057   6.587
  110SBC   C0EP77565   1.928  -0.006   6.455
  110SBC   C0E877566   1.951  -0.102   6.349
  110SBC   C0CK77567   1.992  -0.106   6.207
  110SBC   C0CL77568   1.979   0.006   6.127
  110SBC   C0E977569   1.978   0.140   6.182
  110SBC   C0GE77570   1.980   0.204   6.316
  110SBC   C0E777571   1.949  -0.234   6.379
  110SBC   C0CJ77572   1.975  -0.320   6.270
  110SBC   C0E677573   1.981  -0.458   6.290
  110SBC   H00Y77574   2.015  -0.530   6.217
  110SBC   C0EO77575   1.940  -0.506   6.414
  110SBC   H01177576   1.935  -0.613   6.430
  110SBC   C0G677577   1.905  -0.424   6.523
  110SBC   C0G577578   1.856  -0.469   6.657
  110SBC   H01F77579   1.864  -0.573   6.684
  110SBC   C0GD77580   1.834  -0.381   6.756
  110SBC   H01I77581   1.810  -0.421   6.854
  110SBC   O00H77582   1.840  -0.244   6.731
  110SBC   C0EQ77583   1.918  -0.288   6.507
  110SBC   C0GC77584   1.882  -0.202   6.609
  110SBC   C0G777585   1.937   0.133   6.438
  110SBC   C0DD77586   2.118   0.621   6.382
  110SBC   C0GF77587   2.013   0.339   6.324
  110SBC   C0CO77588   1.993   0.219   6.072
  110SBC   C0D077589   2.217   0.468   6.063
  110SBC   C0C477590   2.302   0.334   5.838
  110SBC   C0CN77591   2.000   0.142   5.955
  110SBC   C0CP77592   2.265   0.010   5.779
  110SBC   C0CM77593   1.973   0.008   5.986
  110SBC   C0CI77594   1.991  -0.241   6.151
  110SBC   C0CD77595   1.933  -0.604   5.815
  110SBC   C0BR77596   2.114  -0.281   5.776
  110SBC   C0CS77597   2.250  -0.311   5.571
  110SBC   C0B677598   2.324  -0.456   5.328
  110SBC   C0CG77599   2.049  -0.613   5.606
  110SBC   C0CF77600   1.962  -0.670   5.694
  110SBC   C0E577601   1.822  -0.803   5.889
  110SBC   C0DT77602   1.717  -1.056   5.837
  110SBC   C0DL77603   1.900  -0.996   5.529
  110SBC   C0DM77604   1.945  -1.070   5.420
  110SBC   C0DY77605   1.793  -1.252   5.475
  110SBC   C0DU77606   1.659  -1.176   5.804
  110SBC   C0F077607   1.542  -1.367   5.887
  110SBC   C0F477608   1.490  -1.625   5.870
  110SBC   C0FG77609   1.569  -1.537   5.521
  110SBC   O00B77610   1.531  -1.831   5.737
  110SBC   C0FN77611   1.613  -1.628   5.434
  110SBC   C0DZ77612   1.732  -1.374   5.446
  110SBC   O00C77613   1.948  -1.485   5.176
  110SBC   C0FR77614   2.043  -1.442   5.088
  110SBC   O00D77615   2.084  -1.527   5.010
  110SBC   C0E077616   1.892  -1.198   5.395
  110SBC   C0E377617   2.094  -1.306   5.104
  110SBC   C0AW77618   2.192  -1.252   5.026
  110SBC   C0AV77619   2.252  -1.321   4.909
  110SBC   H00Q77620   2.229  -1.425   4.888
  110SBC   C0AU77621   2.341  -1.251   4.825
  110SBC   H00R77622   2.395  -1.313   4.755
  110SBC   C0AT77623   2.362  -1.111   4.844
  110SBC   C0AS77624   2.412  -1.001   4.767
  110SBC   C0AR77625   2.436  -0.998   4.628
  110SBC   C0BE77626   2.310  -1.055   4.961
  110SBC   C0DN77627   2.037  -1.014   5.336
  110SBC   C0AX77628   2.232  -1.123   5.053
  110SBC   C0BB77629   2.170  -0.829   5.266
  110SBC   C0BD77630   2.344  -0.924   4.970
  110SBC   C0B277631   2.314  -0.650   5.194
  110SBC   C0AH77632   2.501  -0.548   5.015
  110SBC   C0BF77633   2.425  -0.883   4.859
  110SBC   C0AL77634   2.698  -0.517   4.829
  110SBC   C07U77635   2.616  -0.809   4.639
  110SBC   C0AQ77636   2.541  -0.915   4.578
  110SBC   C0BG77637   2.379  -1.069   4.513
  110SBC   C0FY77638   2.590  -1.177   4.251
  110SBC   C0BJ77639   2.358  -1.213   4.502
  110SBC   H00S77640   2.329  -1.284   4.579
  110SBC   C0FZ77641   2.590  -1.315   4.257
  110SBC   C07S77642   2.707  -1.100   4.225
  110SBC   C0G177643   2.926  -1.394   4.135
  110SBC   C07K77644   3.181  -1.130   4.089
  110SBC   C07H77645   2.969  -0.978   4.200
  110SBC   C06B77646   3.095  -0.735   3.997
  110SBC   C06N77647   3.072  -0.547   4.131
  110SBC   C06677648   2.868  -0.792   4.345
  110SBC   C06277649   2.882  -0.559   4.552
  110SBC   C05Y77650   3.056  -0.340   4.289
  110SBC   C06177651   2.947  -0.450   4.624
  110SBC   C05H77652   3.057  -0.115   4.537
  110SBC   C06V77653   2.880  -0.363   4.712
  110SBC   C06Y77654   2.796  -0.173   4.898
  110SBC   C05C77655   3.005   0.080   4.723
  110SBC   C06Z77656   2.792   0.031   5.017
  110SBC   C07077657   2.847   0.295   5.042
  110SBC   C05B77658   3.032   0.221   4.736
  110SBC   C05777659   3.074   0.491   4.761
  110SBC   C05977660   2.958   0.494   4.972
  111SBC   C05877661   3.854   1.767   7.909
  111SBC   C05A77662   3.980   1.711   7.884
  111SBC   C06Q77663   4.088   1.766   7.944
  111SBC   C06R77664   4.217   1.716   7.921
  111SBC   C06S77665   4.233   1.594   7.850
  111SBC   C06T77666   4.363   1.534   7.833
  111SBC   C06U77667   4.409   1.400   7.785
  111SBC   C06X77668   4.350   1.298   7.719
  111SBC   C06077669   4.435   1.189   7.697
  111SBC   C05Z77670   4.451   1.097   7.585
  111SBC   C06877671   4.601   1.090   7.568
  111SBC   C06777672   4.676   1.017   7.462
  111SBC   C06977673   4.603   0.937   7.360
  111SBC   C06A77674   4.658   0.876   7.235
  111SBC   C07377675   4.770   0.905   7.154
  111SBC   C07P77676   4.751   0.910   7.014
  111SBC   C07O77677   4.630   0.897   6.943
  111SBC   H00D77678   4.533   0.894   6.991
  111SBC   C07N77679   4.628   0.896   6.801
  111SBC   H00E77680   4.538   0.893   6.741
  111SBC   C07M77681   4.746   0.915   6.735
  111SBC   H00F77682   4.743   0.921   6.627
  111SBC   C07L77683   4.870   0.929   6.798
  111SBC   C07Q77684   4.992   0.956   6.733
  111SBC   H00G77685   4.988   0.979   6.628
  111SBC   O00F77686   5.116   0.968   6.789
  111SBC   C07J77687   5.113   0.951   6.927
  111SBC   C07I77688   4.994   0.932   6.999
  111SBC   N00477689   5.003   0.927   7.145
  111SBC   C07R77690   5.135   0.927   7.202
  111SBC   C07T77691   5.244   0.956   7.121
  111SBC   C0FX77692   5.370   0.977   7.174
  111SBC   C0FW77693   5.479   1.027   7.106
  111SBC   C0G077694   5.458   1.047   6.969
  111SBC   C0G277695   5.563   1.088   6.882
  111SBC   H01E77696   5.556   1.085   6.774
  111SBC   C0G377697   5.687   1.115   6.941
  111SBC   H01C77698   5.773   1.124   6.876
  111SBC   C0G477699   5.694   1.108   7.083
  111SBC   H01D77700   5.792   1.130   7.123
  111SBC   O00E77701   5.347   1.000   6.910
  111SBC   C0FV77702   5.594   1.067   7.173
  111SBC   C0FU77703   5.607   1.047   7.312
  111SBC   H01B77704   5.697   1.082   7.360
  111SBC   C0FT77705   5.504   0.984   7.379
  111SBC   C0FS77706   5.466   0.966   7.517
  111SBC   C0BI77707   5.341   0.895   7.525
  111SBC   C0BH77708   5.272   0.939   7.642
  111SBC   C07F77709   5.151   1.016   7.625
  111SBC   C07E77710   5.039   0.991   7.543
  111SBC   C07G77711   5.042   0.935   7.419
  111SBC   C07477712   4.911   0.946   7.365
  111SBC   C06577713   4.914   1.056   7.563
  111SBC   C06477714   4.912   1.152   7.666
  111SBC   C06377715   4.799   1.221   7.699
  111SBC   C07577716   4.853   1.316   7.796
  111SBC   C0AM77717   4.997   1.309   7.823
  111SBC   C0AN77718   5.087   1.386   7.910
  111SBC   C0AO77719   5.069   1.519   7.987
  111SBC   C0B177720   5.175   1.585   8.055
  111SBC   C0B077721   5.303   1.532   8.063
  111SBC   C0AZ77722   5.416   1.590   8.120
  111SBC   C0AY77723   5.542   1.537   8.107
  111SBC   N00777724   5.654   1.611   8.142
  111SBC   C0E277725   5.781   1.561   8.119
  111SBC   C0E177726   5.885   1.626   8.177
  111SBC   C0E477727   6.017   1.581   8.144
  111SBC   C0FF77728   6.133   1.643   8.197
  111SBC   C0FJ77729   6.279   1.629   8.163
  111SBC   C0FK77730   6.325   1.612   8.027
  111SBC   H01677731   6.266   1.582   7.942
  111SBC   C0FL77732   6.456   1.684   8.030
  111SBC   H01777733   6.513   1.716   7.944
  111SBC   C0FM77734   6.496   1.713   8.164
  111SBC   C0FH77735   6.548   1.840   8.229
  111SBC   C0FI77736   6.452   1.870   8.321
  111SBC   C0F377737   6.431   2.008   8.356
  111SBC   C0F277738   6.312   2.024   8.414
  111SBC   C0DW77739   6.199   1.941   8.403
  111SBC   C0FE77740   6.215   1.812   8.353
  111SBC   C0DV77741   6.076   1.990   8.425
  111SBC   C0DX77742   5.968   1.916   8.381
  111SBC   C0DK77743   5.840   1.978   8.397
  111SBC   C0DJ77744   5.822   2.108   8.447
  111SBC   C0DI77745   5.696   2.166   8.445
  111SBC   C0DH77746   5.584   2.092   8.410
  111SBC   C0DG77747   5.597   1.964   8.359
  111SBC   C0BV77748   5.487   1.896   8.311
  111SBC   C0BC77749   5.507   1.775   8.244
  111SBC   C0BA77750   5.362   1.958   8.317
  111SBC   C0B477751   5.253   1.889   8.264
  111SBC   C0B377752   5.273   1.767   8.198
  111SBC   C0B577753   5.130   1.940   8.283
  111SBC   C0BU77754   5.110   2.061   8.356
  111SBC   C0BT77755   5.223   2.133   8.400
  111SBC   C0BS77756   5.199   2.251   8.465
  111SBC   C0CC77757   5.318   2.324   8.501
  111SBC   C0CB77758   5.304   2.446   8.567
  111SBC   C0CH77759   5.413   2.529   8.532
  111SBC   C0DO77760   5.547   2.487   8.510
  111SBC   C0DP77761   5.659   2.573   8.517
  111SBC   C0EA77762   5.647   2.714   8.524
  111SBC   H01277763   5.550   2.759   8.511
  111SBC   O00977764   5.755   2.801   8.546
  111SBC   C0EH77765   5.877   2.742   8.546
  111SBC   C0EG77766   5.980   2.831   8.566
  111SBC   C0EJ77767   5.994   2.976   8.587
  111SBC   H01077768   5.911   3.044   8.586
  111SBC   C0EK77769   6.129   3.006   8.585
  111SBC   H00Z77770   6.165   3.107   8.597
  111SBC   C0EL77771   6.198   2.884   8.560
  111SBC   C0EM77772   6.336   2.858   8.516
  111SBC   C0EW77773   6.447   2.949   8.503
  111SBC   H01377774   6.433   3.051   8.535
  111SBC   C0EX77775   6.581   2.899   8.468
  111SBC   H01477776   6.661   2.969   8.483
  111SBC   C0F177777   6.600   2.759   8.433
  111SBC   C0EU77778   6.491   2.677   8.438
  111SBC   C0ET77779   6.482   2.539   8.407
  111SBC   C0ES77780   6.346   2.507   8.429
  111SBC   C0EE77781   6.274   2.618   8.466
  111SBC   C0ED77782   6.138   2.649   8.509
  111SBC   C0EC77783   6.030   2.549   8.521
  111SBC   C0EB77784   6.040   2.409   8.507
  111SBC   C0EN77785   6.167   2.342   8.487
  111SBC   C0ER77786   6.169   2.201   8.490
  111SBC   C0DS77787   5.926   2.320   8.503
  111SBC   C0DR77788   5.798   2.377   8.510
  111SBC   C0EY77789   6.302   2.382   8.456
  111SBC   C0EZ77790   6.384   2.264   8.424
  111SBC   C0F577791   6.507   2.236   8.354
  111SBC   C0F677792   6.608   2.337   8.326
  111SBC   N00877793   6.727   2.280   8.268
  111SBC   C0F777794   6.742   2.145   8.221
  111SBC   C0FQ77795   6.867   2.112   8.155
  111SBC   H01877796   6.879   2.013   8.114
  111SBC   C0FP77797   6.977   2.192   8.147
  111SBC   H01977798   7.071   2.158   8.105
  111SBC   C0FO77799   6.955   2.321   8.196
  111SBC   H01A77800   7.041   2.380   8.166
  111SBC   C0F877801   6.635   2.059   8.247
  111SBC   C0F977802   6.840   2.368   8.260
  111SBC   C0FA77803   6.838   2.505   8.297
  111SBC   H01577804   6.927   2.566   8.288
  111SBC   C0FB77805   6.715   2.560   8.347
  111SBC   C0FD77806   6.606   2.477   8.364
  111SBC   C0FC77807   6.720   2.701   8.384
  111SBC   O00A77808   6.818   2.779   8.359
  111SBC   C0EV77809   6.365   2.724   8.478
  111SBC   C0EF77810   6.104   2.781   8.542
  111SBC   C0EI77811   5.899   2.601   8.529
  111SBC   C0DQ77812   5.786   2.515   8.524
  111SBC   C0CE77813   5.559   2.355   8.489
  111SBC   H00U77814   5.388   2.633   8.548
  111SBC   C0CA77815   5.185   2.477   8.636
  111SBC   C0C977816   5.059   2.400   8.606
  111SBC   C0C877817   4.940   2.420   8.689
  111SBC   C0C777818   4.799   2.384   8.669
  111SBC   C0C677819   4.711   2.444   8.766
  111SBC   C0C577820   4.571   2.489   8.782
  111SBC   C0CQ77821   4.543   2.577   8.887
  111SBC   C0D177822   4.647   2.643   8.946
  111SBC   C0D877823   4.612   2.773   8.963
  111SBC   C0D777824   4.473   2.778   8.968
  111SBC   C0D677825   4.383   2.887   8.991
  111SBC   C0D577826   4.241   2.879   8.990
  111SBC   C0D477827   4.156   2.775   8.947
  111SBC   C0D377828   4.030   2.836   8.918
  111SBC   C0CX77829   3.967   2.756   8.811
  111SBC   C0CW77830   4.070   2.659   8.758
  111SBC   C0CV77831   4.088   2.552   8.653
  111SBC   C0D277832   3.981   2.521   8.564
  111SBC   C09D77833   3.858   2.589   8.551
  111SBC   C09C77834   3.759   2.543   8.461
  111SBC   C09B77835   3.627   2.592   8.439
  111SBC   C09A77836   3.595   2.693   8.530
  111SBC   C09977837   3.680   2.752   8.617
  111SBC   C09877838   3.620   2.832   8.704
  111SBC   C08Y77839   3.477   2.814   8.688
  111SBC   C08X77840   3.369   2.847   8.775
  111SBC   C08W77841   3.392   2.913   8.899
  111SBC   C08U77842   3.521   2.944   8.964
  111SBC   C08V77843   3.663   2.912   8.935
  111SBC   C0DC77844   3.738   2.985   9.032
  111SBC   H00W77845   3.845   2.976   9.033
  111SBC   C0DB77846   3.653   3.063   9.118
  111SBC   H00X77847   3.677   3.137   9.192
  111SBC   C08T77848   3.519   3.036   9.073
  111SBC   C08S77849   3.409   3.089   9.130
  111SBC   H00N77850   3.416   3.165   9.207
  111SBC   C08R77851   3.285   3.041   9.089
  111SBC   C08Q77852   3.162   3.080   9.153
  111SBC   H00O77853   3.166   3.161   9.224
  111SBC   C08P77854   3.035   3.031   9.130
  111SBC   C08O77855   2.912   3.065   9.202
  111SBC   H00P77856   2.901   3.141   9.277
  111SBC   C08N77857   2.794   2.996   9.169
  111SBC   C08M77858   2.676   3.021   9.254
  111SBC   O00877859   2.669   3.110   9.341
  111SBC   O00777860   2.563   2.944   9.229
  111SBC   C08H77861   2.555   2.847   9.131
  111SBC   C08G77862   2.438   2.760   9.115
  111SBC   C03V77863   2.314   2.750   9.185
  111SBC   H00977864   2.295   2.815   9.269
  111SBC   C03U77865   2.210   2.663   9.157
  111SBC   C03W77866   2.080   2.649   9.228
  111SBC   H00A77867   2.049   2.723   9.300
  111SBC   C03X77868   1.991   2.552   9.193
  111SBC   H00B77869   1.894   2.549   9.239
  111SBC   O00577870   2.024   2.452   9.112
  111SBC   C03O77871   2.141   2.462   9.038
  111SBC   C03N77872   2.165   2.363   8.933
  111SBC   O00077873   2.068   2.273   8.915
  111SBC   C01977874   2.084   2.173   8.826
  111SBC   C01877875   2.198   2.169   8.742
  111SBC   C01777876   2.293   2.268   8.757
  111SBC   C01677877   2.410   2.271   8.674
  111SBC   C01577878   2.411   2.171   8.575
  111SBC   C01477879   2.514   2.175   8.479
  111SBC   C01377880   2.626   2.262   8.492
  111SBC   C01277881   2.701   2.221   8.376
  111SBC   C01177882   2.625   2.124   8.305
  111SBC   C01077883   2.679   2.063   8.197
  111SBC   C00Z77884   2.620   1.964   8.123
  111SBC   C00Y77885   2.727   1.927   8.039
  111SBC   C01O77886   2.835   2.014   8.054
  111SBC   C01P77887   2.966   1.976   8.022
  111SBC   C02L77888   3.063   2.060   8.074
  111SBC   C02K77889   3.023   2.163   8.164
  111SBC   C01M77890   2.893   2.183   8.217
  111SBC   C02J77891   3.131   2.252   8.191
  111SBC   C02I77892   3.125   2.372   8.259
  111SBC   C02H77893   3.024   2.424   8.344
  111SBC   C01Q77894   2.898   2.375   8.381
  111SBC   C02G77895   2.847   2.454   8.481
  111SBC   C08977896   2.933   2.570   8.490
  111SBC   C08877897   2.920   2.633   8.614
  111SBC   C08777898   2.795   2.560   8.674
  111SBC   C08677899   2.720   2.615   8.781
  111SBC   C03S77900   2.593   2.566   8.829
  111SBC   N00677901   2.561   2.653   8.932
  111SBC   C08F77902   2.663   2.740   8.952
  111SBC   C01J77903   2.501   2.464   8.800
  111SBC   C03R77904   2.383   2.463   8.877
  111SBC   C03Q77905   2.353   2.557   8.986
  111SBC   C08E77906   2.769   2.723   8.860
  111SBC   C08D77907   2.891   2.793   8.874
  111SBC   C08K77908   2.904   2.877   8.988
  111SBC   C08C77909   3.009   2.782   8.793
  111SBC   C09177910   3.128   2.842   8.831
  111SBC   C09277911   3.146   2.908   8.957
  111SBC   C08B77912   3.023   2.719   8.666
  111SBC   C09077913   3.164   2.749   8.627
  111SBC   C09477914   3.226   2.712   8.502
  111SBC   C09577915   3.364   2.695   8.484
  111SBC   C09R77916   3.397   2.598   8.386
  111SBC   C09777917   3.279   2.534   8.352
  111SBC   C09677918   3.176   2.602   8.417
  111SBC   C01I77919   2.750   2.451   8.589
  111SBC   C08A77920   3.049   2.543   8.417
  111SBC   C09L77921   3.252   2.422   8.268
  111SBC   C09K77922   3.342   2.337   8.193
  111SBC   C09J77923   3.480   2.336   8.213
  111SBC   C09I77924   3.568   2.234   8.166
  111SBC   C09O77925   3.565   2.111   8.092
  111SBC   C09N77926   3.447   2.052   8.045
  111SBC   C09M77927   3.311   2.099   8.078
  111SBC   C06O77928   3.460   1.933   7.972
  111SBC   C05M77929   3.592   1.882   7.944
  111SBC   C06P77930   3.707   1.936   7.996
  111SBC   C04277931   3.602   1.761   7.876
  111SBC   C04177932   3.485   1.689   7.839
  111SBC   C04077933   3.504   1.563   7.779
  111SBC   C03Z77934   3.393   1.489   7.742
  111SBC   C03Y77935   3.265   1.532   7.772
  111SBC   C02777936   3.163   1.444   7.753
  111SBC   C02677937   3.037   1.486   7.787
  111SBC   C02877938   2.933   1.398   7.785
  111SBC   C02977939   2.955   1.268   7.739
  111SBC   C02B77940   2.842   1.185   7.732
  111SBC   C02C77941   2.863   1.055   7.694
  111SBC   C02X77942   2.760   0.966   7.701
  111SBC   C03E77943   2.788   0.840   7.666
  111SBC   C03G77944   2.906   0.790   7.630
  111SBC   C04Q77945   3.011   0.873   7.629
  111SBC   C04R77946   3.132   0.832   7.592
  111SBC   C04S77947   3.239   0.916   7.582
  111SBC   C04L77948   3.215   1.048   7.619
  111SBC   C04M77949   3.092   1.093   7.658
  111SBC   C04K77950   3.322   1.135   7.630
  111SBC   C04F77951   3.448   1.088   7.599
  111SBC   C04E77952   3.468   0.956   7.559
  111SBC   C04D77953   3.596   0.915   7.530
  111SBC   C05077954   3.620   0.784   7.486
  111SBC   C05177955   3.749   0.743   7.452
  111SBC   C05Q77956   3.767   0.614   7.411
  111SBC   C05V77957   3.895   0.582   7.370
  111SBC   N00577958   3.915   0.455   7.308
  111SBC   C07V77959   3.808   0.361   7.308
  111SBC   C08277960   3.830   0.235   7.253
  111SBC   C08177961   3.950   0.206   7.184
  111SBC   C07C77962   4.054   0.300   7.182
  111SBC   C07B77963   4.173   0.272   7.111
  111SBC   C08077964   4.188   0.156   7.032
  111SBC   C07Z77965   4.296   0.144   6.952
  111SBC   H00L77966   4.314   0.057   6.890
  111SBC   C07977967   4.400   0.241   6.950
  111SBC   C07877968   4.391   0.350   7.034
  111SBC   C07777969   4.497   0.435   7.044
  111SBC   C07X77970   4.620   0.407   6.975
  111SBC   H00I77971   4.709   0.467   6.973
  111SBC   C07Y77972   4.627   0.297   6.890
  111SBC   H00H77973   4.718   0.293   6.833
  111SBC   C07677974   4.485   0.548   7.128
  111SBC   C06C77975   4.592   0.645   7.131
  111SBC   H00C77976   4.677   0.636   7.065
  111SBC   C06F77977   4.371   0.571   7.198
  111SBC   C06E77978   4.359   0.680   7.278
  111SBC   C06G77979   4.245   0.716   7.338
  111SBC   C06H77980   4.135   0.632   7.326
  111SBC   C06I77981   4.149   0.508   7.263
  111SBC   C06L77982   4.237   0.840   7.411
  111SBC   C06M77983   4.350   0.928   7.436
  111SBC   C06K77984   4.105   0.880   7.451
  111SBC   C05S77985   3.992   0.793   7.421
  111SBC   C05U77986   4.083   1.003   7.510
  111SBC   C05X77987   4.197   1.081   7.552
  111SBC   C05G77988   4.149   1.199   7.619
  111SBC   C05F77989   4.016   1.233   7.624
  111SBC   C05E77990   3.997   1.348   7.694
  111SBC   C04877991   3.873   1.414   7.699
  111SBC   C05677992   3.869   1.535   7.767
  111SBC   C04577993   3.745   1.591   7.781
  111SBC   C04777994   3.767   1.342   7.660
  111SBC   C04977995   3.781   1.213   7.611
  111SBC   C04B77996   3.680   1.127   7.587
  111SBC   C04677997   3.645   1.393   7.685
  111SBC   C04H77998   3.540   1.310   7.660
  111SBC   C05D77999   4.117   1.400   7.736
  111SBC   C04A78000   3.907   1.158   7.582
  111SBC   C05T78001   3.944   1.042   7.526
  111SBC   C05578002   3.835   0.960   7.501
  111SBC   C06D78003   4.463   0.776   7.287
  111SBC   C07W78004   4.264   0.483   7.192
  111SBC   C08578005   4.513   0.220   6.865
  111SBC   H00M78006   4.508   0.139   6.794
  111SBC   C08478007   4.094   0.057   7.042
  111SBC   H00J78008   4.095  -0.043   7.001
  111SBC   C07A78009   4.272   0.369   7.110
  111SBC   C08378010   3.977   0.079   7.114
  111SBC   H00K78011   3.909  -0.004   7.128
  111SBC   O00K78012   3.731   0.140   7.257
  111SBC   C0GO78013   3.605   0.175   7.312
  111SBC   C0GN78014   3.506   0.085   7.309
  111SBC   H01L78015   3.519  -0.016   7.272
  111SBC   C0GM78016   3.374   0.125   7.344
  111SBC   C0GL78017   3.274   0.034   7.333
  111SBC   H01M78018   3.306  -0.066   7.310
  111SBC   O00J78019   3.147   0.059   7.379
  111SBC   C0GK78020   3.128   0.185   7.429
  111SBC   H01N78021   3.029   0.198   7.470
  111SBC   C05K78022   3.222   0.284   7.435
  111SBC   C05J78023   3.192   0.419   7.481
  111SBC   C04Y78024   3.064   0.471   7.533
  111SBC   C04X78025   3.042   0.602   7.571
  111SBC   O00678026   2.967   0.383   7.562
  111SBC   C05378027   2.837   0.422   7.603
  111SBC   C04O78028   2.809   0.557   7.618
  111SBC   C03C78029   2.690   0.617   7.658
  111SBC   C03B78030   2.559   0.566   7.698
  111SBC   C05478031   2.530   0.432   7.725
  111SBC   C0GR78032   2.408   0.387   7.780
  111SBC   C03M78033   2.288   0.450   7.845
  111SBC   C03I78034   2.276   0.594   7.876
  111SBC   C03J78035   2.160   0.629   7.955
  111SBC   N00278036   2.139   0.762   7.992
  111SBC   C02U78037   2.029   0.797   8.075
  111SBC   C02T78038   2.007   0.932   8.115
  111SBC   C02Z78039   1.909   0.963   8.208
  111SBC   N00178040   1.892   1.089   8.256
  111SBC   C02R78041   1.786   1.117   8.347
  111SBC   C03278042   1.714   1.011   8.411
  111SBC   C03178043   1.749   0.879   8.368
  111SBC   H00778044   1.713   0.792   8.421
  111SBC   C03378045   1.614   1.056   8.502
  111SBC   H00378046   1.560   0.979   8.557
  111SBC   O00478047   1.601   1.186   8.543
  111SBC   C03478048   1.674   1.277   8.487
  111SBC   C03578049   1.654   1.407   8.542
  111SBC   C03678050   1.718   1.520   8.483
  111SBC   H00578051   1.708   1.620   8.522
  111SBC   C03778052   1.812   1.491   8.387
  111SBC   H00678053   1.866   1.574   8.344
  111SBC   C00D78054   1.844   1.359   8.338
  111SBC   C00C78055   1.959   1.332   8.262
  111SBC   C00B78056   2.065   1.430   8.226
  111SBC   C00A78057   2.117   1.577   8.246
  111SBC   C00978058   2.221   1.586   8.157
  111SBC   C00878059   2.328   1.681   8.155
  111SBC   C00778060   2.322   1.781   8.252
  111SBC   C00678061   2.415   1.884   8.249
  111SBC   C00578062   2.414   1.981   8.352
  111SBC   C00478063   2.323   1.973   8.460
  111SBC   C00378064   2.228   1.869   8.460
  111SBC   C00278065   2.140   1.852   8.565
  111SBC   C01C78066   2.125   1.958   8.655
  111SBC   C01B78067   2.013   1.964   8.741
  111SBC   H00078068   1.933   1.893   8.746
  111SBC   C00178069   2.060   1.739   8.579
  111SBC   C00078070   2.074   1.640   8.483
  111SBC   C01U78071   2.029   1.520   8.557
  111SBC   H00278072   2.034   1.421   8.514
  111SBC   C01T78073   1.964   1.564   8.685
  111SBC   O00278074   1.912   1.500   8.771
  111SBC   O00178075   1.997   1.695   8.693
  111SBC   C01S78076   2.225   1.776   8.355
  111SBC   C00N78077   2.430   1.662   8.068
  111SBC   C00M78078   2.435   1.552   7.985
  111SBC   C00J78079   2.341   1.456   7.990
  111SBC   C00I78080   2.356   1.326   7.947
  111SBC   C00H78081   2.262   1.227   7.984
  111SBC   C00G78082   2.152   1.251   8.069
  111SBC   C00F78083   2.071   1.158   8.125
  111SBC   C01X78084   2.283   1.098   7.951
  111SBC   C01W78085   2.399   1.066   7.879
  111SBC   C01V78086   2.493   1.165   7.845
  111SBC   C02078087   2.615   1.133   7.789
  111SBC   C01Z78088   2.419   0.936   7.839
  111SBC   C02Y78089   2.535   0.915   7.771
  111SBC   C03978090   2.558   0.785   7.724
  111SBC   C02W78091   2.335   0.830   7.871
  111SBC   C01Y78092   2.200   0.998   7.994
  111SBC   C00U78093   2.475   1.293   7.887
  111SBC   C00S78094   2.577   1.389   7.878
  111SBC   C00T78095   2.699   1.353   7.825
  111SBC   C00R78096   2.551   1.515   7.922
  111SBC   C00Q78097   2.661   1.604   7.929
  111SBC   C00V78098   2.786   1.566   7.874
  111SBC   C02478099   2.892   1.653   7.878
  111SBC   C00X78100   2.875   1.777   7.936
  111SBC   C00P78101   2.643   1.721   7.991
  111SBC   C00O78102   2.533   1.756   8.069
  111SBC   C00K78103   2.226   1.477   8.072
  111SBC   N00078104   2.134   1.663   8.357
  111SBC   C00L78105   2.138   1.383   8.111
  111SBC   H00478106   1.585   1.419   8.624
  111SBC   C02Q78107   1.767   1.253   8.385
  111SBC   C00E78108   1.971   1.197   8.212
  111SBC   C03078109   1.838   0.853   8.268
  111SBC   O00378110   1.859   0.724   8.225
  111SBC   C02S78111   2.091   1.032   8.075
  111SBC   C03878112   1.947   0.696   8.129
  111SBC   C03L78113   1.959   0.569   8.076
  111SBC   H00878114   1.898   0.491   8.118
  111SBC   C02V78115   2.224   0.867   7.949
  111SBC   C03K78116   2.062   0.533   7.990
  111SBC   C0BK78117   2.077   0.402   7.950
  111SBC   H00T78118   1.992   0.339   7.971
  111SBC   C03H78119   2.361   0.698   7.835
  111SBC   C0BL78120   2.184   0.359   7.877
  111SBC   C0GU78121   2.197   0.225   7.839
  111SBC   H01O78122   2.114   0.161   7.865
  111SBC   C0GT78123   2.300   0.166   7.776
  111SBC   H01P78124   2.312   0.060   7.755
  111SBC   C0GS78125   2.403   0.249   7.743
  111SBC   C0GV78126   2.527   0.209   7.679
  111SBC   C0GW78127   2.564   0.087   7.620
  111SBC   H01Q78128   2.514  -0.008   7.611
  111SBC   C0GX78129   2.689   0.085   7.571
  111SBC   H01R78130   2.712  -0.014   7.536
  111SBC   O00L78131   2.776   0.184   7.564
  111SBC   C0GQ78132   2.609   0.323   7.669
  111SBC   C03A78133   2.479   0.671   7.751
  111SBC   C05L78134   2.740   0.317   7.610
  111SBC   C04W78135   3.297   0.512   7.479
  111SBC   C05I78136   3.428   0.471   7.437
  111SBC   C05O78137   3.452   0.347   7.391
  111SBC   C05278138   3.537   0.564   7.442
  111SBC   C04V78139   3.277   0.647   7.522
  111SBC   C04U78140   3.383   0.736   7.516
  111SBC   N00978141   3.350   0.258   7.382
  111SBC   C0GP78142   3.577   0.306   7.357
  111SBC   C05W78143   3.683   0.396   7.356
  111SBC   C07D78144   4.046   0.418   7.258
  111SBC   C06J78145   4.008   0.668   7.378
  111SBC   C05P78146   3.664   0.523   7.401
  111SBC   C05R78147   3.860   0.830   7.459
  111SBC   C04Z78148   3.512   0.696   7.477
  111SBC   C04C78149   3.701   1.002   7.540
  111SBC   C04G78150   3.553   1.177   7.619
  111SBC   C04J78151   3.307   1.269   7.678
  111SBC   C04T78152   3.363   0.869   7.554
  111SBC   N00378153   3.151   0.692   7.562
  111SBC   C04P78154   2.918   0.653   7.604
  111SBC   C03D78155   2.679   0.748   7.667
  111SBC   C02178156   2.632   1.003   7.751
  111SBC   C03F78157   2.990   1.007   7.667
  111SBC   C02278158   2.719   1.225   7.779
  111SBC   C02A78159   3.076   1.224   7.705
  111SBC   C02378160   2.805   1.439   7.821
  111SBC   C02578161   3.018   1.611   7.843
  111SBC   C02D78162   3.124   1.698   7.869
  111SBC   C02E78163   3.108   1.819   7.925
  111SBC   C02N78164   3.218   1.903   7.961
  111SBC   C04N78165   3.181   1.314   7.708
  111SBC   C02P78166   3.249   1.658   7.838
  111SBC   C04I78167   3.412   1.359   7.690
  111SBC   C04478168   3.630   1.521   7.743
  111SBC   C04378169   3.358   1.742   7.862
  111SBC   C05N78170   3.348   1.864   7.929
  111SBC   C09U78171   3.694   2.053   8.073
  111SBC   C09V78172   3.813   2.102   8.133
  111SBC   C09X78173   3.812   2.204   8.222
  111SBC   C09Y78174   3.914   2.260   8.293
  111SBC   C0A178175   4.038   2.204   8.284
  111SBC   C0A278176   4.052   2.106   8.186
  111SBC   C0A478177   4.179   2.052   8.171
  111SBC   C07178178   4.190   1.941   8.080
  111SBC   C0A578179   4.318   1.888   8.058
  111SBC   C0A978180   4.430   1.944   8.120
  111SBC   C0A878181   4.412   2.047   8.209
  111SBC   C0AP78182   4.518   2.093   8.281
  111SBC   C0BY78183   4.495   2.190   8.378
  111SBC   C0BX78184   4.373   2.247   8.407
  111SBC   C0C278185   4.358   2.337   8.510
  111SBC   C0C378186   4.228   2.386   8.541
  111SBC   C0CT78187   4.124   2.346   8.463
  111SBC   C0C178188   4.478   2.382   8.578
  111SBC   C0C078189   4.608   2.348   8.522
  111SBC   C0A778190   4.264   2.196   8.336
  111SBC   C0BZ78191   4.608   2.249   8.430
  111SBC   C0BO78192   4.736   2.207   8.395
  111SBC   C0BN78193   4.757   2.098   8.313
  111SBC   C0BM78194   4.883   2.049   8.304
  111SBC   C0B978195   4.900   1.932   8.234
  111SBC   C0B878196   4.789   1.877   8.169
  111SBC   C0AD78197   4.662   1.940   8.173
  111SBC   C0AF78198   4.807   1.767   8.084
  111SBC   C0AG78199   4.932   1.702   8.075
  111SBC   C0B778200   5.039   1.764   8.134
  111SBC   C0AE78201   4.695   1.724   8.017
  111SBC   C0AB78202   4.570   1.778   8.020
  111SBC   C0AA78203   4.455   1.719   7.963
  111SBC   C0AJ78204   4.710   1.615   7.935
  111SBC   C0AK78205   4.602   1.554   7.877
  111SBC   C06W78206   4.645   1.438   7.832
  111SBC   C0AI78207   4.832   1.537   7.925
  111SBC   C0BP78208   4.828   2.278   8.462
  111SBC   C0BQ78209   4.965   2.231   8.454
  111SBC   C0BW78210   4.642   2.043   8.256
  111SBC   C0AC78211   4.554   1.890   8.104
  111SBC   C0A678212   4.287   2.097   8.239
  111SBC   C0A378213   4.146   2.248   8.363
  111SBC   C09Z78214   3.904   2.373   8.377
  111SBC   C09W78215   3.940   2.050   8.115
  111SBC   C07278216   3.952   1.945   8.029
  111SBC   C09H78217   3.694   2.276   8.217
  111SBC   C09G78218   3.689   2.393   8.283
  111SBC   C09P78219   3.556   2.432   8.277
  111SBC   C02O78220   3.268   2.227   8.147
  111SBC   C02M78221   3.197   2.023   8.039
  111SBC   C02F78222   2.985   1.858   7.956
  111SBC   C00W78223   2.750   1.803   7.985
  111SBC   C01R78224   2.516   1.871   8.147
  111SBC   C01N78225   2.803   2.099   8.153
  111SBC   C01L78226   2.837   2.261   8.326
  111SBC   C01H78227   2.632   2.363   8.598
  111SBC   C01K78228   2.514   2.087   8.372
  111SBC   C01E78229   2.316   2.072   8.563
  111SBC   C01G78230   2.514   2.368   8.691
  111SBC   C01D78231   2.212   2.066   8.653
  111SBC   C01A78232   1.997   2.069   8.830
  111SBC   H00178233   1.912   2.076   8.896
  111SBC   C01F78234   2.283   2.367   8.855
  111SBC   C03P78235   2.232   2.568   9.060
  111SBC   C03T78236   2.451   2.656   9.017
  111SBC   C08I78237   2.668   2.832   9.048
  111SBC   C08J78238   2.795   2.895   9.075
  111SBC   C08L78239   3.025   2.938   9.024
  111SBC   C09378240   3.279   2.955   8.980
  111SBC   C08Z78241   3.231   2.815   8.738
  111SBC   C09T78242   3.707   2.840   8.812
  111SBC   C09S78243   3.465   2.741   8.561
  111SBC   C09Q78244   3.526   2.543   8.358
  111SBC   C09F78245   3.785   2.439   8.377
  111SBC   C09E78246   3.805   2.693   8.639
  111SBC   C0A078247   4.000   2.410   8.474
  111SBC   C0CU78248   4.216   2.489   8.641
  111SBC   C0CR78249   4.330   2.527   8.718
  111SBC   C0CZ78250   4.314   2.626   8.819
  111SBC   C0DA78251   3.830   2.765   8.760
  111SBC   C0D978252   4.058   2.984   8.923
  111SBC   H00V78253   3.984   3.054   8.887
  111SBC   C0CY78254   4.185   2.684   8.837
  111SBC   C0DF78255   4.188   3.008   8.978
  111SBC   C0DE78256   4.302   3.100   8.990
  111SBC   C0GI78257   4.310   3.242   8.976
  111SBC   H01K78258   4.217   3.296   8.967
  111SBC   C0GJ78259   4.436   3.296   8.975
  111SBC   H01J78260   4.444   3.400   8.945
  111SBC   O00I78261   4.554   3.224   8.991
  111SBC   C0GH78262   4.553   3.086   8.991
  111SBC   C0GG78263   4.681   3.014   8.985
  111SBC   O00G78264   4.782   3.109   8.978
  111SBC   C0G878265   4.911   3.071   8.965
  111SBC   C0G978266   4.999   3.175   8.973
  111SBC   H01G78267   4.956   3.270   9.002
  111SBC   C0GA78268   5.133   3.149   8.962
  111SBC   H01H78269   5.203   3.229   8.979
  111SBC   C0GB78270   5.188   3.027   8.925
  111SBC   C0EP78271   5.092   2.923   8.901
  111SBC   C0E878272   5.145   2.802   8.837
  111SBC   C0CK78273   5.091   2.684   8.777
  111SBC   C0CL78274   4.972   2.629   8.836
  111SBC   C0E978275   4.872   2.704   8.902
  111SBC   C0GE78276   4.846   2.846   8.935
  111SBC   C0E778277   5.281   2.774   8.836
  111SBC   C0CJ78278   5.311   2.653   8.779
  111SBC   C0E678279   5.443   2.608   8.796
  111SBC   H00Y78280   5.475   2.509   8.767
  111SBC   C0EO78281   5.542   2.705   8.816
  111SBC   H01178282   5.648   2.688   8.813
  111SBC   C0G678283   5.506   2.844   8.843
  111SBC   C0G578284   5.597   2.956   8.858
  111SBC   H01F78285   5.700   2.934   8.834
  111SBC   C0GD78286   5.545   3.081   8.880
  111SBC   H01I78287   5.616   3.162   8.875
  111SBC   O00H78288   5.415   3.111   8.918
  111SBC   C0EQ78289   5.372   2.875   8.871
  111SBC   C0GC78290   5.326   2.999   8.910
  111SBC   C0G778291   4.950   2.942   8.938
  111SBC   C0DD78292   4.426   3.023   8.993
  111SBC   C0GF78293   4.711   2.883   8.968
  111SBC   C0CO78294   4.775   2.606   8.923
  111SBC   C0D078295   4.435   2.661   8.891
  111SBC   C0C478296   4.461   2.466   8.695
  111SBC   C0CN78297   4.804   2.478   8.872
  111SBC   C0CP78298   4.751   2.370   8.543
  111SBC   C0CM78299   4.937   2.484   8.818
  111SBC   C0CI78300   5.193   2.596   8.722
  111SBC   C0CD78301   5.442   2.278   8.466
  111SBC   C0BR78302   5.070   2.297   8.507
  111SBC   C0CS78303   4.982   2.112   8.372
  111SBC   C0B678304   5.026   1.879   8.218
  111SBC   C0CG78305   5.347   2.078   8.386
  111SBC   C0CF78306   5.459   2.149   8.423
  111SBC   C0E578307   5.686   2.300   8.483
  111SBC   C0DT78308   5.932   2.186   8.479
  111SBC   C0DL78309   5.726   1.907   8.348
  111SBC   C0DM78310   5.739   1.788   8.277
  111SBC   C0DY78311   5.984   1.798   8.312
  111SBC   C0DU78312   6.052   2.122   8.469
  111SBC   C0F078313   6.295   2.159   8.450
  111SBC   C0F478314   6.523   2.103   8.320
  111SBC   C0FG78315   6.346   1.776   8.321
  111SBC   O00B78316   6.644   1.933   8.192
  111SBC   C0FN78317   6.384   1.671   8.241
  111SBC   C0DZ78318   6.113   1.746   8.292
  111SBC   O00C78319   6.033   1.485   8.045
  111SBC   C0FR78320   5.934   1.418   7.985
  111SBC   O00D78321   5.962   1.329   7.903
  111SBC   C0E078322   5.871   1.739   8.254
  111SBC   C0E378323   5.800   1.452   8.031
  111SBC   C0AW78324   5.688   1.374   7.998
  111SBC   C0AV78325   5.697   1.257   7.922
  111SBC   H00Q78326   5.788   1.209   7.891
  111SBC   C0AU78327   5.579   1.186   7.890
  111SBC   H00R78328   5.585   1.093   7.834
  111SBC   C0AT78329   5.455   1.249   7.913
  111SBC   C0AS78330   5.318   1.238   7.866
  111SBC   C0AR78331   5.277   1.133   7.771
  111SBC   C0BE78332   5.451   1.357   7.999
  111SBC   C0DN78333   5.632   1.724   8.221
  111SBC   C0AX78334   5.567   1.421   8.040
  111SBC   C0BB78335   5.398   1.712   8.190
  111SBC   C0BD78336   5.322   1.413   7.993
  111SBC   C0B278337   5.163   1.706   8.128
  111SBC   C0AH78338   4.946   1.588   7.994
  111SBC   C0BF78339   5.229   1.344   7.914
  111SBC   C0AL78340   4.785   1.426   7.852
  111SBC   C07U78341   5.031   1.196   7.737
  111SBC   C0AQ78342   5.148   1.126   7.711
  111SBC   C0BG78343   5.357   1.033   7.707
  111SBC   C0FY78344   5.290   0.897   7.391
  111SBC   C0BJ78345   5.466   1.065   7.623
  111SBC   H00S78346   5.520   1.158   7.622
  111SBC   C0FZ78347   5.388   0.946   7.307
  111SBC   C07S78348   5.155   0.908   7.345
  111SBC   C0G178349   5.238   0.974   6.985
  111SBC   C07K78350   4.871   0.915   6.936
  111SBC   C07H78351   4.889   0.924   7.224
  111SBC   C06B78352   4.578   0.762   7.209
  111SBC   C06N78353   4.467   0.890   7.366
  111SBC   C06678354   4.822   1.007   7.459
  111SBC   C06278355   4.660   1.176   7.673
  111SBC   C05Y78356   4.335   1.039   7.521
  111SBC   C06178357   4.552   1.228   7.743
  111SBC   C05H78358   4.208   1.303   7.696
  111SBC   C06V78359   4.541   1.360   7.789
  111SBC   C06Y78360   4.470   1.605   7.891
  111SBC   C05C78361   4.115   1.528   7.805
  111SBC   C06Z78362   4.329   1.774   7.980
  111SBC   C07078363   4.076   1.883   8.015
  111SBC   C05B78364   3.984   1.590   7.819
  111SBC   C05778365   3.733   1.709   7.857
  111SBC   C05978366   3.837   1.885   7.977
  112SBC   C05878367   7.418   0.050  12.578
  112SBC   C05A78368   7.323   0.067  12.682
  112SBC   C06Q78369   7.198   0.113  12.651
  112SBC   C06R78370   7.103   0.118  12.751
  112SBC   C06S78371   7.130   0.083  12.885
  112SBC   C06T78372   7.027   0.093  12.978
  112SBC   C06U78373   7.023   0.058  13.120
  112SBC   C06X78374   7.126   0.035  13.215
  112SBC   C06078375   7.072  -0.009  13.337
  112SBC   C05Z78376   7.115   0.025  13.472
  112SBC   C06878377   6.994   0.082  13.542
  112SBC   C06778378   6.980   0.128  13.680
  112SBC   C06978379   7.089   0.131  13.774
  112SBC   C06A78380   7.100   0.193  13.905
  112SBC   C07378381   7.026   0.288  13.975
  112SBC   C07P78382   7.084   0.397  14.050
  112SBC   C07O78383   7.217   0.441  14.032
  112SBC   H00D78384   7.284   0.389  13.965
  112SBC   C07N78385   7.276   0.539  14.105
  112SBC   H00E78386   7.377   0.574  14.095
  112SBC   C07M78387   7.191   0.605  14.193
  112SBC   H00F78388   7.226   0.683  14.257
  112SBC   C07L78389   7.057   0.576  14.210
  112SBC   C07Q78390   6.976   0.638  14.309
  112SBC   H00G78391   7.010   0.721  14.370
  112SBC   O00F78392   6.851   0.588  14.341
  112SBC   C07J78393   6.801   0.491  14.261
  112SBC   C07I78394   6.868   0.430  14.157
  112SBC   N00478395   6.811   0.329  14.076
  112SBC   C07R78396   6.675   0.290  14.100
  112SBC   C07T78397   6.611   0.354  14.217
  112SBC   C0FX78398   6.479   0.336  14.233
  112SBC   C0FW78399   6.399   0.408  14.317
  112SBC   C0G078400   6.465   0.499  14.405
  112SBC   C0G278401   6.388   0.578  14.495
  112SBC   H01E78402   6.435   0.648  14.561
  112SBC   C0G378403   6.249   0.570  14.490
  112SBC   H01C78404   6.184   0.629  14.553
  112SBC   C0G478405   6.189   0.484  14.403
  112SBC   H01D78406   6.083   0.472  14.390
  112SBC   O00E78407   6.599   0.519  14.395
  112SBC   C0FV78408   6.259   0.396  14.312
  112SBC   C0FU78409   6.197   0.305  14.221
  112SBC   H01B78410   6.091   0.298  14.201
  112SBC   C0FT78411   6.278   0.223  14.146
  112SBC   C0FS78412   6.259   0.141  14.030
  112SBC   C0BI78413   6.388   0.077  13.997
  112SBC   C0BH78414   6.389   0.057  13.857
  112SBC   C07F78415   6.493   0.085  13.766
  112SBC   C07E78416   6.630   0.099  13.790
  112SBC   C07G78417   6.683   0.144  13.908
  112SBC   C07478418   6.813   0.179  13.884
  112SBC   C06578419   6.719   0.114  13.688
  112SBC   C06478420   6.666   0.122  13.564
  112SBC   C06378421   6.741   0.130  13.449
  112SBC   C07578422   6.641   0.159  13.345
  112SBC   C0AM78423   6.508   0.176  13.397
  112SBC   C0AN78424   6.383   0.219  13.327
  112SBC   C0AO78425   6.367   0.267  13.183
  112SBC   C0B178426   6.248   0.338  13.142
  112SBC   C0B078427   6.142   0.365  13.233
  112SBC   C0AZ78428   6.030   0.444  13.202
  112SBC   C0AY78429   5.946   0.477  13.308
  112SBC   N00778430   5.838   0.565  13.285
  112SBC   C0E278431   5.752   0.598  13.394
  112SBC   C0E178432   5.652   0.681  13.361
  112SBC   C0E478433   5.578   0.726  13.477
  112SBC   C0FF78434   5.482   0.835  13.464
  112SBC   C0FJ78435   5.406   0.925  13.555
  112SBC   C0FK78436   5.422   0.957  13.696
  112SBC   H01678437   5.490   0.911  13.766
  112SBC   C0FL78438   5.339   1.079  13.715
  112SBC   H01778439   5.332   1.139  13.805
  112SBC   C0FM78440   5.266   1.109  13.594
  112SBC   C0FH78441   5.177   1.195  13.505
  112SBC   C0FI78442   5.209   1.139  13.379
  112SBC   C0F378443   5.205   1.209  13.256
  112SBC   C0F278444   5.265   1.134  13.157
  112SBC   C0DW78445   5.348   1.025  13.172
  112SBC   C0FE78446   5.359   0.960  13.287
  112SBC   C0DV78447   5.424   0.981  13.067
  112SBC   C0DX78448   5.521   0.883  13.086
  112SBC   C0DK78449   5.611   0.850  12.984
  112SBC   C0DJ78450   5.601   0.917  12.858
  112SBC   C0DI78451   5.689   0.887  12.759
  112SBC   C0DH78452   5.785   0.788  12.777
  112SBC   C0DG78453   5.794   0.722  12.899
  112SBC   C0BV78454   5.896   0.632  12.922
  112SBC   C0BC78455   5.914   0.577  13.051
  112SBC   C0BA78456   5.983   0.598  12.820
  112SBC   C0B478457   6.090   0.510  12.847
  112SBC   C0B378458   6.109   0.462  12.975
  112SBC   C0B578459   6.178   0.482  12.748
  112SBC   C0BU78460   6.155   0.532  12.617
  112SBC   C0BT78461   6.051   0.624  12.589
  112SBC   C0BS78462   6.038   0.674  12.456
  112SBC   C0CC78463   5.934   0.771  12.438
  112SBC   C0CB78464   5.919   0.830  12.314
  112SBC   C0CH78465   5.863   0.962  12.320
  112SBC   C0DO78466   5.766   0.992  12.419
  112SBC   C0DP78467   5.679   1.100  12.403
  112SBC   C0EA78468   5.678   1.175  12.282
  112SBC   H01278469   5.745   1.148  12.201
  112SBC   O00978470   5.592   1.280  12.262
  112SBC   C0EH78471   5.520   1.322  12.371
  112SBC   C0EG78472   5.437   1.429  12.346
  112SBC   C0EJ78473   5.414   1.521  12.240
  112SBC   H01078474   5.448   1.499  12.140
  112SBC   C0EK78475   5.327   1.627  12.278
  112SBC   H00Z78476   5.287   1.702  12.211
  112SBC   C0EL78477   5.298   1.594  12.407
  112SBC   C0EM78478   5.219   1.665  12.510
  112SBC   C0EW78479   5.148   1.789  12.497
  112SBC   H01378480   5.153   1.844  12.405
  112SBC   C0EX78481   5.079   1.852  12.610
  112SBC   H01478482   5.025   1.945  12.599
  112SBC   C0F178483   5.078   1.784  12.740
  112SBC   C0EU78484   5.142   1.662  12.751
  112SBC   C0ET78485   5.141   1.574  12.861
  112SBC   C0ES78486   5.227   1.471  12.817
  112SBC   C0EE78487   5.271   1.484  12.685
  112SBC   C0ED78488   5.353   1.420  12.583
  112SBC   C0EC78489   5.428   1.299  12.601
  112SBC   C0EB78490   5.433   1.220  12.719
  112SBC   C0EN78491   5.345   1.249  12.829
  112SBC   C0ER78492   5.334   1.152  12.926
  112SBC   C0DS78493   5.511   1.101  12.733
  112SBC   C0DR78494   5.596   1.068  12.625
  112SBC   C0EY78495   5.252   1.349  12.875
  112SBC   C0EZ78496   5.207   1.329  13.015
  112SBC   C0F578497   5.136   1.393  13.120
  112SBC   C0F678498   5.082   1.525  13.106
  112SBC   N00878499   5.019   1.577  13.227
  112SBC   C0F778500   5.028   1.510  13.359
  112SBC   C0FQ78501   4.971   1.577  13.468
  112SBC   H01878502   4.989   1.524  13.560
  112SBC   C0FP78503   4.903   1.696  13.461
  112SBC   H01978504   4.856   1.727  13.553
  112SBC   C0FO78505   4.897   1.756  13.333
  112SBC   H01A78506   4.835   1.844  13.330
  112SBC   C0F878507   5.095   1.386  13.365
  112SBC   C0F978508   4.954   1.704  13.214
  112SBC   C0FA78509   4.959   1.781  13.099
  112SBC   H01578510   4.910   1.878  13.094
  112SBC   C0FB78511   5.023   1.734  12.982
  112SBC   C0FD78512   5.085   1.611  12.989
  112SBC   C0FC78513   5.018   1.822  12.867
  112SBC   O00A78514   4.963   1.931  12.875
  112SBC   C0EV78515   5.213   1.606  12.642
  112SBC   C0EF78516   5.359   1.476  12.452
  112SBC   C0EI78517   5.512   1.255  12.495
  112SBC   C0DQ78518   5.592   1.141  12.509
  112SBC   C0CE78519   5.761   0.916  12.538
  112SBC   H00U78520   5.880   1.009  12.225
  112SBC   C0CA78521   5.966   0.765  12.194
  112SBC   C0C978522   6.069   0.666  12.208
  112SBC   C0C878523   6.115   0.594  12.095
  112SBC   C0C778524   6.244   0.531  12.066
  112SBC   C0C678525   6.262   0.464  11.940
  112SBC   C0C578526   6.366   0.425  11.848
  112SBC   C0CQ78527   6.330   0.415  11.711
  112SBC   C0D178528   6.228   0.492  11.674
  112SBC   C0D878529   6.236   0.548  11.557
  112SBC   C0D778530   6.347   0.478  11.497
  112SBC   C0D678531   6.409   0.526  11.378
  112SBC   C0D578532   6.531   0.472  11.321
  112SBC   C0D478533   6.621   0.373  11.378
  112SBC   C0D378534   6.748   0.396  11.317
  112SBC   C0CX78535   6.845   0.356  11.420
  112SBC   C0CW78536   6.790   0.359  11.552
  112SBC   C0CV78537   6.840   0.345  11.686
  112SBC   C0D278538   6.979   0.320  11.718
  112SBC   C09D78539   7.087   0.308  11.625
  112SBC   C09C78540   7.218   0.282  11.669
  112SBC   C09B78541   7.334   0.253  11.587
  112SBC   C09A78542   7.313   0.264  11.451
  112SBC   C09978543   7.193   0.304  11.401
  112SBC   C09878544   7.182   0.262  11.270
  112SBC   C08Y78545   7.301   0.176  11.238
  112SBC   C08X78546   7.320   0.078  11.140
  112SBC   C08W78547   7.212   0.040  11.052
  112SBC   C08U78548   7.070   0.082  11.054
  112SBC   C08V78549   6.990   0.155  11.150
  112SBC   C0DC78550   6.851   0.129  11.116
  112SBC   H00W78551   6.770   0.168  11.176
  112SBC   C0DB78552   6.844   0.065  10.988
  112SBC   H00X78553   6.754   0.031  10.940
  112SBC   C08T78554   6.981   0.035  10.960
  112SBC   C08S78555   7.014  -0.032  10.848
  112SBC   H00N78556   6.937  -0.060  10.778
  112SBC   C08R78557   7.147  -0.085  10.836
  112SBC   C08Q78558   7.187  -0.177  10.736
  112SBC   H00O78559   7.110  -0.204  10.665
  112SBC   C08P78560   7.301  -0.256  10.738
  112SBC   C08O78561   7.326  -0.354  10.641
  112SBC   H00P78562   7.244  -0.381  10.576
  112SBC   C08N78563   7.444  -0.434  10.653
  112SBC   C08M78564   7.465  -0.540  10.558
  112SBC   O00878565   7.401  -0.549  10.449
  112SBC   O00778566   7.576  -0.615  10.573
  112SBC   C08H78567   7.655  -0.599  10.686
  112SBC   C08G78568   7.758  -0.696  10.719
  112SBC   C03V78569   7.795  -0.807  10.645
  112SBC   H00978570   7.747  -0.817  10.549
  112SBC   C03U78571   7.881  -0.906  10.691
  112SBC   C03W78572   7.915  -1.031  10.629
  112SBC   H00A78573   7.872  -1.070  10.538
  112SBC   C03X78574   8.009  -1.110  10.683
  112SBC   H00B78575   8.032  -1.200  10.626
  112SBC   O00578576   8.070  -1.086  10.804
  112SBC   C03O78577   8.037  -0.971  10.867
  112SBC   C03N78578   8.100  -0.951  10.990
  112SBC   O00078579   8.198  -1.042  11.022
  112SBC   C01978580   8.238  -1.037  11.147
  112SBC   C01878581   8.219  -0.922  11.232
  112SBC   C01778582   8.142  -0.813  11.181
  112SBC   C01678583   8.118  -0.702  11.257
  112SBC   C01578584   8.188  -0.701  11.385
  112SBC   C01478585   8.180  -0.587  11.461
  112SBC   C01378586   8.083  -0.482  11.428
  112SBC   C01278587   8.095  -0.399  11.549
  112SBC   C01178588   8.200  -0.455  11.632
  112SBC   C01078589   8.243  -0.395  11.745
  112SBC   C00Z78590   8.316  -0.453  11.846
  112SBC   C00Y78591   8.283  -0.374  11.960
  112SBC   C01O78592   8.187  -0.274  11.931
  112SBC   C01P78593   8.084  -0.239  12.026
  112SBC   C02L78594   7.973  -0.178  11.975
  112SBC   C02K78595   7.958  -0.175  11.833
  112SBC   C01M78596   8.043  -0.245  11.739
  112SBC   C02J78597   7.849  -0.092  11.789
  112SBC   C02I78598   7.809  -0.066  11.662
  112SBC   C02H78599   7.849  -0.116  11.540
  112SBC   C01Q78600   7.935  -0.223  11.512
  112SBC   C02G78601   7.919  -0.255  11.376
  112SBC   C08978602   7.840  -0.149  11.318
  112SBC   C08878603   7.767  -0.187  11.206
  112SBC   C08778604   7.825  -0.321  11.180
  112SBC   C08678605   7.811  -0.396  11.061
  112SBC   C03S78606   7.871  -0.527  11.027
  112SBC   N00678607   7.810  -0.571  10.914
  112SBC   C08F78608   7.711  -0.485  10.884
  112SBC   C01J78609   7.966  -0.617  11.086
  112SBC   C03R78610   7.987  -0.734  11.013
  112SBC   C03Q78611   7.927  -0.762  10.890
  112SBC   C08E78612   7.707  -0.376  10.962
  112SBC   C08D78613   7.605  -0.274  10.952
  112SBC   C08K78614   7.510  -0.297  10.847
  112SBC   C08C78615   7.579  -0.166  11.037
  112SBC   C09178616   7.460  -0.092  11.027
  112SBC   C09278617   7.357  -0.124  10.934
  112SBC   C08B78618   7.655  -0.112  11.147
  112SBC   C09078619   7.563  -0.004  11.207
  112SBC   C09478620   7.602   0.079  11.319
  112SBC   C09578621   7.508   0.153  11.391
  112SBC   C09R78622   7.545   0.158  11.524
  112SBC   C09778623   7.653   0.079  11.548
  112SBC   C09678624   7.692   0.035  11.423
  112SBC   C01I78625   7.924  -0.360  11.286
  112SBC   C08A78626   7.791  -0.067  11.423
  112SBC   C09L78627   7.712   0.032  11.670
  112SBC   C09K78628   7.687   0.067  11.803
  112SBC   C09J78629   7.566   0.118  11.848
  112SBC   C09I78630   7.509   0.098  11.980
  112SBC   C09O78631   7.549   0.047  12.111
  112SBC   C09N78632   7.674  -0.012  12.132
  112SBC   C09M78633   7.778  -0.046  12.034
  112SBC   C06O78634   7.698  -0.046  12.269
  112SBC   C05M78635   7.608  -0.005  12.369
  112SBC   C06P78636   7.482   0.050  12.343
  112SBC   C04278637   7.636  -0.026  12.503
  112SBC   C04178638   7.757  -0.087  12.536
  112SBC   C04078639   7.788  -0.112  12.671
  112SBC   C03Z78640   7.901  -0.188  12.704
  112SBC   C03Y78641   7.995  -0.227  12.615
  112SBC   C02778642   8.110  -0.300  12.649
  112SBC   C02678643   8.185  -0.352  12.546
  112SBC   C02878644   8.287  -0.441  12.576
  112SBC   C02978645   8.308  -0.474  12.709
  112SBC   C02B78646   8.403  -0.573  12.737
  112SBC   C02C78647   8.422  -0.613  12.868
  112SBC   C02X78648   8.495  -0.721  12.898
  112SBC   C03E78649   8.499  -0.761  13.028
  112SBC   C03G78650   8.436  -0.707  13.131
  112SBC   C04Q78651   8.359  -0.601  13.105
  112SBC   C04R78652   8.276  -0.550  13.202
  112SBC   C04S78653   8.180  -0.455  13.173
  112SBC   C04L78654   8.164  -0.416  13.044
  112SBC   C04M78655   8.249  -0.462  12.942
  112SBC   C04K78656   8.057  -0.335  13.008
  112SBC   C04F78657   7.971  -0.289  13.106
  112SBC   C04E78658   7.989  -0.326  13.236
  112SBC   C04D78659   7.903  -0.277  13.336
  112SBC   C05078660   7.919  -0.322  13.467
  112SBC   C05178661   7.829  -0.283  13.565
  112SBC   C05Q78662   7.855  -0.309  13.700
  112SBC   C05V78663   7.772  -0.254  13.796
  112SBC   N00578664   7.805  -0.279  13.934
  112SBC   C07V78665   7.918  -0.345  13.966
  112SBC   C08278666   7.950  -0.363  14.105
  112SBC   C08178667   7.861  -0.324  14.204
  112SBC   C07C78668   7.747  -0.246  14.165
  112SBC   C07B78669   7.670  -0.187  14.263
  112SBC   C08078670   7.689  -0.211  14.402
  112SBC   C07Z78671   7.599  -0.161  14.498
  112SBC   H00L78672   7.625  -0.180  14.601
  112SBC   C07978673   7.481  -0.095  14.465
  112SBC   C07878674   7.470  -0.062  14.324
  112SBC   C07778675   7.360   0.021  14.287
  112SBC   C07X78676   7.261   0.062  14.383
  112SBC   H00I78677   7.172   0.115  14.354
  112SBC   C07Y78678   7.266   0.026  14.520
  112SBC   H00H78679   7.188   0.053  14.589
  112SBC   C07678680   7.337   0.041  14.157
  112SBC   C06C78681   7.231   0.131  14.113
  112SBC   H00C78682   7.169   0.196  14.174
  112SBC   C06F78683   7.413  -0.024  14.059
  112SBC   C06E78684   7.387  -0.012  13.923
  112SBC   C06G78685   7.456  -0.072  13.822
  112SBC   C06H78686   7.571  -0.145  13.857
  112SBC   C06I78687   7.601  -0.159  13.992
  112SBC   C06L78688   7.417  -0.044  13.687
  112SBC   C06M78689   7.289   0.011  13.652
  112SBC   C06K78690   7.509  -0.090  13.593
  112SBC   C05S78691   7.627  -0.162  13.629
  112SBC   C05U78692   7.487  -0.063  13.459
  112SBC   C05X78693   7.362  -0.009  13.418
  112SBC   C05G78694   7.362   0.029  13.277
  112SBC   C05F78695   7.471   0.012  13.195
  112SBC   C05E78696   7.442   0.033  13.066
  112SBC   C04878697   7.532   0.000  12.965
  112SBC   C05678698   7.492   0.013  12.837
  112SBC   C04578699   7.575  -0.026  12.737
  112SBC   C04778700   7.642  -0.070  13.003
  112SBC   C04978701   7.677  -0.086  13.139
  112SBC   C04B78702   7.778  -0.169  13.174
  112SBC   C04678703   7.725  -0.114  12.900
  112SBC   C04H78704   7.842  -0.173  12.939
  112SBC   C05D78705   7.310   0.065  13.051
  112SBC   C04A78706   7.581  -0.059  13.240
  112SBC   C05T78707   7.587  -0.098  13.367
  112SBC   C05578708   7.703  -0.170  13.404
  112SBC   C06D78709   7.278   0.068  13.886
  112SBC   C07W78710   7.523  -0.095  14.092
  112SBC   C08578711   7.382  -0.049  14.552
  112SBC   H00M78712   7.397  -0.077  14.655
  112SBC   C08478713   7.794  -0.297  14.434
  112SBC   H00J78714   7.820  -0.321  14.536
  112SBC   C07A78715   7.555  -0.113  14.228
  112SBC   C08378716   7.880  -0.352  14.339
  112SBC   H00K78717   7.962  -0.417  14.365
  112SBC   O00K78718   8.074  -0.420  14.133
  112SBC   C0GO78719   8.157  -0.467  14.036
  112SBC   C0GN78720   8.275  -0.533  14.065
  112SBC   H01L78721   8.305  -0.530  14.169
  112SBC   C0GM78722   8.353  -0.600  13.971
  112SBC   C0GL78723   8.465  -0.662  14.013
  112SBC   H01M78724   8.493  -0.661  14.117
  112SBC   O00J78725   8.538  -0.732  13.919
  112SBC   C0GK78726   8.492  -0.729  13.789
  112SBC   H01N78727   8.556  -0.784  13.722
  112SBC   C05K78728   8.377  -0.668  13.743
  112SBC   C05J78729   8.347  -0.658  13.605
  112SBC   C04Y78730   8.412  -0.726  13.497
  112SBC   C04X78731   8.387  -0.691  13.362
  112SBC   O00678732   8.493  -0.837  13.518
  112SBC   C05378733   8.538  -0.927  13.420
  112SBC   C04O78734   8.518  -0.887  13.284
  112SBC   C03C78735   8.549  -0.962  13.168
  112SBC   C03B78736   8.604  -1.090  13.132
  112SBC   C05478737   8.642  -1.186  13.224
  112SBC   C0GR78738   8.679  -1.318  13.188
  112SBC   C03M78739   8.707  -1.389  13.061
  112SBC   C03I78740   8.699  -1.331  12.927
  112SBC   C03J78741   8.732  -1.417  12.812
  112SBC   N00278742   8.721  -1.369  12.675
  112SBC   C02U78743   8.752  -1.452  12.564
  112SBC   C02T78744   8.742  -1.407  12.434
  112SBC   C02Z78745   8.758  -1.497  12.330
  112SBC   N00178746   8.735  -1.455  12.193
  112SBC   C02R78747   8.752  -1.548  12.090
  112SBC   C03278748   8.784  -1.682  12.116
  112SBC   C03178749   8.801  -1.720  12.253
  112SBC   H00778750   8.838  -1.821  12.266
  112SBC   C03378751   8.787  -1.771  12.002
  112SBC   H00378752   8.791  -1.877  12.023
  112SBC   O00478753   8.781  -1.730  11.869
  112SBC   C03478754   8.762  -1.597  11.854
  112SBC   C03578755   8.760  -1.556  11.722
  112SBC   C03678756   8.731  -1.425  11.684
  112SBC   H00578757   8.736  -1.398  11.580
  112SBC   C03778758   8.719  -1.328  11.785
  112SBC   H00678759   8.701  -1.226  11.754
  112SBC   C00D78760   8.715  -1.368  11.923
  112SBC   C00C78761   8.691  -1.280  12.026
  112SBC   C00B78762   8.635  -1.143  12.008
  112SBC   C00A78763   8.584  -1.043  11.902
  112SBC   C00978764   8.576  -0.922  11.978
  112SBC   C00878765   8.500  -0.807  11.944
  112SBC   C00778766   8.449  -0.797  11.816
  112SBC   C00678767   8.388  -0.677  11.771
  112SBC   C00578768   8.329  -0.683  11.639
  112SBC   C00478769   8.338  -0.798  11.555
  112SBC   C00378770   8.403  -0.911  11.607
  112SBC   C00278771   8.389  -1.028  11.534
  112SBC   C01C78772   8.340  -1.032  11.400
  112SBC   C01B78773   8.369  -1.141  11.316
  112SBC   H00078774   8.416  -1.233  11.348
  112SBC   C00178775   8.412  -1.151  11.587
  112SBC   C00078776   8.452  -1.154  11.724
  112SBC   C01U78777   8.420  -1.279  11.773
  112SBC   H00278778   8.434  -1.320  11.873
  112SBC   C01T78779   8.349  -1.349  11.657
  112SBC   O00278780   8.311  -1.464  11.660
  112SBC   O00178781   8.337  -1.260  11.558
  112SBC   C01S78782   8.457  -0.913  11.734
  112SBC   C00N78783   8.478  -0.709  12.040
  112SBC   C00M78784   8.517  -0.735  12.173
  112SBC   C00J78785   8.591  -0.847  12.206
  112SBC   C00I78786   8.613  -0.887  12.337
  112SBC   C00H78787   8.658  -1.014  12.362
  112SBC   C00G78788   8.684  -1.105  12.261
  112SBC   C00F78789   8.701  -1.234  12.273
  112SBC   C01X78790   8.669  -1.055  12.490
  112SBC   C01W78791   8.634  -0.970  12.593
  112SBC   C01V78792   8.586  -0.841  12.564
  112SBC   C02078793   8.544  -0.754  12.663
  112SBC   C01Z78794   8.630  -1.018  12.721
  112SBC   C02Y78795   8.589  -0.926  12.815
  112SBC   C03978796   8.587  -0.972  12.942
  112SBC   C02W78797   8.674  -1.148  12.757
  112SBC   C01Y78798   8.696  -1.190  12.514
  112SBC   C00U78799   8.573  -0.799  12.438
  112SBC   C00S78800   8.508  -0.680  12.407
  112SBC   C00T78801   8.448  -0.603  12.507
  112SBC   C00R78802   8.485  -0.645  12.272
  112SBC   C00Q78803   8.411  -0.541  12.241
  112SBC   C00V78804   8.340  -0.469  12.341
  112SBC   C02478805   8.239  -0.378  12.314
  112SBC   C00X78806   8.216  -0.346  12.186
  112SBC   C00P78807   8.379  -0.513  12.111
  112SBC   C00O78808   8.419  -0.596  12.006
  112SBC   C00K78809   8.614  -0.935  12.107
  112SBC   N00078810   8.500  -1.041  11.789
  112SBC   C00L78811   8.655  -1.062  12.129
  112SBC   H00478812   8.783  -1.634  11.651
  112SBC   C02Q78813   8.738  -1.502  11.957
  112SBC   C00E78814   8.706  -1.318  12.163
  112SBC   C03078815   8.790  -1.632  12.352
  112SBC   O00378816   8.808  -1.668  12.481
  112SBC   C02S78817   8.717  -1.278  12.408
  112SBC   C03878818   8.788  -1.585  12.584
  112SBC   C03L78819   8.788  -1.635  12.715
  112SBC   H00878820   8.814  -1.736  12.743
  112SBC   C02V78821   8.700  -1.231  12.651
  112SBC   C03K78822   8.764  -1.551  12.830
  112SBC   C0BK78823   8.771  -1.594  12.958
  112SBC   H00T78824   8.803  -1.697  12.965
  112SBC   C03H78825   8.669  -1.198  12.895
  112SBC   C0BL78826   8.759  -1.515  13.071
  112SBC   C0GU78827   8.775  -1.573  13.199
  112SBC   H01O78828   8.801  -1.677  13.201
  112SBC   C0GT78829   8.760  -1.514  13.320
  112SBC   H01P78830   8.775  -1.554  13.419
  112SBC   C0GS78831   8.711  -1.386  13.309
  112SBC   C0GV78832   8.680  -1.293  13.415
  112SBC   C0GW78833   8.703  -1.302  13.555
  112SBC   H01Q78834   8.731  -1.397  13.596
  112SBC   C0GX78835   8.683  -1.195  13.633
  112SBC   H01R78836   8.700  -1.209  13.738
  112SBC   O00L78837   8.639  -1.074  13.585
  112SBC   C0GQ78838   8.641  -1.170  13.364
  112SBC   C03A78839   8.622  -1.098  12.989
  112SBC   C05L78840   8.606  -1.055  13.450
  112SBC   C04W78841   8.244  -0.570  13.567
  112SBC   C05I78842   8.169  -0.505  13.668
  112SBC   C05O78843   8.195  -0.523  13.803
  112SBC   C05278844   8.054  -0.429  13.639
  112SBC   C04V78845   8.216  -0.539  13.433
  112SBC   C04U78846   8.112  -0.454  13.400
  112SBC   N00978847   8.309  -0.605  13.839
  112SBC   C0GP78848   8.120  -0.463  13.901
  112SBC   C05W78849   8.006  -0.397  13.868
  112SBC   C07D78850   7.715  -0.232  14.032
  112SBC   C06J78851   7.658  -0.188  13.760
  112SBC   C05P78852   7.967  -0.379  13.736
  112SBC   C05R78853   7.716  -0.206  13.530
  112SBC   C04Z78854   8.030  -0.401  13.502
  112SBC   C04C78855   7.793  -0.204  13.307
  112SBC   C04G78856   7.866  -0.205  13.073
  112SBC   C04J78857   8.037  -0.294  12.879
  112SBC   C04T78858   8.089  -0.416  13.270
  112SBC   N00378859   8.294  -0.588  13.334
  112SBC   C04P78860   8.449  -0.764  13.259
  112SBC   C03D78861   8.547  -0.894  13.046
  112SBC   C02178862   8.553  -0.794  12.795
  112SBC   C03F78863   8.353  -0.550  12.974
  112SBC   C02278864   8.474  -0.640  12.635
  112SBC   C02A78865   8.235  -0.417  12.814
  112SBC   C02378866   8.362  -0.501  12.477
  112SBC   C02578867   8.160  -0.324  12.414
  112SBC   C02D78868   8.049  -0.245  12.379
  112SBC   C02E78869   8.021  -0.219  12.249
  112SBC   C02N78870   7.907  -0.152  12.205
  112SBC   C04N78871   8.131  -0.334  12.782
  112SBC   C02P78872   7.959  -0.206  12.481
  112SBC   C04I78873   7.929  -0.216  12.839
  112SBC   C04478874   7.696  -0.082  12.770
  112SBC   C04378875   7.846  -0.133  12.441
  112SBC   C05N78876   7.819  -0.110  12.304
  112SBC   C09U78877   7.455   0.075  12.210
  112SBC   C09V78878   7.330   0.132  12.183
  112SBC   C09X78879   7.286   0.166  12.061
  112SBC   C09Y78880   7.164   0.218  12.024
  112SBC   C0A178881   7.073   0.241  12.124
  112SBC   C0A278882   7.108   0.206  12.253
  112SBC   C0A478883   7.012   0.223  12.353
  112SBC   C07178884   7.039   0.189  12.484
  112SBC   C0A578885   6.943   0.191  12.582
  112SBC   C0A978886   6.818   0.237  12.545
  112SBC   C0A878887   6.795   0.283  12.415
  112SBC   C0AP78888   6.675   0.346  12.395
  112SBC   C0BY78889   6.659   0.382  12.263
  112SBC   C0BX78890   6.734   0.352  12.153
  112SBC   C0C278891   6.690   0.373  12.026
  112SBC   C0C378892   6.783   0.343  11.918
  112SBC   C0CT78893   6.913   0.309  11.953
  112SBC   C0C178894   6.557   0.413  12.000
  112SBC   C0C078895   6.484   0.475  12.110
  112SBC   C0A778896   6.858   0.300  12.185
  112SBC   C0BZ78897   6.542   0.452  12.239
  112SBC   C0BO78898   6.452   0.483  12.339
  112SBC   C0BN78899   6.468   0.433  12.467
  112SBC   C0BM78900   6.365   0.449  12.556
  112SBC   C0B978901   6.386   0.389  12.676
  112SBC   C0B878902   6.502   0.321  12.706
  112SBC   C0AD78903   6.600   0.312  12.614
  112SBC   C0AF78904   6.517   0.262  12.829
  112SBC   C0AG78905   6.431   0.289  12.934
  112SBC   C0B778906   6.313   0.360  12.903
  112SBC   C0AE78907   6.637   0.196  12.855
  112SBC   C0AB78908   6.739   0.189  12.765
  112SBC   C0AA78909   6.869   0.153  12.801
  112SBC   C0AJ78910   6.661   0.152  12.984
  112SBC   C0AK78911   6.787   0.122  13.017
  112SBC   C06W78912   6.783   0.093  13.151
  112SBC   C0AI78913   6.577   0.171  13.095
  112SBC   C0BP78914   6.332   0.533  12.287
  112SBC   C0BQ78915   6.223   0.549  12.382
  112SBC   C0BW78916   6.580   0.361  12.492
  112SBC   C0AC78917   6.720   0.245  12.643
  112SBC   C0A678918   6.888   0.270  12.315
  112SBC   C0A378919   6.950   0.284  12.087
  112SBC   C09Z78920   7.137   0.258  11.892
  112SBC   C09W78921   7.232   0.152  12.284
  112SBC   C07278922   7.260   0.121  12.414
  112SBC   C09H78923   7.381   0.149  11.964
  112SBC   C09G78924   7.357   0.201  11.841
  112SBC   C09P78925   7.467   0.172  11.764
  112SBC   C02O78926   7.765  -0.020  11.886
  112SBC   C02M78927   7.885  -0.129  12.070
  112SBC   C02F78928   8.109  -0.263  12.156
  112SBC   C00W78929   8.296  -0.410  12.093
  112SBC   C01R78930   8.385  -0.576  11.871
  112SBC   C01N78931   8.159  -0.299  11.801
  112SBC   C01L78932   8.020  -0.286  11.601
  112SBC   C01H78933   8.007  -0.479  11.304
  112SBC   C01K78934   8.241  -0.578  11.590
  112SBC   C01E78935   8.266  -0.806  11.433
  112SBC   C01G78936   8.031  -0.597  11.213
  112SBC   C01D78937   8.273  -0.922  11.359
  112SBC   C01A78938   8.320  -1.141  11.186
  112SBC   H00178939   8.349  -1.217  11.115
  112SBC   C01F78940   8.073  -0.833  11.066
  112SBC   C03P78941   7.945  -0.879  10.812
  112SBC   C03T78942   7.828  -0.681  10.837
  112SBC   C08I78943   7.631  -0.496  10.773
  112SBC   C08J78944   7.534  -0.403  10.755
  112SBC   C08L78945   7.391  -0.224  10.840
  112SBC   C09378946   7.238  -0.052  10.942
  112SBC   C08Z78947   7.440   0.005  11.130
  112SBC   C09T78948   7.038   0.237  11.262
  112SBC   C09S78949   7.384   0.205  11.351
  112SBC   C09Q78950   7.454   0.198  11.628
  112SBC   C09F78951   7.235   0.258  11.800
  112SBC   C09E78952   7.082   0.307  11.484
  112SBC   C0A078953   7.010   0.301  11.855
  112SBC   C0CU78954   6.737   0.354  11.787
  112SBC   C0CR78955   6.603   0.376  11.761
  112SBC   C0CZ78956   6.558   0.378  11.626
  112SBC   C0DA78957   6.977   0.303  11.386
  112SBC   C0D978958   6.739   0.529  11.256
  112SBC   H00V78959   6.821   0.597  11.233
  112SBC   C0CY78960   6.654   0.381  11.523
  112SBC   C0DF78961   6.606   0.571  11.253
  112SBC   C0DE78962   6.507   0.670  11.227
  112SBC   C0GI78963   6.499   0.775  11.136
  112SBC   H01K78964   6.581   0.795  11.069
  112SBC   C0GJ78965   6.394   0.858  11.134
  112SBC   H01J78966   6.418   0.938  11.064
  112SBC   O00I78967   6.286   0.849  11.224
  112SBC   C0GH78968   6.283   0.742  11.310
  112SBC   C0GG78969   6.172   0.744  11.402
  112SBC   O00G78970   6.075   0.840  11.376
  112SBC   C0G878971   5.983   0.884  11.467
  112SBC   C0G978972   5.888   0.972  11.416
  112SBC   H01G78973   5.892   0.998  11.311
  112SBC   C0GA78974   5.775   0.999  11.493
  112SBC   H01H78975   5.703   1.068  11.453
  112SBC   C0GB78976   5.765   0.967  11.632
  112SBC   C0EP78977   5.870   0.884  11.683
  112SBC   C0E878978   5.877   0.866  11.830
  112SBC   C0CK78979   5.955   0.791  11.921
  112SBC   C0CL78980   6.013   0.673  11.882
  112SBC   C0E978981   6.062   0.651  11.746
  112SBC   C0GE78982   6.061   0.721  11.616
  112SBC   C0E778983   5.762   0.899  11.907
  112SBC   C0CJ78984   5.777   0.862  12.044
  112SBC   C0E678985   5.666   0.878  12.121
  112SBC   H00Y78986   5.669   0.842  12.223
  112SBC   C0EO78987   5.565   0.956  12.076
  112SBC   H01178988   5.496   0.985  12.154
  112SBC   C0G678989   5.555   1.004  11.942
  112SBC   C0G578990   5.452   1.084  11.883
  112SBC   H01F78991   5.383   1.129  11.953
  112SBC   C0GD78992   5.454   1.123  11.756
  112SBC   H01I78993   5.382   1.200  11.731
  112SBC   O00H78994   5.547   1.072  11.669
  112SBC   C0EQ78995   5.661   0.975  11.855
  112SBC   C0GC78996   5.661   1.012  11.721
  112SBC   C0G778997   5.972   0.827  11.598
  112SBC   C0DD78998   6.388   0.648  11.309
  112SBC   C0GF78999   6.157   0.668  11.524
  112SBC   C0CO79000   6.133   0.535  11.766
  112SBC   C0D079001   6.419   0.415  11.604
  112SBC   C0C479002   6.508   0.407  11.870
  112SBC   C0CN79003   6.127   0.486  11.895
  112SBC   C0CP79004   6.357   0.545  12.146
  112SBC   C0CM79005   6.043   0.566  11.972
  112SBC   C0CI79006   5.909   0.807  12.064
  112SBC   C0CD79007   5.854   0.812  12.548
  112SBC   C0BR79008   6.109   0.626  12.346
  112SBC   C0CS79009   6.248   0.509  12.519
  112SBC   C0B679010   6.289   0.406  12.775
  112SBC   C0CG79011   5.966   0.659  12.694
  112SBC   C0CF79012   5.870   0.756  12.672
  112SBC   C0E579013   5.676   0.956  12.639
  112SBC   C0DT79014   5.509   1.019  12.849
  112SBC   C0DL79015   5.711   0.756  13.006
  112SBC   C0DM79016   5.724   0.704  13.131
  112SBC   C0DY79017   5.540   0.830  13.217
  112SBC   C0DU79018   5.416   1.040  12.942
  112SBC   C0F079019   5.265   1.199  13.038
  112SBC   C0F479020   5.145   1.331  13.244
  112SBC   C0FG79021   5.284   1.019  13.385
  112SBC   O00B79022   5.123   1.323  13.492
  112SBC   C0FN79023   5.305   1.002  13.516
  112SBC   C0DZ79024   5.459   0.873  13.324
  112SBC   O00C79025   5.623   0.699  13.600
  112SBC   C0FR79026   5.704   0.610  13.637
  112SBC   O00D79027   5.717   0.583  13.754
  112SBC   C0E079028   5.637   0.732  13.235
  112SBC   C0E379029   5.774   0.549  13.523
  112SBC   C0AW79030   5.868   0.449  13.542
  112SBC   C0AV79031   5.884   0.366  13.660
  112SBC   H00Q79032   5.814   0.376  13.742
  112SBC   C0AU79033   5.995   0.273  13.677
  112SBC   H00R79034   5.995   0.216  13.769
  112SBC   C0AT79035   6.087   0.267  13.574
  112SBC   C0AS79036   6.227   0.213  13.549
  112SBC   C0AR79037   6.302   0.146  13.658
  112SBC   C0BE79038   6.061   0.337  13.456
  112SBC   C0DN79039   5.827   0.614  13.151
  112SBC   C0AX79040   5.953   0.426  13.434
  112SBC   C0BB79041   6.016   0.490  13.074
  112SBC   C0BD79042   6.159   0.315  13.362
  112SBC   C0B279043   6.224   0.387  13.005
  112SBC   C0AH79044   6.457   0.248  13.071
  112SBC   C0BF79045   6.272   0.244  13.412
  112SBC   C0AL79046   6.653   0.118  13.208
  112SBC   C07U79047   6.529   0.138  13.533
  112SBC   C0AQ79048   6.439   0.120  13.641
  112SBC   C0BG79049   6.269   0.109  13.797
  112SBC   C0FY79050   6.484   0.154  14.062
  112SBC   C0BJ79051   6.202   0.189  13.902
  112SBC   H00S79052   6.141   0.278  13.890
  112SBC   C0FZ79053   6.419   0.231  14.157
  112SBC   C07S79054   6.618   0.188  14.022
  112SBC   C0G179055   6.668   0.456  14.294
  112SBC   C07K79056   7.002   0.468  14.137
  112SBC   C07H79057   6.886   0.270  13.968
  112SBC   C06B79058   7.208   0.138  13.975
  112SBC   C06N79059   7.217   0.060  13.768
  112SBC   C06679060   6.846   0.144  13.743
  112SBC   C06279061   6.882   0.076  13.448
  112SBC   C05Y79062   7.255   0.014  13.513
  112SBC   C06179063   6.930   0.007  13.334
  112SBC   C05H79064   7.257   0.057  13.182
  112SBC   C06V79065   6.903   0.048  13.199
  112SBC   C06Y79066   6.897   0.125  12.930
  112SBC   C05C79067   7.268   0.066  12.916
  112SBC   C06Z79068   6.973   0.153  12.712
  112SBC   C07079069   7.163   0.141  12.521
  112SBC   C05B79070   7.364   0.053  12.812
  112SBC   C05779071   7.546   0.003  12.605
  112SBC   C05979072   7.387   0.076  12.443
  113SBC   C05879073   3.476   1.651  13.350
  113SBC   C05A79074   3.365   1.733  13.385
  113SBC   C06Q79075   3.318   1.825  13.295
  113SBC   C06R79076   3.208   1.912  13.331
  113SBC   C06S79077   3.150   1.912  13.461
  113SBC   C06T79078   3.041   1.998  13.491
  113SBC   C06U79079   2.970   2.025  13.617
  113SBC   C06X79080   2.962   1.953  13.743
  113SBC   C06079081   2.890   2.036  13.839
  113SBC   C05Z79082   2.806   1.995  13.951
  113SBC   C06879083   2.702   2.108  13.954
  113SBC   C06779084   2.596   2.139  14.053
  113SBC   C06979085   2.565   2.035  14.152
  113SBC   C06A79086   2.470   2.047  14.260
  113SBC   C07379087   2.430   2.159  14.336
  113SBC   C07P79088   2.427   2.147  14.473
  113SBC   C07O79089   2.518   2.067  14.548
  113SBC   H00D79090   2.602   2.012  14.509
  113SBC   C07N79091   2.500   2.044  14.687
  113SBC   H00E79092   2.553   1.974  14.751
  113SBC   C07M79093   2.394   2.111  14.751
  113SBC   H00F79094   2.379   2.094  14.857
  113SBC   C07L79095   2.308   2.197  14.682
  113SBC   C07Q79096   2.198   2.270  14.739
  113SBC   H00G79097   2.180   2.257  14.845
  113SBC   O00F79098   2.114   2.356  14.668
  113SBC   C07J79099   2.149   2.384  14.544
  113SBC   C07I79100   2.254   2.314  14.476
  113SBC   N00479101   2.292   2.351  14.343
  113SBC   C07R79102   2.249   2.476  14.294
  113SBC   C07T79103   2.135   2.535  14.358
  113SBC   C0FX79104   2.077   2.649  14.313
  113SBC   C0FW79105   1.956   2.704  14.349
  113SBC   C0G079106   1.901   2.651  14.465
  113SBC   C0G279107   1.780   2.702  14.523
  113SBC   H01E79108   1.756   2.666  14.622
  113SBC   C0G379109   1.715   2.804  14.450
  113SBC   H01C79110   1.615   2.834  14.475
  113SBC   C0G479111   1.769   2.855  14.328
  113SBC   H01D79112   1.718   2.921  14.260
  113SBC   O00E79113   1.966   2.545  14.528
  113SBC   C0FV79114   1.897   2.811  14.278
  113SBC   C0FU79115   1.965   2.857  14.162
  113SBC   H01B79116   1.925   2.944  14.112
  113SBC   C0FT79117   2.089   2.818  14.134
  113SBC   C0FS79118   2.191   2.823  14.022
  113SBC   C0BI79119   2.306   2.761  14.073
  113SBC   C0BH79120   2.408   2.741  13.977
  113SBC   C07F79121   2.458   2.613  13.940
  113SBC   C07E79122   2.469   2.498  14.009
  113SBC   C07G79123   2.413   2.465  14.129
  113SBC   C07479124   2.441   2.332  14.154
  113SBC   C06579125   2.522   2.381  13.952
  113SBC   C06479126   2.561   2.391  13.822
  113SBC   C06379127   2.637   2.297  13.753
  113SBC   C07579128   2.660   2.366  13.621
  113SBC   C0AM79129   2.590   2.494  13.603
  113SBC   C0AN79130   2.585   2.590  13.485
  113SBC   C0AO79131   2.647   2.586  13.345
  113SBC   C0B179132   2.630   2.691  13.250
  113SBC   C0B079133   2.550   2.798  13.274
  113SBC   C0AZ79134   2.516   2.902  13.183
  113SBC   C0AY79135   2.429   3.000  13.226
  113SBC   N00779136   2.392   3.101  13.133
  113SBC   C0E279137   2.315   3.213  13.181
  113SBC   C0E179138   2.272   3.303  13.090
  113SBC   C0E479139   2.183   3.412  13.127
  113SBC   C0FF79140   2.144   3.510  13.036
  113SBC   C0FJ79141   2.067   3.636  13.054
  113SBC   C0FK79142   2.041   3.729  13.165
  113SBC   H01679143   2.051   3.716  13.272
  113SBC   C0FL79144   1.998   3.851  13.096
  113SBC   H01779145   1.982   3.949  13.139
  113SBC   C0FM79146   1.987   3.829  12.955
  113SBC   C0FH79147   1.979   3.887  12.815
  113SBC   C0FI79148   2.020   3.770  12.741
  113SBC   C0F379149   2.092   3.785  12.620
  113SBC   C0F279150   2.159   3.672  12.583
  113SBC   C0DW79151   2.197   3.569  12.670
  113SBC   C0FE79152   2.142   3.566  12.793
  113SBC   C0DV79153   2.294   3.483  12.642
  113SBC   C0DX79154   2.333   3.388  12.736
  113SBC   C0DK79155   2.435   3.299  12.711
  113SBC   C0DJ79156   2.500   3.311  12.584
  113SBC   C0DI79157   2.591   3.216  12.541
  113SBC   C0DH79158   2.624   3.113  12.630
  113SBC   C0DG79159   2.560   3.106  12.756
  113SBC   C0BV79160   2.595   3.000  12.843
  113SBC   C0BC79161   2.529   2.991  12.964
  113SBC   C0BA79162   2.691   2.907  12.813
  113SBC   C0B479163   2.721   2.804  12.905
  113SBC   C0B379164   2.657   2.798  13.035
  113SBC   C0B579165   2.813   2.707  12.868
  113SBC   C0BU79166   2.875   2.718  12.740
  113SBC   C0BT79167   2.843   2.817  12.645
  113SBC   C0BS79168   2.905   2.822  12.519
  113SBC   C0CC79169   2.877   2.937  12.438
  113SBC   C0CB79170   2.950   2.952  12.321
  113SBC   C0CH79171   2.955   3.089  12.272
  113SBC   C0DO79172   2.842   3.173  12.283
  113SBC   C0DP79173   2.816   3.285  12.200
  113SBC   C0EA79174   2.900   3.313  12.087
  113SBC   H01279175   2.986   3.252  12.065
  113SBC   O00979176   2.883   3.413  12.000
  113SBC   C0EH79177   2.774   3.489  12.022
  113SBC   C0EG79178   2.753   3.600  11.934
  113SBC   C0EJ79179   2.814   3.649  11.822
  113SBC   H01079180   2.907   3.607  11.788
  113SBC   C0EK79181   2.755   3.779  11.787
  113SBC   H00Z79182   2.784   3.856  11.717
  113SBC   C0EL79183   2.651   3.798  11.882
  113SBC   C0EM79184   2.553   3.906  11.893
  113SBC   C0EW79185   2.536   4.025  11.808
  113SBC   H01379186   2.599   4.035  11.721
  113SBC   C0EX79187   2.429   4.119  11.835
  113SBC   H01479188   2.422   4.209  11.775
  113SBC   C0F179189   2.348   4.099  11.957
  113SBC   C0EU79190   2.366   3.981  12.031
  113SBC   C0ET79191   2.311   3.955  12.156
  113SBC   C0ES79192   2.379   3.835  12.196
  113SBC   C0EE79193   2.473   3.793  12.101
  113SBC   C0ED79194   2.563   3.686  12.080
  113SBC   C0EC79195   2.588   3.577  12.167
  113SBC   C0EB79196   2.507   3.541  12.284
  113SBC   C0EN79197   2.396   3.627  12.323
  113SBC   C0ER79198   2.319   3.584  12.434
  113SBC   C0DS79199   2.535   3.434  12.372
  113SBC   C0DR79200   2.635   3.345  12.341
  113SBC   C0EY79201   2.331   3.747  12.283
  113SBC   C0EZ79202   2.227   3.787  12.380
  113SBC   C0F579203   2.158   3.911  12.423
  113SBC   C0F679204   2.156   4.027  12.348
  113SBC   N00879205   2.082   4.139  12.409
  113SBC   C0F779206   2.023   4.134  12.541
  113SBC   C0FQ79207   1.969   4.257  12.588
  113SBC   H01879208   1.928   4.254  12.688
  113SBC   C0FP79209   1.962   4.367  12.506
  113SBC   H01979210   1.918   4.459  12.541
  113SBC   C0FO79211   2.008   4.366  12.375
  113SBC   H01A79212   1.999   4.450  12.308
  113SBC   C0F879213   2.034   4.014  12.613
  113SBC   C0F979214   2.067   4.254  12.326
  113SBC   C0FA79215   2.103   4.256  12.187
  113SBC   H01579216   2.070   4.336  12.123
  113SBC   C0FB79217   2.191   4.160  12.137
  113SBC   C0FD79218   2.214   4.048  12.216
  113SBC   C0FC79219   2.254   4.190  12.010
  113SBC   O00A79220   2.232   4.293  11.945
  113SBC   C0EV79221   2.463   3.891  12.000
  113SBC   C0EF79222   2.650   3.690  11.972
  113SBC   C0EI79223   2.688   3.483  12.138
  113SBC   C0DQ79224   2.714   3.375  12.225
  113SBC   C0CE79225   2.765   3.147  12.397
  113SBC   H00U79226   3.036   3.120  12.208
  113SBC   C0CA79227   3.015   2.842  12.260
  113SBC   C0C979228   3.037   2.721  12.333
  113SBC   C0C879229   3.077   2.604  12.265
  113SBC   C0C779230   3.148   2.484  12.309
  113SBC   C0C679231   3.180   2.394  12.209
  113SBC   C0C579232   3.266   2.283  12.181
  113SBC   C0CQ79233   3.282   2.246  12.040
  113SBC   C0D179234   3.256   2.343  11.944
  113SBC   C0D879235   3.368   2.356  11.861
  113SBC   C0D779236   3.438   2.228  11.870
  113SBC   C0D679237   3.569   2.201  11.815
  113SBC   C0D579238   3.634   2.070  11.825
  113SBC   C0D479239   3.599   1.964  11.917
  113SBC   C0D379240   3.726   1.889  11.936
  113SBC   C0CX79241   3.730   1.831  12.062
  113SBC   C0CW79242   3.639   1.913  12.150
  113SBC   C0CV79243   3.608   1.928  12.290
  113SBC   C0D279244   3.681   1.852  12.386
  113SBC   C09D79245   3.796   1.764  12.365
  113SBC   C09C79246   3.871   1.714  12.474
  113SBC   C09B79247   3.978   1.619  12.465
  113SBC   C09A79248   4.027   1.594  12.332
  113SBC   C09979249   3.978   1.654  12.223
  113SBC   C09879250   3.999   1.576  12.106
  113SBC   C08Y79251   4.044   1.447  12.154
  113SBC   C08X79252   4.049   1.318  12.087
  113SBC   C08W79253   3.982   1.301  11.958
  113SBC   C08U79254   3.903   1.398  11.881
  113SBC   C08V79255   3.851   1.527  11.913
  113SBC   C0DC79256   3.787   1.571  11.792
  113SBC   H00W79257   3.747   1.671  11.789
  113SBC   C0DB79258   3.798   1.473  11.689
  113SBC   H00X79259   3.765   1.485  11.587
  113SBC   C08T79260   3.862   1.362  11.748
  113SBC   C08S79261   3.874   1.240  11.694
  113SBC   H00N79262   3.830   1.222  11.597
  113SBC   C08R79263   3.934   1.138  11.761
  113SBC   C08Q79264   3.937   1.003  11.718
  113SBC   H00O79265   3.896   0.981  11.621
  113SBC   C08P79266   3.996   0.895  11.781
  113SBC   C08O79267   4.005   0.767  11.723
  113SBC   H00P79268   3.964   0.744  11.626
  113SBC   C08N79269   4.066   0.656  11.797
  113SBC   C08M79270   4.080   0.527  11.740
  113SBC   O00879271   4.042   0.508  11.620
  113SBC   O00779272   4.134   0.427  11.812
  113SBC   C08H79273   4.178   0.451  11.939
  113SBC   C08G79274   4.240   0.351  12.019
  113SBC   C03V79275   4.264   0.219  11.986
  113SBC   H00979276   4.243   0.194  11.883
  113SBC   C03U79277   4.330   0.122  12.067
  113SBC   C03W79278   4.367  -0.017  12.040
  113SBC   H00A79279   4.356  -0.063  11.943
  113SBC   C03X79280   4.426  -0.095  12.131
  113SBC   H00B79281   4.436  -0.201  12.108
  113SBC   O00579282   4.451  -0.053  12.260
  113SBC   C03O79283   4.416   0.073  12.289
  113SBC   C03N79284   4.449   0.116  12.418
  113SBC   O00079285   4.502   0.024  12.498
  113SBC   C01979286   4.502   0.046  12.633
  113SBC   C01879287   4.466   0.171  12.683
  113SBC   C01779288   4.428   0.276  12.596
  113SBC   C01679289   4.397   0.402  12.641
  113SBC   C01579290   4.402   0.412  12.780
  113SBC   C01479291   4.371   0.533  12.839
  113SBC   C01379292   4.342   0.647  12.757
  113SBC   C01279293   4.316   0.746  12.862
  113SBC   C01179294   4.347   0.690  12.989
  113SBC   C01079295   4.323   0.757  13.100
  113SBC   C00Z79296   4.315   0.709  13.226
  113SBC   C00Y79297   4.256   0.816  13.297
  113SBC   C01O79298   4.243   0.930  13.221
  113SBC   C01P79299   4.138   1.019  13.244
  113SBC   C02L79300   4.099   1.098  13.142
  113SBC   C02K79301   4.148   1.065  13.015
  113SBC   C01M79302   4.235   0.952  12.982
  113SBC   C02J79303   4.105   1.161  12.922
  113SBC   C02I79304   4.150   1.174  12.794
  113SBC   C02H79305   4.218   1.076  12.716
  113SBC   C01Q79306   4.259   0.943  12.739
  113SBC   C02G79307   4.299   0.887  12.613
  113SBC   C08979308   4.292   0.996  12.521
  113SBC   C08879309   4.269   0.951  12.387
  113SBC   C08779310   4.290   0.801  12.407
  113SBC   C08679311   4.263   0.702  12.308
  113SBC   C03S79312   4.293   0.565  12.324
  113SBC   N00679313   4.264   0.506  12.199
  113SBC   C08F79314   4.211   0.599  12.117
  113SBC   C01J79315   4.346   0.474  12.418
  113SBC   C03R79316   4.369   0.342  12.373
  113SBC   C03Q79317   4.335   0.296  12.241
  113SBC   C08E79318   4.213   0.720  12.176
  113SBC   C08D79319   4.165   0.837  12.107
  113SBC   C08K79320   4.103   0.814  11.985
  113SBC   C08C79321   4.165   0.973  12.159
  113SBC   C09179322   4.106   1.078  12.082
  113SBC   C09279323   4.047   1.054  11.956
  113SBC   C08B79324   4.222   1.031  12.274
  113SBC   C09079325   4.197   1.180  12.269
  113SBC   C09479326   4.190   1.267  12.386
  113SBC   C09579327   4.127   1.395  12.388
  113SBC   C09R79328   4.097   1.421  12.519
  113SBC   C09779329   4.132   1.317  12.606
  113SBC   C09679330   4.198   1.226  12.525
  113SBC   C01I79331   4.312   0.762  12.547
  113SBC   C08A79332   4.239   1.107  12.582
  113SBC   C09L79333   4.103   1.294  12.745
  113SBC   C09K79334   4.028   1.365  12.844
  113SBC   C09J79335   3.977   1.500  12.825
  113SBC   C09I79336   3.874   1.542  12.902
  113SBC   C09O79337   3.812   1.507  13.028
  113SBC   C09N79338   3.859   1.404  13.112
  113SBC   C09M79339   3.956   1.302  13.085
  113SBC   C06O79340   3.805   1.395  13.242
  113SBC   C05M79341   3.702   1.488  13.277
  113SBC   C06P79342   3.648   1.581  13.189
  113SBC   C04279343   3.635   1.474  13.400
  113SBC   C04179344   3.672   1.375  13.494
  113SBC   C04079345   3.606   1.360  13.620
  113SBC   C03Z79346   3.643   1.261  13.709
  113SBC   C03Y79347   3.753   1.177  13.673
  113SBC   C02779348   3.791   1.077  13.765
  113SBC   C02679349   3.889   0.990  13.732
  113SBC   C02879350   3.911   0.880  13.820
  113SBC   C02979351   3.843   0.866  13.938
  113SBC   C02B79352   3.868   0.753  14.013
  113SBC   C02C79353   3.794   0.733  14.131
  113SBC   C02X79354   3.808   0.617  14.201
  113SBC   C03E79355   3.733   0.603  14.315
  113SBC   C03G79356   3.631   0.678  14.356
  113SBC   C04Q79357   3.605   0.787  14.276
  113SBC   C04R79358   3.513   0.880  14.312
  113SBC   C04S79359   3.481   0.992  14.232
  113SBC   C04L79360   3.558   1.015  14.118
  113SBC   C04M79361   3.662   0.928  14.089
  113SBC   C04K79362   3.527   1.111  14.025
  113SBC   C04F79363   3.421   1.197  14.057
  113SBC   C04E79364   3.343   1.182  14.172
  113SBC   C04D79365   3.243   1.270  14.205
  113SBC   C05079366   3.155   1.234  14.308
  113SBC   C05179367   3.041   1.316  14.325
  113SBC   C05Q79368   2.957   1.285  14.433
  113SBC   C05V79369   2.844   1.361  14.453
  113SBC   N00579370   2.746   1.316  14.543
  113SBC   C07V79371   2.773   1.202  14.621
  113SBC   C08279372   2.685   1.170  14.724
  113SBC   C08179373   2.564   1.231  14.737
  113SBC   C07C79374   2.536   1.335  14.651
  113SBC   C07B79375   2.410   1.408  14.667
  113SBC   C08079376   2.313   1.363  14.757
  113SBC   C07Z79377   2.193   1.429  14.765
  113SBC   H00L79378   2.118   1.389  14.832
  113SBC   C07979379   2.166   1.545  14.693
  113SBC   C07879380   2.267   1.599  14.608
  113SBC   C07779381   2.244   1.713  14.534
  113SBC   C07X79382   2.118   1.780  14.543
  113SBC   H00I79383   2.100   1.874  14.492
  113SBC   C07Y79384   2.014   1.732  14.626
  113SBC   H00H79385   1.916   1.776  14.629
  113SBC   C07679386   2.347   1.758  14.453
  113SBC   C06C79387   2.328   1.877  14.384
  113SBC   H00C79388   2.253   1.953  14.399
  113SBC   C06F79389   2.463   1.681  14.434
  113SBC   C06E79390   2.558   1.717  14.337
  113SBC   C06G79391   2.679   1.654  14.311
  113SBC   C06H79392   2.702   1.541  14.389
  113SBC   C06I79393   2.602   1.496  14.482
  113SBC   C06L79394   2.769   1.707  14.213
  113SBC   C06M79395   2.742   1.829  14.137
  113SBC   C06K79396   2.880   1.627  14.187
  113SBC   C05S79397   2.907   1.513  14.274
  113SBC   C05U79398   2.967   1.659  14.085
  113SBC   C05X79399   2.944   1.774  14.001
  113SBC   C05G79400   3.033   1.772  13.886
  113SBC   C05F79401   3.130   1.678  13.866
  113SBC   C05E79402   3.200   1.694  13.756
  113SBC   C04879403   3.300   1.606  13.715
  113SBC   C05679404   3.358   1.625  13.590
  113SBC   C04579405   3.464   1.543  13.559
  113SBC   C04779406   3.336   1.505  13.802
  113SBC   C04979407   3.266   1.490  13.923
  113SBC   C04B79408   3.292   1.388  14.012
  113SBC   C04679409   3.439   1.432  13.772
  113SBC   C04H79410   3.467   1.329  13.856
  113SBC   C05D79411   3.151   1.797  13.679
  113SBC   C04A79412   3.160   1.575  13.954
  113SBC   C05T79413   3.068   1.560  14.057
  113SBC   C05579414   3.099   1.454  14.140
  113SBC   C06D79415   2.537   1.838  14.270
  113SBC   C07W79416   2.483   1.570  14.504
  113SBC   C08579417   2.044   1.614  14.695
  113SBC   H00M79418   1.961   1.567  14.747
  113SBC   C08479419   2.350   1.256  14.845
  113SBC   H00J79420   2.283   1.222  14.922
  113SBC   C07A79421   2.391   1.529  14.595
  113SBC   C08379422   2.470   1.193  14.830
  113SBC   H00K79423   2.492   1.115  14.902
  113SBC   O00K79424   2.710   1.068  14.804
  113SBC   C0GO79425   2.836   1.005  14.812
  113SBC   C0GN79426   2.875   0.919  14.907
  113SBC   H01L79427   2.809   0.888  14.986
  113SBC   C0GM79428   3.010   0.867  14.905
  113SBC   C0GL79429   3.054   0.803  15.011
  113SBC   H01M79430   2.999   0.797  15.104
  113SBC   O00J79431   3.182   0.742  15.012
  113SBC   C0GK79432   3.243   0.733  14.889
  113SBC   H01N79433   3.336   0.679  14.876
  113SBC   C05K79434   3.197   0.805  14.782
  113SBC   C05J79435   3.267   0.806  14.656
  113SBC   C04Y79436   3.365   0.715  14.611
  113SBC   C04X79437   3.447   0.734  14.500
  113SBC   O00679438   3.377   0.597  14.678
  113SBC   C05379439   3.466   0.497  14.635
  113SBC   C04O79440   3.558   0.521  14.533
  113SBC   C03C79441   3.658   0.433  14.475
  113SBC   C03B79442   3.682   0.292  14.485
  113SBC   C05479443   3.626   0.201  14.571
  113SBC   C0GR79444   3.659   0.062  14.581
  113SBC   C03M79445   3.740  -0.035  14.499
  113SBC   C03I79446   3.816  -0.003  14.376
  113SBC   C03J79447   3.873  -0.111  14.302
  113SBC   N00279448   3.939  -0.087  14.176
  113SBC   C02U79449   3.996  -0.201  14.104
  113SBC   C02T79450   4.076  -0.177  13.989
  113SBC   C02Z79451   4.120  -0.284  13.912
  113SBC   N00179452   4.200  -0.267  13.797
  113SBC   C02R79453   4.254  -0.378  13.729
  113SBC   C03279454   4.211  -0.505  13.761
  113SBC   C03179455   4.117  -0.523  13.870
  113SBC   H00779456   4.085  -0.625  13.884
  113SBC   C03379457   4.274  -0.609  13.683
  113SBC   H00379458   4.244  -0.709  13.709
  113SBC   O00479459   4.383  -0.587  13.598
  113SBC   C03479460   4.421  -0.456  13.571
  113SBC   C03579461   4.532  -0.428  13.487
  113SBC   C03679462   4.581  -0.298  13.469
  113SBC   H00579463   4.668  -0.279  13.408
  113SBC   C03779464   4.509  -0.191  13.533
  113SBC   H00679465   4.552  -0.092  13.530
  113SBC   C00D79466   4.388  -0.216  13.600
  113SBC   C00C79467   4.309  -0.112  13.640
  113SBC   C00B79468   4.309   0.024  13.585
  113SBC   C00A79469   4.356   0.106  13.460
  113SBC   C00979470   4.337   0.240  13.507
  113SBC   C00879471   4.330   0.357  13.428
  113SBC   C00779472   4.361   0.347  13.294
  113SBC   C00679473   4.362   0.463  13.220
  113SBC   C00579474   4.386   0.446  13.080
  113SBC   C00479475   4.406   0.323  13.018
  113SBC   C00379476   4.403   0.207  13.093
  113SBC   C00279477   4.430   0.081  13.037
  113SBC   C01C79478   4.474   0.076  12.904
  113SBC   C01B79479   4.520  -0.047  12.851
  113SBC   H00079480   4.551  -0.136  12.904
  113SBC   C00179481   4.426  -0.032  13.118
  113SBC   C00079482   4.380  -0.020  13.250
  113SBC   C01U79483   4.348  -0.154  13.287
  113SBC   H00279484   4.295  -0.205  13.366
  113SBC   C01T79485   4.399  -0.241  13.183
  113SBC   O00279486   4.408  -0.365  13.181
  113SBC   O00179487   4.430  -0.162  13.077
  113SBC   C01S79488   4.376   0.218  13.237
  113SBC   C00N79489   4.280   0.470  13.494
  113SBC   C00M79490   4.228   0.472  13.624
  113SBC   C00J79491   4.231   0.358  13.698
  113SBC   C00I79492   4.165   0.336  13.815
  113SBC   C00H79493   4.144   0.213  13.866
  113SBC   C00G79494   4.195   0.103  13.800
  113SBC   C00F79495   4.175  -0.029  13.837
  113SBC   C01X79496   4.071   0.188  13.978
  113SBC   C01W79497   4.017   0.297  14.042
  113SBC   C01V79498   4.033   0.427  13.985
  113SBC   C02079499   3.959   0.533  14.037
  113SBC   C01Z79500   3.944   0.276  14.159
  113SBC   C02Y79501   3.888   0.389  14.211
  113SBC   C03979502   3.816   0.372  14.324
  113SBC   C02W79503   3.915   0.150  14.208
  113SBC   C01Y79504   4.050   0.055  14.023
  113SBC   C00U79505   4.097   0.443  13.864
  113SBC   C00S79506   4.097   0.566  13.802
  113SBC   C00T79507   4.019   0.669  13.850
  113SBC   C00R79508   4.158   0.581  13.676
  113SBC   C00Q79509   4.148   0.694  13.606
  113SBC   C00V79510   4.070   0.793  13.652
  113SBC   C02479511   4.048   0.905  13.576
  113SBC   C00X79512   4.119   0.919  13.459
  113SBC   C00P79513   4.220   0.702  13.486
  113SBC   C00O79514   4.286   0.587  13.422
  113SBC   C00K79515   4.291   0.244  13.634
  113SBC   N00079516   4.365   0.098  13.319
  113SBC   C00L79517   4.265   0.120  13.677
  113SBC   H00479518   4.571  -0.519  13.444
  113SBC   C02Q79519   4.352  -0.348  13.633
  113SBC   C00E79520   4.230  -0.132  13.756
  113SBC   C03079521   4.071  -0.413  13.949
  113SBC   O00379522   4.001  -0.440  14.063
  113SBC   C02S79523   4.102  -0.050  13.950
  113SBC   C03879524   3.965  -0.332  14.144
  113SBC   C03L79525   3.892  -0.353  14.258
  113SBC   H00879526   3.875  -0.453  14.294
  113SBC   C02V79527   3.966   0.039  14.135
  113SBC   C03K79528   3.850  -0.246  14.341
  113SBC   C0BK79529   3.785  -0.267  14.460
  113SBC   H00T79530   3.775  -0.371  14.488
  113SBC   C03H79531   3.839   0.130  14.325
  113SBC   C0BL79532   3.737  -0.169  14.546
  113SBC   C0GU79533   3.672  -0.198  14.673
  113SBC   H01O79534   3.697  -0.296  14.709
  113SBC   C0GT79535   3.620  -0.102  14.759
  113SBC   H01P79536   3.582  -0.130  14.857
  113SBC   C0GS79537   3.606   0.025  14.706
  113SBC   C0GV79538   3.533   0.134  14.762
  113SBC   C0GW79539   3.452   0.146  14.879
  113SBC   H01Q79540   3.445   0.057  14.941
  113SBC   C0GX79541   3.388   0.267  14.904
  113SBC   H01R79542   3.329   0.272  14.994
  113SBC   O00L79543   3.392   0.380  14.827
  113SBC   C0GQ79544   3.540   0.249  14.678
  113SBC   C03A79545   3.777   0.249  14.382
  113SBC   C05L79546   3.470   0.376  14.708
  113SBC   C04W79547   3.242   0.916  14.567
  113SBC   C05I79548   3.129   0.996  14.585
  113SBC   C05O79549   3.047   0.979  14.699
  113SBC   C05279550   3.100   1.097  14.496
  113SBC   C04V79551   3.318   0.938  14.453
  113SBC   C04U79552   3.295   1.048  14.373
  113SBC   N00979553   3.083   0.883  14.792
  113SBC   C0GP79554   2.927   1.045  14.709
  113SBC   C05W79555   2.892   1.141  14.614
  113SBC   C07D79556   2.627   1.386  14.556
  113SBC   C06J79557   2.817   1.471  14.370
  113SBC   C05P79558   2.981   1.172  14.512
  113SBC   C05R79559   3.016   1.428  14.248
  113SBC   C04Z79560   3.186   1.129  14.395
  113SBC   C04C79561   3.215   1.373  14.121
  113SBC   C04G79562   3.395   1.306  13.977
  113SBC   C04J79563   3.605   1.138  13.913
  113SBC   C04T79564   3.372   1.074  14.262
  113SBC   N00379565   3.426   0.848  14.423
  113SBC   C04P79566   3.550   0.644  14.463
  113SBC   C03D79567   3.745   0.479  14.377
  113SBC   C02179568   3.891   0.513  14.154
  113SBC   C03F79569   3.690   0.820  14.171
  113SBC   C02279570   3.954   0.651  13.971
  113SBC   C02A79571   3.741   0.955  13.971
  113SBC   C02379572   3.998   0.780  13.776
  113SBC   C02579573   3.961   1.005  13.613
  113SBC   C02D79574   3.931   1.113  13.529
  113SBC   C02E79575   3.989   1.112  13.401
  113SBC   C02N79576   3.947   1.208  13.300
  113SBC   C04N79577   3.715   1.058  13.884
  113SBC   C02P79578   3.825   1.196  13.554
  113SBC   C04I79579   3.574   1.243  13.826
  113SBC   C04479580   3.501   1.445  13.648
  113SBC   C04379581   3.785   1.294  13.467
  113SBC   C05N79582   3.845   1.299  13.336
  113SBC   C09U79583   3.703   1.592  13.060
  113SBC   C09V79584   3.643   1.681  12.972
  113SBC   C09X79585   3.694   1.707  12.849
  113SBC   C09Y79586   3.641   1.783  12.749
  113SBC   C0A179587   3.527   1.856  12.780
  113SBC   C0A279588   3.474   1.841  12.910
  113SBC   C0A479589   3.372   1.924  12.947
  113SBC   C07179590   3.326   1.929  13.077
  113SBC   C0A579591   3.219   2.013  13.109
  113SBC   C0A979592   3.178   2.110  13.018
  113SBC   C0A879593   3.234   2.114  12.892
  113SBC   C0AP79594   3.200   2.218  12.809
  113SBC   C0BY79595   3.249   2.217  12.685
  113SBC   C0BX79596   3.334   2.121  12.634
  113SBC   C0C279597   3.374   2.124  12.501
  113SBC   C0C379598   3.468   2.029  12.456
  113SBC   C0CT79599   3.525   1.944  12.551
  113SBC   C0C179600   3.323   2.220  12.409
  113SBC   C0C079601   3.254   2.332  12.468
  113SBC   C0A779602   3.375   2.022  12.724
  113SBC   C0BZ79603   3.221   2.320  12.601
  113SBC   C0BO79604   3.138   2.423  12.644
  113SBC   C0BN79605   3.082   2.424  12.769
  113SBC   C0BM79606   2.998   2.527  12.801
  113SBC   C0B979607   2.940   2.514  12.924
  113SBC   C0B879608   2.970   2.411  13.014
  113SBC   C0AD79609   3.056   2.315  12.974
  113SBC   C0AF79610   2.908   2.403  13.137
  113SBC   C0AG79611   2.806   2.492  13.172
  113SBC   C0B779612   2.781   2.600  13.084
  113SBC   C0AE79613   2.939   2.296  13.210
  113SBC   C0AB79614   3.030   2.199  13.177
  113SBC   C0AA79615   3.065   2.096  13.265
  113SBC   C0AJ79616   2.862   2.279  13.324
  113SBC   C0AK79617   2.899   2.183  13.412
  113SBC   C06W79618   2.835   2.205  13.528
  113SBC   C0AI79619   2.766   2.366  13.378
  113SBC   C0BP79620   3.121   2.515  12.548
  113SBC   C0BQ79621   3.023   2.621  12.574
  113SBC   C0BW79622   3.114   2.315  12.849
  113SBC   C0AC79623   3.087   2.211  13.057
  113SBC   C0A679624   3.325   2.019  12.857
  113SBC   C0A379625   3.479   1.941  12.680
  113SBC   C09Z79626   3.695   1.791  12.620
  113SBC   C09W79627   3.531   1.752  13.002
  113SBC   C07279628   3.480   1.751  13.132
  113SBC   C09H79629   3.816   1.640  12.820
  113SBC   C09G79630   3.876   1.662  12.700
  113SBC   C09P79631   3.970   1.561  12.696
  113SBC   C02O79632   4.017   1.278  12.953
  113SBC   C02M79633   4.002   1.203  13.174
  113SBC   C02F79634   4.086   1.015  13.370
  113SBC   C00W79635   4.200   0.815  13.423
  113SBC   C01R79636   4.326   0.583  13.288
  113SBC   C01N79637   4.274   0.885  13.097
  113SBC   C01L79638   4.274   0.884  12.862
  113SBC   C01H79639   4.340   0.642  12.615
  113SBC   C01K79640   4.374   0.556  12.982
  113SBC   C01E79641   4.420   0.313  12.874
  113SBC   C01G79642   4.363   0.507  12.555
  113SBC   C01D79643   4.455   0.187  12.823
  113SBC   C01A79644   4.543  -0.060  12.713
  113SBC   H00179645   4.577  -0.156  12.678
  113SBC   C01F79646   4.417   0.248  12.461
  113SBC   C03P79647   4.357   0.163  12.196
  113SBC   C03T79648   4.277   0.381  12.153
  113SBC   C08I79649   4.167   0.579  11.993
  113SBC   C08J79650   4.108   0.685  11.925
  113SBC   C08L79651   4.050   0.919  11.910
  113SBC   C09379652   3.987   1.167  11.895
  113SBC   C08Z79653   4.118   1.204  12.147
  113SBC   C09T79654   3.879   1.601  12.029
  113SBC   C09S79655   4.077   1.473  12.291
  113SBC   C09Q79656   4.020   1.529  12.566
  113SBC   C09F79657   3.816   1.735  12.597
  113SBC   C09E79658   3.848   1.715  12.237
  113SBC   C0A079659   3.634   1.860  12.516
  113SBC   C0CU79660   3.505   2.022  12.322
  113SBC   C0CR79661   3.435   2.105  12.230
  113SBC   C0CZ79662   3.459   2.086  12.092
  113SBC   C0DA79663   3.799   1.710  12.100
  113SBC   C0D979664   3.841   1.973  11.883
  113SBC   H00V79665   3.943   1.965  11.916
  113SBC   C0CY79666   3.556   1.987  12.057
  113SBC   C0DF79667   3.778   2.088  11.819
  113SBC   C0DE79668   3.800   2.230  11.801
  113SBC   C0GI79669   3.923   2.308  11.796
  113SBC   H01K79670   4.021   2.268  11.818
  113SBC   C0GJ79671   3.907   2.436  11.760
  113SBC   H01J79672   3.992   2.502  11.752
  113SBC   O00I79673   3.786   2.500  11.746
  113SBC   C0GH79674   3.669   2.435  11.769
  113SBC   C0GG79675   3.555   2.518  11.769
  113SBC   O00G79676   3.587   2.644  11.731
  113SBC   C0G879677   3.493   2.739  11.742
  113SBC   C0G979678   3.515   2.856  11.671
  113SBC   H01G79679   3.604   2.868  11.611
  113SBC   C0GA79680   3.408   2.947  11.641
  113SBC   H01H79681   3.420   3.024  11.566
  113SBC   C0GB79682   3.292   2.948  11.715
  113SBC   C0EP79683   3.285   2.847  11.821
  113SBC   C0E879684   3.198   2.871  11.934
  113SBC   C0CK79685   3.172   2.798  12.056
  113SBC   C0CL79686   3.164   2.658  12.043
  113SBC   C0E979687   3.232   2.573  11.951
  113SBC   C0GE79688   3.345   2.597  11.860
  113SBC   C0E779689   3.091   2.958  11.918
  113SBC   C0CJ79690   3.006   2.954  12.020
  113SBC   C0E679691   2.885   3.020  12.003
  113SBC   H00Y79692   2.810   3.014  12.081
  113SBC   C0EO79693   2.862   3.091  11.878
  113SBC   H01179694   2.772   3.148  11.858
  113SBC   C0G679695   2.966   3.103  11.779
  113SBC   C0G579696   2.971   3.200  11.671
  113SBC   H01F79697   2.887   3.267  11.657
  113SBC   C0GD79698   3.073   3.201  11.579
  113SBC   H01I79699   3.077   3.280  11.506
  113SBC   O00H79700   3.170   3.110  11.591
  113SBC   C0EQ79701   3.082   3.026  11.797
  113SBC   C0GC79702   3.175   3.028  11.700
  113SBC   C0G779703   3.371   2.730  11.818
  113SBC   C0DD79704   3.673   2.296  11.800
  113SBC   C0GF79705   3.427   2.485  11.826
  113SBC   C0CO79706   3.178   2.448  11.981
  113SBC   C0D079707   3.396   2.181  11.998
  113SBC   C0C479708   3.345   2.210  12.272
  113SBC   C0CN79709   3.103   2.443  12.101
  113SBC   C0CP79710   3.195   2.463  12.433
  113SBC   C0CM79711   3.066   2.580  12.125
  113SBC   C0CI79712   3.064   2.866  12.123
  113SBC   C0CD79713   2.792   3.035  12.478
  113SBC   C0BR79714   2.995   2.719  12.477
  113SBC   C0CS79715   2.966   2.624  12.704
  113SBC   C0B679716   2.849   2.610  12.959
  113SBC   C0CG79717   2.748   2.915  12.685
  113SBC   C0CF79718   2.718   3.019  12.601
  113SBC   C0E579719   2.660   3.233  12.423
  113SBC   C0DT79720   2.467   3.417  12.492
  113SBC   C0DL79721   2.465   3.203  12.794
  113SBC   C0DM79722   2.410   3.202  12.918
  113SBC   C0DY79723   2.276   3.389  12.863
  113SBC   C0DU79724   2.359   3.486  12.523
  113SBC   C0F079725   2.227   3.678  12.468
  113SBC   C0F479726   2.096   3.904  12.549
  113SBC   C0FG79727   2.047   3.663  12.823
  113SBC   O00B79728   2.001   4.009  12.755
  113SBC   C0FN79729   2.010   3.693  12.943
  113SBC   C0DZ79730   2.183   3.491  12.899
  113SBC   O00C79731   2.128   3.409  13.250
  113SBC   C0FR79732   2.155   3.310  13.339
  113SBC   O00D79733   2.086   3.322  13.440
  113SBC   C0E079734   2.320   3.295  12.960
  113SBC   C0E379735   2.261   3.216  13.307
  113SBC   C0AW79736   2.290   3.113  13.395
  113SBC   C0AV79737   2.269   3.114  13.541
  113SBC   H00Q79738   2.237   3.198  13.602
  113SBC   C0AU79739   2.321   3.015  13.626
  113SBC   H00R79740   2.314   3.024  13.734
  113SBC   C0AT79741   2.392   2.909  13.572
  113SBC   C0AS79742   2.444   2.782  13.617
  113SBC   C0AR79743   2.422   2.736  13.750
  113SBC   C0BE79744   2.417   2.910  13.437
  113SBC   C0DN79745   2.445   3.098  13.003
  113SBC   C0AX79746   2.375   3.013  13.350
  113SBC   C0BB79747   2.566   2.895  13.056
  113SBC   C0BD79748   2.483   2.795  13.399
  113SBC   C0B279749   2.688   2.695  13.123
  113SBC   C0AH79750   2.735   2.483  13.299
  113SBC   C0BF79751   2.509   2.708  13.509
  113SBC   C0AL79752   2.741   2.311  13.510
  113SBC   C07U79753   2.538   2.508  13.739
  113SBC   C0AQ79754   2.478   2.612  13.806
  113SBC   C0BG79755   2.356   2.800  13.860
  113SBC   C0FY79756   2.268   2.671  14.167
  113SBC   C0BJ79757   2.214   2.834  13.882
  113SBC   H00S79758   2.142   2.856  13.805
  113SBC   C0FZ79759   2.146   2.718  14.214
  113SBC   C07S79760   2.316   2.541  14.192
  113SBC   C0G179761   2.087   2.484  14.478
  113SBC   C07K79762   2.326   2.219  14.544
  113SBC   C07H79763   2.399   2.278  14.278
  113SBC   C06B79764   2.433   1.922  14.310
  113SBC   C06N79765   2.625   1.903  14.179
  113SBC   C06679766   2.529   2.275  14.054
  113SBC   C06279767   2.718   2.194  13.827
  113SBC   C05Y79768   2.828   1.867  14.028
  113SBC   C06179769   2.845   2.148  13.775
  113SBC   C05H79770   3.053   1.855  13.771
  113SBC   C06V79771   2.878   2.128  13.637
  113SBC   C06Y79772   3.007   2.091  13.391
  113SBC   C05C79773   3.203   1.812  13.544
  113SBC   C06Z79774   3.164   2.002  13.234
  113SBC   C07079775   3.376   1.836  13.170
  113SBC   C05B79776   3.307   1.731  13.507
  113SBC   C05779777   3.533   1.561  13.439
  113SBC   C05979778   3.537   1.657  13.222
  114SBC   C05879779   9.214   5.138  15.013
  114SBC   C05A79780   9.134   5.017  15.006
  114SBC   C06Q79781   9.025   5.004  14.922
  114SBC   C06R79782   8.950   4.888  14.906
  114SBC   C06S79783   8.992   4.772  14.971
  114SBC   C06T79784   8.931   4.649  14.937
  114SBC   C06U79785   8.960   4.509  14.978
  114SBC   C06X79786   9.037   4.451  15.080
  114SBC   C06079787   9.043   4.310  15.073
  114SBC   C05Z79788   9.040   4.213  15.178
  114SBC   C06879789   8.927   4.118  15.145
  114SBC   C06779790   8.881   4.005  15.219
  114SBC   C06979791   8.958   3.956  15.336
  114SBC   C06A79792   8.910   3.857  15.438
  114SBC   C07379793   8.781   3.838  15.485
  114SBC   C07P79794   8.758   3.852  15.622
  114SBC   C07O79795   8.850   3.893  15.723
  114SBC   H00D79796   8.954   3.907  15.698
  114SBC   C07N79797   8.811   3.918  15.853
  114SBC   H00E79798   8.880   3.949  15.930
  114SBC   C07M79799   8.683   3.889  15.891
  114SBC   H00F79800   8.671   3.905  15.997
  114SBC   C07L79801   8.579   3.848  15.804
  114SBC   C07Q79802   8.441   3.827  15.838
  114SBC   H00G79803   8.404   3.848  15.937
  114SBC   O00F79804   8.350   3.787  15.737
  114SBC   C07J79805   8.394   3.765  15.610
  114SBC   C07I79806   8.532   3.779  15.575
  114SBC   N00479807   8.558   3.764  15.439
  114SBC   C07R79808   8.474   3.691  15.351
  114SBC   C07T79809   8.345   3.672  15.395
  114SBC   C0FX79810   8.247   3.618  15.308
  114SBC   C0FW79811   8.113   3.629  15.332
  114SBC   C0G079812   8.079   3.671  15.463
  114SBC   C0G279813   7.942   3.688  15.497
  114SBC   H01E79814   7.921   3.717  15.599
  114SBC   C0G379815   7.838   3.656  15.407
  114SBC   H01C79816   7.734   3.660  15.433
  114SBC   C0G479817   7.878   3.619  15.274
  114SBC   H01D79818   7.805   3.605  15.196
  114SBC   O00E79819   8.172   3.700  15.556
  114SBC   C0FV79820   8.017   3.604  15.233
  114SBC   C0FU79821   8.057   3.571  15.101
  114SBC   H01B79822   7.986   3.564  15.019
  114SBC   C0FT79823   8.193   3.564  15.079
  114SBC   C0FS79824   8.277   3.581  14.964
  114SBC   C0BI79825   8.413   3.570  14.995
  114SBC   C0BH79826   8.494   3.628  14.900
  114SBC   C07F79827   8.567   3.745  14.925
  114SBC   C07E79828   8.634   3.778  15.039
  114SBC   C07G79829   8.614   3.739  15.168
  114SBC   C07479830   8.694   3.817  15.255
  114SBC   C06579831   8.712   3.897  15.047
  114SBC   C06479832   8.702   3.990  14.939
  114SBC   C06379833   8.756   4.119  14.931
  114SBC   C07579834   8.689   4.173  14.811
  114SBC   C0AM79835   8.590   4.084  14.752
  114SBC   C0AN79836   8.491   4.115  14.638
  114SBC   C0AO79837   8.450   4.243  14.570
  114SBC   C0B179838   8.350   4.246  14.466
  114SBC   C0B079839   8.291   4.132  14.421
  114SBC   C0AZ79840   8.184   4.128  14.324
  114SBC   C0AY79841   8.123   4.004  14.296
  114SBC   N00779842   8.007   4.011  14.221
  114SBC   C0E279843   7.921   3.895  14.221
  114SBC   C0E179844   7.799   3.903  14.165
  114SBC   C0E479845   7.711   3.800  14.188
  114SBC   C0FF79846   7.574   3.811  14.155
  114SBC   C0FJ79847   7.460   3.722  14.188
  114SBC   C0FK79848   7.445   3.657  14.313
  114SBC   H01679849   7.522   3.641  14.387
  114SBC   C0FL79850   7.300   3.647  14.338
  114SBC   H01779851   7.245   3.616  14.425
  114SBC   C0FM79852   7.227   3.709  14.224
  114SBC   C0FH79853   7.118   3.804  14.198
  114SBC   C0FI79854   7.168   3.874  14.087
  114SBC   C0F379855   7.121   4.009  14.064
  114SBC   C0F279856   7.215   4.085  14.001
  114SBC   C0DW79857   7.349   4.063  13.998
  114SBC   C0FE79858   7.403   3.942  14.034
  114SBC   C0DV79859   7.442   4.170  13.978
  114SBC   C0DX79860   7.578   4.153  14.009
  114SBC   C0DK79861   7.660   4.263  14.013
  114SBC   C0DJ79862   7.605   4.391  13.979
  114SBC   C0DI79863   7.689   4.501  13.982
  114SBC   C0DH79864   7.826   4.491  14.007
  114SBC   C0DG79865   7.867   4.368  14.065
  114SBC   C0BV79866   7.987   4.368  14.132
  114SBC   C0BC79867   8.036   4.250  14.189
  114SBC   C0BA79868   8.061   4.482  14.153
  114SBC   C0B479869   8.162   4.484  14.242
  114SBC   C0B379870   8.203   4.367  14.306
  114SBC   C0B579871   8.228   4.601  14.270
  114SBC   C0BU79872   8.202   4.717  14.189
  114SBC   C0BT79873   8.096   4.720  14.095
  114SBC   C0BS79874   8.068   4.831  14.014
  114SBC   C0CC79875   7.942   4.830  13.954
  114SBC   C0CB79876   7.902   4.938  13.872
  114SBC   C0CH79877   7.765   4.943  13.840
  114SBC   C0DO79878   7.670   4.846  13.879
  114SBC   C0DP79879   7.535   4.867  13.866
  114SBC   C0EA79880   7.473   4.997  13.830
  114SBC   H01279881   7.536   5.080  13.802
  114SBC   O00979882   7.337   5.027  13.837
  114SBC   C0EH79883   7.264   4.924  13.897
  114SBC   C0EG79884   7.134   4.960  13.927
  114SBC   C0EJ79885   7.060   5.082  13.921
  114SBC   H01079886   7.089   5.182  13.891
  114SBC   C0EK79887   6.923   5.051  13.961
  114SBC   H00Z79888   6.850   5.130  13.971
  114SBC   C0EL79889   6.915   4.911  13.983
  114SBC   C0EM79890   6.808   4.822  14.018
  114SBC   C0EW79891   6.673   4.849  14.040
  114SBC   H01379892   6.636   4.951  14.032
  114SBC   C0EX79893   6.579   4.749  14.084
  114SBC   H01479894   6.473   4.771  14.096
  114SBC   C0F179895   6.629   4.611  14.097
  114SBC   C0EU79896   6.763   4.587  14.068
  114SBC   C0ET79897   6.826   4.464  14.071
  114SBC   C0ES79898   6.963   4.493  14.035
  114SBC   C0EE79899   6.978   4.629  14.005
  114SBC   C0ED79900   7.079   4.722  13.964
  114SBC   C0EC79901   7.221   4.691  13.953
  114SBC   C0EB79902   7.273   4.559  13.948
  114SBC   C0EN79903   7.189   4.438  13.962
  114SBC   C0ER79904   7.254   4.314  13.949
  114SBC   C0DS79905   7.411   4.535  13.949
  114SBC   C0DR79906   7.496   4.640  13.925
  114SBC   C0EY79907   7.054   4.398  13.995
  114SBC   C0EZ79908   7.043   4.264  14.025
  114SBC   C0F579909   6.944   4.175  14.087
  114SBC   C0F679910   6.814   4.219  14.131
  114SBC   N00879911   6.738   4.114  14.205
  114SBC   C0F779912   6.797   3.986  14.237
  114SBC   C0FQ79913   6.712   3.896  14.303
  114SBC   H01879914   6.754   3.804  14.339
  114SBC   C0FP79915   6.583   3.926  14.350
  114SBC   H01979916   6.519   3.870  14.416
  114SBC   C0FO79917   6.530   4.048  14.319
  114SBC   H01A79918   6.428   4.068  14.350
  114SBC   C0F879919   6.933   3.955  14.200
  114SBC   C0F979920   6.604   4.143  14.247
  114SBC   C0FA79921   6.550   4.267  14.214
  114SBC   H01579922   6.454   4.293  14.255
  114SBC   C0FB79923   6.618   4.370  14.143
  114SBC   C0FD79924   6.748   4.342  14.108
  114SBC   C0FC79925   6.553   4.498  14.130
  114SBC   O00A79926   6.435   4.510  14.162
  114SBC   C0EV79927   6.850   4.687  14.028
  114SBC   C0EF79928   7.047   4.859  13.959
  114SBC   C0EI79929   7.309   4.791  13.915
  114SBC   C0DQ79930   7.447   4.768  13.898
  114SBC   C0CE79931   7.724   4.727  13.925
  114SBC   H00U79932   7.733   5.030  13.784
  114SBC   C0CA79933   7.997   5.040  13.847
  114SBC   C0C979934   8.100   5.068  13.949
  114SBC   C0C879935   8.132   5.205  13.973
  114SBC   C0C779936   8.238   5.266  14.046
  114SBC   C0C679937   8.244   5.407  14.048
  114SBC   C0C579938   8.355   5.505  14.051
  114SBC   C0CQ79939   8.345   5.613  13.963
  114SBC   C0D179940   8.249   5.612  13.867
  114SBC   C0D879941   8.285   5.673  13.752
  114SBC   C0D779942   8.411   5.735  13.785
  114SBC   C0D679943   8.503   5.766  13.682
  114SBC   C0D579944   8.634   5.817  13.718
  114SBC   C0D479945   8.731   5.785  13.818
  114SBC   C0D379946   8.831   5.887  13.823
  114SBC   C0CX79947   8.883   5.876  13.962
  114SBC   C0CW79948   8.801   5.776  14.035
  114SBC   C0CV79949   8.794   5.702  14.162
  114SBC   C0D279950   8.894   5.722  14.260
  114SBC   C09D79951   8.988   5.825  14.266
  114SBC   C09C79952   9.063   5.850  14.385
  114SBC   C09B79953   9.168   5.949  14.399
  114SBC   C09A79954   9.187   6.034  14.285
  114SBC   C09979955   9.096   6.038  14.187
  114SBC   C09879956   9.166   6.095  14.071
  114SBC   C08Y79957   9.302   6.128  14.111
  114SBC   C08X79958   9.420   6.157  14.034
  114SBC   C08W79959   9.405   6.168  13.890
  114SBC   C08U79960   9.297   6.121  13.805
  114SBC   C08V79961   9.172   6.048  13.832
  114SBC   C0DC79962   9.096   6.045  13.710
  114SBC   H00W79963   9.003   5.991  13.708
  114SBC   C0DB79964   9.169   6.118  13.605
  114SBC   H00X79965   9.140   6.142  13.504
  114SBC   C08T79966   9.288   6.161  13.663
  114SBC   C08S79967   9.395   6.221  13.610
  114SBC   H00N79968   9.386   6.261  13.510
  114SBC   C08R79969   9.515   6.251  13.681
  114SBC   C08Q79970   9.634   6.308  13.620
  114SBC   H00O79971   9.622   6.337  13.517
  114SBC   C08P79972   9.767   6.301  13.671
  114SBC   C08O79973   9.890   6.315  13.593
  114SBC   H00P79974   9.897   6.325  13.486
  114SBC   C08N79975  10.015   6.291  13.666
  114SBC   C08M79976  10.145   6.300  13.590
  114SBC   O00879977  10.154   6.304  13.466
  114SBC   O00779978  10.259   6.306  13.665
  114SBC   C08H79979  10.255   6.278  13.802
  114SBC   C08G79980  10.376   6.277  13.875
  114SBC   C03V79981  10.507   6.292  13.827
  114SBC   H00979982  10.508   6.316  13.721
  114SBC   C03U79983  10.622   6.292  13.908
  114SBC   C03W79984  10.749   6.326  13.863
  114SBC   H00A79985  10.766   6.347  13.758
  114SBC   C03X79986  10.851   6.334  13.944
  114SBC   H00B79987  10.945   6.359  13.898
  114SBC   O00579988  10.843   6.316  14.081
  114SBC   C03O79989  10.719   6.288  14.130
  114SBC   C03N79990  10.699   6.271  14.267
  114SBC   O00079991  10.808   6.284  14.348
  114SBC   C01979992  10.798   6.236  14.473
  114SBC   C01879993  10.679   6.199  14.534
  114SBC   C01779994  10.562   6.200  14.457
  114SBC   C01679995  10.440   6.176  14.516
  114SBC   C01579996  10.440   6.146  14.653
  114SBC   C01479997  10.324   6.105  14.714
  114SBC   C01379998  10.195   6.122  14.652
  114SBC   C01279999  10.104   6.063  14.754
  114SBC   C01180000  10.179   6.045  14.871
  114SBC   C01080001  10.119   6.003  14.987
  114SBC   C00Z80002  10.184   5.952  15.097
  114SBC   C00Y80003  10.087   5.870  15.156
  114SBC   C01O80004   9.970   5.883  15.093
  114SBC   C01P80005   9.877   5.777  15.087
  114SBC   C02L80006   9.777   5.781  14.996
  114SBC   C02K80007   9.790   5.880  14.897
  114SBC   C01M80008   9.907   5.962  14.872
  114SBC   C02J80009   9.676   5.890  14.810
  114SBC   C02I80010   9.661   5.970  14.703
  114SBC   C02H80011   9.753   6.049  14.632
  114SBC   C01Q80012   9.886   6.074  14.651
  114SBC   C02G80013   9.928   6.145  14.530
  114SBC   C08980014   9.817   6.193  14.465
  114SBC   C08880015   9.850   6.204  14.329
  114SBC   C08780016   9.993   6.216  14.325
  114SBC   C08680017  10.075   6.209  14.211
  114SBC   C03S80018  10.221   6.212  14.206
  114SBC   N00680019  10.250   6.232  14.074
  114SBC   C08F80020  10.138   6.244  14.001
  114SBC   C01J80021  10.330   6.203  14.300
  114SBC   C03R80022  10.462   6.223  14.241
  114SBC   C03Q80023  10.482   6.248  14.100
  114SBC   C08E80024  10.026   6.226  14.079
  114SBC   C08D80025   9.896   6.242  14.020
  114SBC   C08K80026   9.892   6.261  13.876
  114SBC   C08C80027   9.769   6.238  14.085
  114SBC   C09180028   9.654   6.223  14.013
  114SBC   C09280029   9.643   6.241  13.874
  114SBC   C08B80030   9.747   6.234  14.224
  114SBC   C09080031   9.606   6.200  14.231
  114SBC   C09480032   9.533   6.157  14.346
  114SBC   C09580033   9.403   6.103  14.351
  114SBC   C09R80034   9.385   6.025  14.464
  114SBC   C09780035   9.503   6.027  14.539
  114SBC   C09680036   9.588   6.106  14.465
  114SBC   C01I80037  10.048   6.172  14.459
  114SBC   C08A80038   9.712   6.113  14.519
  114SBC   C09L80039   9.535   5.955  14.655
  114SBC   C09K80040   9.468   5.857  14.736
  114SBC   C09J80041   9.344   5.807  14.709
  114SBC   C09I80042   9.291   5.682  14.756
  114SBC   C09O80043   9.327   5.580  14.852
  114SBC   C09N80044   9.455   5.581  14.919
  114SBC   C09M80045   9.562   5.685  14.919
  114SBC   C06O80046   9.480   5.464  15.002
  114SBC   C05M80047   9.385   5.358  15.010
  114SBC   C06P80048   9.275   5.357  14.929
  114SBC   C04280049   9.410   5.246  15.096
  114SBC   C04180050   9.533   5.244  15.170
  114SBC   C04080051   9.565   5.137  15.255
  114SBC   C03Z80052   9.688   5.125  15.323
  114SBC   C03Y80053   9.780   5.227  15.308
  114SBC   C02780054   9.901   5.213  15.374
  114SBC   C02680055   9.989   5.320  15.369
  114SBC   C02880056  10.115   5.312  15.432
  114SBC   C02980057  10.152   5.195  15.495
  114SBC   C02B80058  10.283   5.177  15.547
  114SBC   C02C80059  10.322   5.060  15.600
  114SBC   C02X80060  10.445   5.047  15.651
  114SBC   C03E80061  10.482   4.918  15.694
  114SBC   C03G80062  10.411   4.802  15.685
  114SBC   C04Q80063  10.278   4.826  15.644
  114SBC   C04R80064  10.193   4.722  15.653
  114SBC   C04S80065  10.063   4.734  15.602
  114SBC   C04L80066  10.014   4.861  15.560
  114SBC   C04M80067  10.101   4.966  15.558
  114SBC   C04K80068   9.887   4.878  15.510
  114SBC   C04F80069   9.802   4.771  15.512
  114SBC   C04E80070   9.843   4.648  15.567
  114SBC   C04D80071   9.758   4.542  15.564
  114SBC   C05080072   9.798   4.417  15.611
  114SBC   C05180073   9.714   4.309  15.599
  114SBC   C05Q80074   9.756   4.188  15.649
  114SBC   C05V80075   9.669   4.083  15.642
  114SBC   N00580076   9.711   3.957  15.688
  114SBC   C07V80077   9.838   3.943  15.744
  114SBC   C08280078   9.882   3.816  15.790
  114SBC   C08180079   9.803   3.705  15.781
  114SBC   C07C80080   9.672   3.719  15.732
  114SBC   C07B80081   9.582   3.607  15.731
  114SBC   C08080082   9.630   3.483  15.772
  114SBC   C07Z80083   9.531   3.379  15.775
  114SBC   H00L80084   9.562   3.284  15.815
  114SBC   C07980085   9.395   3.396  15.748
  114SBC   C07880086   9.354   3.523  15.704
  114SBC   C07780087   9.220   3.547  15.678
  114SBC   C07X80088   9.120   3.446  15.701
  114SBC   H00I80089   9.016   3.458  15.677
  114SBC   C07Y80090   9.162   3.316  15.732
  114SBC   H00H80091   9.089   3.236  15.734
  114SBC   C07680092   9.186   3.669  15.626
  114SBC   C06C80093   9.053   3.697  15.589
  114SBC   H00C80094   8.965   3.641  15.615
  114SBC   C06F80095   9.280   3.772  15.613
  114SBC   C06E80096   9.255   3.883  15.542
  114SBC   C06G80097   9.337   3.993  15.523
  114SBC   C06H80098   9.461   3.984  15.582
  114SBC   C06I80099   9.495   3.861  15.646
  114SBC   C06L80100   9.298   4.104  15.444
  114SBC   C06M80101   9.172   4.106  15.365
  114SBC   C06K80102   9.385   4.214  15.443
  114SBC   C05S80103   9.511   4.206  15.507
  114SBC   C05U80104   9.345   4.334  15.384
  114SBC   C05X80105   9.226   4.338  15.301
  114SBC   C05G80106   9.199   4.473  15.258
  114SBC   C05F80107   9.277   4.578  15.297
  114SBC   C05E80108   9.240   4.695  15.232
  114SBC   C04880109   9.316   4.812  15.247
  114SBC   C05680110   9.279   4.920  15.167
  114SBC   C04580111   9.359   5.031  15.181
  114SBC   C04780112   9.434   4.803  15.319
  114SBC   C04980113   9.473   4.686  15.385
  114SBC   C04B80114   9.591   4.673  15.449
  114SBC   C04680115   9.515   4.914  15.321
  114SBC   C04H80116   9.635   4.902  15.393
  114SBC   C05D80117   9.132   4.675  15.150
  114SBC   C04A80118   9.392   4.575  15.375
  114SBC   C05T80119   9.426   4.450  15.413
  114SBC   C05580120   9.548   4.438  15.480
  114SBC   C06D80121   9.133   3.893  15.478
  114SBC   C07W80122   9.406   3.757  15.658
  114SBC   C08580123   9.297   3.290  15.750
  114SBC   H00M80124   9.337   3.193  15.774
  114SBC   C08480125   9.769   3.465  15.804
  114SBC   H00J80126   9.801   3.369  15.841
  114SBC   C07A80127   9.444   3.627  15.697
  114SBC   C08380128   9.848   3.575  15.809
  114SBC   H00K80129   9.948   3.550  15.840
  114SBC   O00K80130  10.005   3.802  15.838
  114SBC   C0GO80131  10.091   3.907  15.845
  114SBC   C0GN80132  10.224   3.881  15.877
  114SBC   H01L80133  10.248   3.782  15.912
  114SBC   C0GM80134  10.312   3.992  15.892
  114SBC   C0GL80135  10.435   3.968  15.940
  114SBC   H01M80136  10.453   3.872  15.985
  114SBC   O00J80137  10.529   4.061  15.945
  114SBC   C0GK80138  10.497   4.182  15.883
  114SBC   H01N80139  10.580   4.249  15.868
  114SBC   C05K80140  10.369   4.209  15.834
  114SBC   C05J80141  10.336   4.336  15.768
  114SBC   C04Y80142  10.419   4.446  15.752
  114SBC   C04X80143  10.375   4.573  15.713
  114SBC   O00680144  10.555   4.426  15.767
  114SBC   C05380145  10.642   4.529  15.777
  114SBC   C04O80146  10.598   4.665  15.757
  114SBC   C03C80147  10.678   4.784  15.752
  114SBC   C03B80148  10.819   4.817  15.750
  114SBC   C05480149  10.918   4.727  15.782
  114SBC   C0GR80150  11.057   4.761  15.790
  114SBC   C03M80151  11.135   4.886  15.770
  114SBC   C03I80152  11.085   5.011  15.719
  114SBC   C03J80153  11.180   5.116  15.693
  114SBC   N00280154  11.141   5.245  15.635
  114SBC   C02U80155  11.233   5.344  15.605
  114SBC   C02T80156  11.194   5.467  15.545
  114SBC   C02Z80157  11.286   5.561  15.493
  114SBC   N00180158  11.245   5.676  15.424
  114SBC   C02R80159  11.344   5.758  15.365
  114SBC   C03280160  11.480   5.729  15.380
  114SBC   C03180161  11.519   5.607  15.443
  114SBC   H00780162  11.626   5.593  15.445
  114SBC   C03380163  11.571   5.835  15.325
  114SBC   H00380164  11.678   5.826  15.332
  114SBC   O00480165  11.528   5.951  15.264
  114SBC   C03480166  11.397   5.966  15.253
  114SBC   C03580167  11.353   6.081  15.194
  114SBC   C03680168  11.218   6.095  15.158
  114SBC   H00580169  11.192   6.178  15.093
  114SBC   C03780170  11.122   6.022  15.220
  114SBC   H00680171  11.021   6.057  15.230
  114SBC   C00D80172  11.162   5.899  15.287
  114SBC   C00C80173  11.071   5.809  15.330
  114SBC   C00B80174  10.926   5.828  15.310
  114SBC   C00A80175  10.830   5.924  15.247
  114SBC   C00980176  10.697   5.895  15.299
  114SBC   C00880177  10.569   5.897  15.240
  114SBC   C00780178  10.559   5.960  15.120
  114SBC   C00680179  10.434   5.988  15.060
  114SBC   C00580180  10.433   6.051  14.929
  114SBC   C00480181  10.554   6.085  14.866
  114SBC   C00380182  10.677   6.043  14.923
  114SBC   C00280183  10.796   6.057  14.853
  114SBC   C01C80184  10.795   6.131  14.732
  114SBC   C01B80185  10.916   6.171  14.675
  114SBC   H00080186  11.008   6.163  14.731
  114SBC   C00180187  10.910   5.992  14.893
  114SBC   C00080188  10.912   5.937  15.022
  114SBC   C01U80189  11.009   5.835  15.007
  114SBC   H00280190  11.040   5.753  15.071
  114SBC   C01T80191  11.078   5.850  14.874
  114SBC   O00280192  11.181   5.797  14.836
  114SBC   O00180193  11.007   5.941  14.806
  114SBC   C01S80194  10.679   5.981  15.053
  114SBC   C00N80195  10.468   5.827  15.296
  114SBC   C00M80196  10.493   5.724  15.382
  114SBC   C00J80197  10.617   5.700  15.437
  114SBC   C00I80198  10.657   5.579  15.488
  114SBC   C00H80199  10.791   5.550  15.508
  114SBC   C00G80200  10.888   5.635  15.461
  114SBC   C00F80201  11.020   5.607  15.459
  114SBC   C01X80202  10.833   5.425  15.547
  114SBC   C01W80203  10.736   5.335  15.584
  114SBC   C01V80204  10.601   5.365  15.562
  114SBC   C02080205  10.502   5.268  15.581
  114SBC   C01Z80206  10.775   5.209  15.628
  114SBC   C02Y80207  10.674   5.124  15.656
  114SBC   C03980208  10.709   5.007  15.717
  114SBC   C02W80209  10.909   5.178  15.649
  114SBC   C01Y80210  10.966   5.398  15.563
  114SBC   C00U80211  10.562   5.479  15.505
  114SBC   C00S80212  10.432   5.505  15.469
  114SBC   C00T80213  10.336   5.408  15.485
  114SBC   C00R80214  10.401   5.621  15.403
  114SBC   C00Q80215  10.271   5.639  15.351
  114SBC   C00V80216  10.173   5.532  15.365
  114SBC   C02480217  10.047   5.542  15.307
  114SBC   C00X80218  10.013   5.660  15.240
  114SBC   C00P80219  10.242   5.754  15.279
  114SBC   C00O80220  10.345   5.842  15.234
  114SBC   C00K80221  10.717   5.794  15.397
  114SBC   N00080222  10.810   5.948  15.110
  114SBC   C00L80223  10.847   5.749  15.393
  114SBC   H00480224  11.422   6.153  15.151
  114SBC   C02Q80225  11.299   5.871  15.299
  114SBC   C00E80226  11.108   5.703  15.407
  114SBC   C03080227  11.427   5.522  15.501
  114SBC   O00380228  11.466   5.414  15.579
  114SBC   C02S80229  11.056   5.489  15.516
  114SBC   C03880230  11.371   5.323  15.626
  114SBC   C03L80231  11.412   5.199  15.672
  114SBC   H00880232  11.518   5.177  15.666
  114SBC   C02V80233  11.003   5.275  15.618
  114SBC   C03K80234  11.321   5.100  15.709
  114SBC   C0BK80235  11.358   4.976  15.765
  114SBC   H00T80236  11.466   4.967  15.771
  114SBC   C03H80237  10.948   5.050  15.701
  114SBC   C0BL80238  11.274   4.871  15.801
  114SBC   C0GU80239  11.327   4.751  15.854
  114SBC   H01O80240  11.434   4.757  15.864
  114SBC   C0GT80241  11.258   4.633  15.874
  114SBC   H01P80242  11.295   4.543  15.921
  114SBC   C0GS80243  11.122   4.639  15.834
  114SBC   C0GV80244  11.026   4.530  15.833
  114SBC   C0GW80245  11.044   4.389  15.841
  114SBC   H01Q80246  11.141   4.342  15.849
  114SBC   C0GX80247  10.929   4.317  15.826
  114SBC   H01R80248  10.935   4.209  15.832
  114SBC   O00L80249  10.800   4.369  15.805
  114SBC   C0GQ80250  10.898   4.589  15.804
  114SBC   C03A80251  10.838   4.956  15.722
  114SBC   C05L80252  10.781   4.505  15.798
  114SBC   C04W80253  10.202   4.359  15.728
  114SBC   C05I80254  10.106   4.259  15.743
  114SBC   C05O80255  10.138   4.138  15.803
  114SBC   C05280256   9.974   4.279  15.703
  114SBC   C04V80257  10.153   4.484  15.686
  114SBC   C04U80258  10.024   4.504  15.650
  114SBC   N00980259  10.270   4.117  15.846
  114SBC   C0GP80260  10.049   4.035  15.805
  114SBC   C05W80261   9.920   4.053  15.756
  114SBC   C07D80262   9.623   3.845  15.693
  114SBC   C06J80263   9.545   4.089  15.579
  114SBC   C05P80264   9.880   4.174  15.700
  114SBC   C05R80265   9.590   4.316  15.526
  114SBC   C04Z80266   9.930   4.401  15.659
  114SBC   C04C80267   9.632   4.550  15.498
  114SBC   C04G80268   9.675   4.783  15.453
  114SBC   C04J80269   9.840   4.997  15.453
  114SBC   C04T80270   9.977   4.630  15.606
  114SBC   N00380271  10.239   4.591  15.684
  114SBC   C04P80272  10.463   4.684  15.717
  114SBC   C03D80273  10.616   4.903  15.730
  114SBC   C02180274  10.542   5.148  15.633
  114SBC   C03F80275  10.236   4.952  15.605
  114SBC   C02280276  10.371   5.288  15.542
  114SBC   C02A80277  10.061   5.087  15.505
  114SBC   C02380278  10.205   5.419  15.428
  114SBC   C02580279   9.957   5.436  15.306
  114SBC   C02D80280   9.833   5.450  15.243
  114SBC   C02E80281   9.802   5.566  15.172
  114SBC   C02N80282   9.684   5.570  15.091
  114SBC   C04N80283   9.935   5.099  15.446
  114SBC   C02P80284   9.742   5.341  15.239
  114SBC   C04I80285   9.718   5.008  15.390
  114SBC   C04480286   9.478   5.030  15.256
  114SBC   C04380287   9.625   5.347  15.159
  114SBC   C05N80288   9.595   5.460  15.084
  114SBC   C09U80289   9.246   5.465  14.849
  114SBC   C09V80290   9.129   5.457  14.765
  114SBC   C09X80291   9.092   5.552  14.681
  114SBC   C09Y80292   8.994   5.550  14.585
  114SBC   C0A180293   8.921   5.439  14.577
  114SBC   C0A280294   8.950   5.331  14.667
  114SBC   C0A480295   8.875   5.213  14.659
  114SBC   C07180296   8.901   5.102  14.745
  114SBC   C0A580297   8.826   4.985  14.733
  114SBC   C0A980298   8.728   4.978  14.634
  114SBC   C0A880299   8.698   5.085  14.553
  114SBC   C0AP80300   8.600   5.076  14.456
  114SBC   C0BY80301   8.579   5.186  14.378
  114SBC   C0BX80302   8.650   5.297  14.382
  114SBC   C0C280303   8.625   5.400  14.287
  114SBC   C0C380304   8.710   5.510  14.285
  114SBC   C0CT80305   8.808   5.525  14.381
  114SBC   C0C180306   8.512   5.391  14.196
  114SBC   C0C080307   8.449   5.262  14.180
  114SBC   C0A780308   8.751   5.309  14.477
  114SBC   C0BZ80309   8.490   5.171  14.276
  114SBC   C0BO80310   8.418   5.054  14.263
  114SBC   C0BN80311   8.424   4.951  14.346
  114SBC   C0BM80312   8.364   4.832  14.314
  114SBC   C0B980313   8.386   4.722  14.393
  114SBC   C0B880314   8.479   4.735  14.494
  114SBC   C0AD80315   8.546   4.853  14.524
  114SBC   C0AF80316   8.512   4.617  14.561
  114SBC   C0AG80317   8.463   4.492  14.530
  114SBC   C0B780318   8.366   4.489  14.435
  114SBC   C0AE80319   8.615   4.637  14.653
  114SBC   C0AB80320   8.679   4.754  14.688
  114SBC   C0AA80321   8.783   4.763  14.781
  114SBC   C0AJ80322   8.663   4.519  14.703
  114SBC   C0AK80323   8.761   4.527  14.804
  114SBC   C06W80324   8.792   4.399  14.828
  114SBC   C0AI80325   8.614   4.389  14.684
  114SBC   C0BP80326   8.332   5.063  14.151
  114SBC   C0BQ80327   8.245   4.947  14.125
  114SBC   C0BW80328   8.519   4.960  14.447
  114SBC   C0AC80329   8.646   4.867  14.620
  114SBC   C0A680330   8.767   5.202  14.568
  114SBC   C0A380331   8.828   5.425  14.477
  114SBC   C09Z80332   8.979   5.646  14.479
  114SBC   C09W80333   9.053   5.337  14.762
  114SBC   C07280334   9.078   5.232  14.847
  114SBC   C09H80335   9.172   5.667  14.683
  114SBC   C09G80336   9.156   5.760  14.591
  114SBC   C09P80337   9.261   5.850  14.600
  114SBC   C02O80338   9.558   5.805  14.833
  114SBC   C02M80339   9.673   5.679  15.003
  114SBC   C02F80340   9.899   5.666  15.168
  114SBC   C00W80341  10.115   5.755  15.225
  114SBC   C01R80342  10.328   5.934  15.129
  114SBC   C01N80343   9.990   5.960  14.982
  114SBC   C01L80344   9.958   6.033  14.751
  114SBC   C01H80345  10.184   6.160  14.513
  114SBC   C01K80346  10.316   6.062  14.846
  114SBC   C01E80347  10.558   6.129  14.732
  114SBC   C01G80348  10.317   6.182  14.440
  114SBC   C01D80349  10.675   6.154  14.666
  114SBC   C01A80350  10.916   6.222  14.546
  114SBC   H00180351  11.006   6.251  14.493
  114SBC   C01F80352  10.572   6.234  14.323
  114SBC   C03P80353  10.608   6.275  14.046
  114SBC   C03T80354  10.374   6.253  14.014
  114SBC   C08I80355  10.130   6.259  13.863
  114SBC   C08J80356  10.011   6.268  13.806
  114SBC   C08L80357   9.770   6.273  13.807
  114SBC   C09380358   9.517   6.214  13.817
  114SBC   C08Z80359   9.548   6.191  14.100
  114SBC   C09T80360   9.107   6.036  13.960
  114SBC   C09S80361   9.303   6.097  14.255
  114SBC   C09Q80362   9.274   5.942  14.491
  114SBC   C09F80363   9.061   5.752  14.479
  114SBC   C09E80364   9.016   5.929  14.161
  114SBC   C0A080365   8.895   5.634  14.372
  114SBC   C0CU80366   8.697   5.603  14.180
  114SBC   C0CR80367   8.583   5.590  14.093
  114SBC   C0CZ80368   8.578   5.668  13.980
  114SBC   C0DA80369   8.997   5.946  14.020
  114SBC   C0D980370   8.759   5.999  13.763
  114SBC   H00V80371   8.767   6.103  13.792
  114SBC   C0CY80372   8.697   5.738  13.944
  114SBC   C0DF80373   8.657   5.948  13.666
  114SBC   C0DE80374   8.547   5.970  13.578
  114SBC   C0GI80375   8.519   6.076  13.487
  114SBC   H01K80376   8.583   6.161  13.473
  114SBC   C0GJ80377   8.413   6.053  13.410
  114SBC   H01J80378   8.391   6.132  13.339
  114SBC   O00I80379   8.319   5.945  13.411
  114SBC   C0GH80380   8.338   5.849  13.510
  114SBC   C0GG80381   8.240   5.748  13.518
  114SBC   O00G80382   8.158   5.737  13.414
  114SBC   C0G880383   8.075   5.630  13.399
  114SBC   C0G980384   8.014   5.624  13.278
  114SBC   H01G80385   8.020   5.710  13.213
  114SBC   C0GA80386   7.952   5.502  13.242
  114SBC   H01H80387   7.898   5.508  13.149
  114SBC   C0GB80388   7.951   5.387  13.321
  114SBC   C0EP80389   8.006   5.397  13.454
  114SBC   C0E880390   7.989   5.285  13.547
  114SBC   C0CK80391   8.028   5.250  13.678
  114SBC   C0CL80392   8.058   5.347  13.776
  114SBC   C0E980393   8.101   5.480  13.746
  114SBC   C0GE80394   8.123   5.555  13.624
  114SBC   C0E780395   7.926   5.168  13.507
  114SBC   C0CJ80396   7.915   5.063  13.595
  114SBC   C0E680397   7.870   4.937  13.558
  114SBC   H00Y80398   7.884   4.857  13.630
  114SBC   C0EO80399   7.825   4.933  13.426
  114SBC   H01180400   7.797   4.838  13.383
  114SBC   C0G680401   7.817   5.044  13.339
  114SBC   C0G580402   7.767   5.041  13.203
  114SBC   H01F80403   7.718   4.954  13.163
  114SBC   C0GD80404   7.772   5.145  13.122
  114SBC   H01I80405   7.738   5.134  13.020
  114SBC   O00H80406   7.831   5.263  13.155
  114SBC   C0EQ80407   7.879   5.164  13.373
  114SBC   C0GC80408   7.888   5.268  13.285
  114SBC   C0G780409   8.066   5.522  13.497
  114SBC   C0DD80410   8.453   5.859  13.590
  114SBC   C0GF80411   8.216   5.661  13.629
  114SBC   C0CO80412   8.148   5.526  13.867
  114SBC   C0D080413   8.454   5.674  13.911
  114SBC   C0C480414   8.484   5.492  14.111
  114SBC   C0CN80415   8.128   5.437  13.975
  114SBC   C0CP80416   8.346   5.197  14.105
  114SBC   C0CM80417   8.066   5.324  13.919
  114SBC   C0CI80418   7.979   5.112  13.718
  114SBC   C0CD80419   7.858   4.720  13.958
  114SBC   C0BR80420   8.139   4.949  14.025
  114SBC   C0CS80421   8.271   4.832  14.205
  114SBC   C0B680422   8.329   4.603  14.366
  114SBC   C0CG80423   8.020   4.603  14.088
  114SBC   C0CF80424   7.901   4.604  14.017
  114SBC   C0E580425   7.638   4.625  13.944
  114SBC   C0DT80426   7.469   4.405  13.953
  114SBC   C0DL80427   7.788   4.253  14.060
  114SBC   C0DM80428   7.837   4.136  14.105
  114SBC   C0DY80429   7.622   4.031  14.061
  114SBC   C0DU80430   7.393   4.296  13.947
  114SBC   C0F080431   7.173   4.215  13.988
  114SBC   C0F480432   6.999   4.051  14.115
  114SBC   C0FG80433   7.303   3.846  14.059
  114SBC   O00B80434   7.004   3.849  14.257
  114SBC   C0FN80435   7.333   3.733  14.128
  114SBC   C0DZ80436   7.536   3.923  14.078
  114SBC   O00C80437   7.749   3.688  14.250
  114SBC   C0FR80438   7.876   3.665  14.291
  114SBC   O00D80439   7.900   3.551  14.328
  114SBC   C0E080440   7.756   4.023  14.111
  114SBC   C0E380441   7.968   3.779  14.285
  114SBC   C0AW80442   8.095   3.776  14.340
  114SBC   C0AV80443   8.149   3.660  14.409
  114SBC   H00Q80444   8.110   3.561  14.392
  114SBC   C0AU80445   8.266   3.663  14.496
  114SBC   H00R80446   8.299   3.573  14.546
  114SBC   C0AT80447   8.316   3.791  14.526
  114SBC   C0AS80448   8.411   3.854  14.614
  114SBC   C0AR80449   8.455   3.788  14.734
  114SBC   C0BE80450   8.271   3.895  14.447
  114SBC   C0DN80451   7.960   4.134  14.166
  114SBC   C0AX80452   8.168   3.887  14.350
  114SBC   C0BB80453   8.139   4.249  14.273
  114SBC   C0BD80454   8.327   4.012  14.479
  114SBC   C0B280455   8.306   4.369  14.403
  114SBC   C0AH80456   8.502   4.371  14.594
  114SBC   C0BF80457   8.420   4.000  14.584
  114SBC   C0AL80458   8.703   4.308  14.767
  114SBC   C07U80459   8.614   3.963  14.827
  114SBC   C0AQ80460   8.553   3.839  14.822
  114SBC   C0BG80461   8.415   3.654  14.785
  114SBC   C0FY80462   8.421   3.585  15.138
  114SBC   C0BJ80463   8.277   3.624  14.827
  114SBC   H00S80464   8.190   3.660  14.774
  114SBC   C0FZ80465   8.287   3.573  15.180
  114SBC   C07S80466   8.509   3.663  15.218
  114SBC   C0G180467   8.300   3.714  15.518
  114SBC   C07K80468   8.623   3.829  15.668
  114SBC   C07H80469   8.687   3.804  15.396
  114SBC   C06B80470   9.034   3.805  15.501
  114SBC   C06N80471   9.094   3.985  15.386
  114SBC   C06680472   8.770   3.915  15.181
  114SBC   C06280473   8.875   4.164  15.016
  114SBC   C05Y80474   9.145   4.218  15.280
  114SBC   C06180475   8.953   4.271  14.971
  114SBC   C05H80476   9.105   4.533  15.169
  114SBC   C06V80477   8.893   4.392  14.924
  114SBC   C06Y80478   8.821   4.650  14.847
  114SBC   C05C80479   9.092   4.789  15.069
  114SBC   C06Z80480   8.849   4.879  14.808
  114SBC   C07080481   9.006   5.113  14.837
  114SBC   C05B80482   9.168   4.909  15.085
  114SBC   C05780483   9.327   5.139  15.094
  114SBC   C05980484   9.187   5.247  14.936
  115SBC   C05880485   0.785   3.084   5.777
  115SBC   C05A80486   0.748   3.122   5.910
  115SBC   C06Q80487   0.747   3.250   5.954
  115SBC   C06R80488   0.703   3.286   6.085
  115SBC   C06S80489   0.671   3.186   6.185
  115SBC   C06T80490   0.630   3.232   6.317
  115SBC   C06U80491   0.596   3.150   6.431
  115SBC   C06X80492   0.599   3.010   6.459
  115SBC   C06080493   0.554   2.980   6.597
  115SBC   C05Z80494   0.604   2.891   6.698
  115SBC   C06880495   0.568   2.965   6.820
  115SBC   C06780496   0.536   2.899   6.947
  115SBC   C06980497   0.559   2.762   6.980
  115SBC   C06A80498   0.522   2.688   7.100
  115SBC   C07380499   0.414   2.701   7.197
  115SBC   C07P80500   0.355   2.583   7.254
  115SBC   C07O80501   0.370   2.451   7.201
  115SBC   H00D80502   0.422   2.429   7.109
  115SBC   C07N80503   0.318   2.333   7.257
  115SBC   H00E80504   0.324   2.230   7.223
  115SBC   C07M80505   0.241   2.352   7.375
  115SBC   H00F80506   0.208   2.268   7.435
  115SBC   C07L80507   0.223   2.478   7.436
  115SBC   C07Q80508   0.143   2.504   7.559
  115SBC   H00G80509   0.098   2.422   7.612
  115SBC   O00F80510   0.115   2.635   7.603
  115SBC   C07J80511   0.180   2.740   7.543
  115SBC   C07I80512   0.259   2.725   7.432
  115SBC   N00480513   0.330   2.834   7.374
  115SBC   C07R80514   0.331   2.953   7.453
  115SBC   C07T80515   0.243   2.965   7.557
  115SBC   C0FX80516   0.235   3.075   7.638
  115SBC   C0FW80517   0.138   3.114   7.727
  115SBC   C0G080518   0.056   3.002   7.767
  115SBC   C0G280519  -0.050   3.015   7.862
  115SBC   H01E80520  -0.111   2.930   7.891
  115SBC   C0G380521  -0.065   3.145   7.910
  115SBC   H01C80522  -0.138   3.158   7.988
  115SBC   C0G480523   0.018   3.256   7.872
  115SBC   H01D80524  -0.002   3.351   7.918
  115SBC   O00E80525   0.079   2.880   7.714
  115SBC   C0FV80526   0.122   3.243   7.775
  115SBC   C0FU80527   0.214   3.346   7.726
  115SBC   H01B80528   0.212   3.446   7.765
  115SBC   C0FT80529   0.321   3.310   7.646
  115SBC   C0FS80530   0.423   3.374   7.570
  115SBC   C0BI80531   0.513   3.272   7.515
  115SBC   C0BH80532   0.586   3.323   7.407
  115SBC   C07F80533   0.558   3.285   7.271
  115SBC   C07E80534   0.525   3.159   7.215
  115SBC   C07G80535   0.471   3.057   7.287
  115SBC   C07480536   0.446   2.955   7.195
  115SBC   C06580537   0.535   3.126   7.080
  115SBC   C06480538   0.551   3.239   6.998
  115SBC   C06380539   0.550   3.235   6.863
  115SBC   C07580540   0.528   3.377   6.821
  115SBC   C0AM80541   0.563   3.463   6.931
  115SBC   C0AN80542   0.580   3.613   6.937
  115SBC   C0AO80543   0.587   3.719   6.828
  115SBC   C0B180544   0.591   3.858   6.855
  115SBC   C0B080545   0.588   3.905   6.983
  115SBC   C0AZ80546   0.580   4.039   7.015
  115SBC   C0AY80547   0.557   4.072   7.149
  115SBC   N00780548   0.533   4.208   7.183
  115SBC   C0E280549   0.500   4.237   7.318
  115SBC   C0E180550   0.464   4.371   7.342
  115SBC   C0E480551   0.400   4.397   7.468
  115SBC   C0FF80552   0.382   4.532   7.504
  115SBC   C0FJ80553   0.306   4.592   7.611
  115SBC   C0FK80554   0.169   4.567   7.651
  115SBC   H01680555   0.111   4.479   7.631
  115SBC   C0FL80556   0.114   4.693   7.709
  115SBC   H01780557   0.013   4.723   7.733
  115SBC   C0FM80558   0.219   4.790   7.703
  115SBC   C0FH80559   0.228   4.933   7.669
  115SBC   C0FI80560   0.350   4.932   7.595
  115SBC   C0F380561   0.363   5.027   7.491
  115SBC   C0F280562   0.451   4.993   7.388
  115SBC   C0DW80563   0.487   4.860   7.364
  115SBC   C0FE80564   0.452   4.765   7.454
  115SBC   C0DV80565   0.529   4.827   7.236
  115SBC   C0DX80566   0.534   4.699   7.201
  115SBC   C0DK80567   0.564   4.665   7.068
  115SBC   C0DJ80568   0.594   4.768   6.977
  115SBC   C0DI80569   0.624   4.738   6.847
  115SBC   C0DH80570   0.629   4.601   6.804
  115SBC   C0DG80571   0.591   4.498   6.895
  115SBC   C0BV80572   0.600   4.369   6.854
  115SBC   C0BC80573   0.580   4.270   6.951
  115SBC   C0BA80574   0.632   4.335   6.725
  115SBC   C0B480575   0.640   4.199   6.694
  115SBC   C0B380576   0.623   4.101   6.789
  115SBC   C0B580577   0.656   4.163   6.559
  115SBC   C0BU80578   0.682   4.269   6.466
  115SBC   C0BT80579   0.683   4.400   6.498
  115SBC   C0BS80580   0.715   4.500   6.409
  115SBC   C0CC80581   0.721   4.637   6.451
  115SBC   C0CB80582   0.772   4.737   6.367
  115SBC   C0CH80583   0.800   4.859   6.423
  115SBC   C0DO80584   0.748   4.904   6.546
  115SBC   C0DP80585   0.738   5.041   6.588
  115SBC   C0EA80586   0.771   5.150   6.502
  115SBC   H01280587   0.820   5.127   6.408
  115SBC   O00980588   0.747   5.277   6.534
  115SBC   C0EH80589   0.665   5.302   6.636
  115SBC   C0EG80590   0.611   5.429   6.653
  115SBC   C0EJ80591   0.604   5.546   6.569
  115SBC   H01080592   0.641   5.558   6.468
  115SBC   C0EK80593   0.539   5.657   6.639
  115SBC   H00Z80594   0.539   5.758   6.601
  115SBC   C0EL80595   0.502   5.597   6.760
  115SBC   C0EM80596   0.448   5.653   6.882
  115SBC   C0EW80597   0.398   5.782   6.909
  115SBC   H01380598   0.394   5.853   6.828
  115SBC   C0EX80599   0.327   5.821   7.034
  115SBC   H01480600   0.290   5.921   7.049
  115SBC   C0F180601   0.319   5.718   7.139
  115SBC   C0EU80602   0.373   5.593   7.118
  115SBC   C0ET80603   0.372   5.488   7.210
  115SBC   C0ES80604   0.447   5.392   7.138
  115SBC   C0EE80605   0.480   5.428   7.004
  115SBC   C0ED80606   0.536   5.377   6.883
  115SBC   C0EC80607   0.580   5.243   6.864
  115SBC   C0EB80608   0.576   5.134   6.957
  115SBC   C0EN80609   0.522   5.158   7.091
  115SBC   C0ER80610   0.526   5.054   7.178
  115SBC   C0DS80611   0.611   5.003   6.921
  115SBC   C0DR80612   0.652   4.973   6.796
  115SBC   C0EY80613   0.464   5.261   7.173
  115SBC   C0EZ80614   0.415   5.212   7.297
  115SBC   C0F580615   0.325   5.248   7.407
  115SBC   C0F680616   0.266   5.376   7.422
  115SBC   N00880617   0.168   5.390   7.527
  115SBC   C0F780618   0.128   5.281   7.614
  115SBC   C0FQ80619   0.024   5.315   7.702
  115SBC   H01880620  -0.006   5.227   7.757
  115SBC   C0FP80621  -0.032   5.442   7.714
  115SBC   H01980622  -0.126   5.459   7.764
  115SBC   C0FO80623   0.018   5.543   7.631
  115SBC   H01A80624  -0.032   5.639   7.630
  115SBC   C0F880625   0.190   5.156   7.593
  115SBC   C0F980626   0.114   5.520   7.538
  115SBC   C0FA80627   0.144   5.635   7.459
  115SBC   H01580628   0.092   5.729   7.476
  115SBC   C0FB80629   0.236   5.617   7.352
  115SBC   C0FD80630   0.292   5.489   7.333
  115SBC   C0FC80631   0.258   5.734   7.265
  115SBC   O00A80632   0.214   5.844   7.299
  115SBC   C0EV80633   0.430   5.563   6.996
  115SBC   C0EF80634   0.543   5.462   6.766
  115SBC   C0EI80635   0.642   5.206   6.740
  115SBC   C0DQ80636   0.681   5.074   6.707
  115SBC   C0CE80637   0.702   4.803   6.631
  115SBC   H00U80638   0.855   4.932   6.364
  115SBC   C0CA80639   0.794   4.714   6.226
  115SBC   C0C980640   0.817   4.575   6.192
  115SBC   C0C880641   0.901   4.558   6.078
  115SBC   C0C780642   0.916   4.439   5.991
  115SBC   C0C680643   1.011   4.459   5.886
  115SBC   C0C580644   1.032   4.408   5.753
  115SBC   C0CQ80645   1.087   4.495   5.659
  115SBC   C0D180646   1.106   4.627   5.689
  115SBC   C0D880647   1.090   4.705   5.579
  115SBC   C0D780648   1.069   4.621   5.469
  115SBC   C0D680649   1.043   4.655   5.334
  115SBC   C0D580650   1.070   4.557   5.240
  115SBC   C0D480651   1.034   4.426   5.228
  115SBC   C0D380652   1.115   4.365   5.132
  115SBC   C0CX80653   1.124   4.218   5.148
  115SBC   C0CW80654   1.071   4.197   5.277
  115SBC   C0CV80655   1.021   4.093   5.368
  115SBC   C0D280656   0.998   3.963   5.317
  115SBC   C09D80657   1.008   3.915   5.184
  115SBC   C09C80658   0.972   3.787   5.144
  115SBC   C09B80659   0.976   3.727   5.019
  115SBC   C09A80660   1.026   3.812   4.923
  115SBC   C09980661   1.034   3.941   4.944
  115SBC   C09880662   1.109   3.995   4.840
  115SBC   C08Y80663   1.149   3.888   4.749
  115SBC   C08X80664   1.245   3.887   4.646
  115SBC   C08W80665   1.317   4.016   4.617
  115SBC   C08U80666   1.310   4.146   4.680
  115SBC   C08V80667   1.257   4.194   4.806
  115SBC   C0DC80668   1.246   4.339   4.793
  115SBC   H00W80669   1.187   4.389   4.869
  115SBC   C0DB80670   1.322   4.380   4.677
  115SBC   H00X80671   1.350   4.482   4.656
  115SBC   C08T80672   1.361   4.260   4.608
  115SBC   C08S80673   1.431   4.254   4.488
  115SBC   H00N80674   1.472   4.347   4.452
  115SBC   C08R80675   1.455   4.122   4.431
  115SBC   C08Q80676   1.541   4.107   4.324
  115SBC   H00O80677   1.579   4.203   4.293
  115SBC   C08P80678   1.583   3.987   4.273
  115SBC   C08O80679   1.679   3.974   4.166
  115SBC   H00P80680   1.731   4.061   4.129
  115SBC   C08N80681   1.718   3.848   4.120
  115SBC   C08M80682   1.822   3.840   4.019
  115SBC   O00880683   1.877   3.934   3.963
  115SBC   O00780684   1.849   3.713   3.979
  115SBC   C08H80685   1.788   3.601   4.029
  115SBC   C08G80686   1.825   3.471   3.980
  115SBC   C03V80687   1.918   3.427   3.880
  115SBC   H00980688   1.977   3.504   3.831
  115SBC   C03U80689   1.939   3.290   3.843
  115SBC   C03W80690   2.022   3.247   3.736
  115SBC   H00A80691   2.073   3.326   3.683
  115SBC   C03X80692   2.039   3.117   3.707
  115SBC   H00B80693   2.105   3.095   3.625
  115SBC   O00580694   1.975   3.017   3.775
  115SBC   C03O80695   1.881   3.060   3.874
  115SBC   C03N80696   1.839   2.967   3.967
  115SBC   O00080697   1.885   2.839   3.948
  115SBC   C01980698   1.870   2.744   4.047
  115SBC   C01880699   1.774   2.769   4.148
  115SBC   C01780700   1.715   2.897   4.165
  115SBC   C01680701   1.628   2.923   4.267
  115SBC   C01580702   1.600   2.815   4.347
  115SBC   C01480703   1.498   2.828   4.443
  115SBC   C01380704   1.433   2.951   4.464
  115SBC   C01280705   1.340   2.923   4.572
  115SBC   C01180706   1.354   2.780   4.589
  115SBC   C01080707   1.274   2.718   4.682
  115SBC   C00Z80708   1.275   2.589   4.720
  115SBC   C00Y80709   1.186   2.587   4.827
  115SBC   C01O80710   1.117   2.705   4.846
  115SBC   C01P80711   1.077   2.746   4.971
  115SBC   C02L80712   1.057   2.878   4.990
  115SBC   C02K80713   1.088   2.961   4.875
  115SBC   C01M80714   1.173   2.926   4.760
  115SBC   C02J80715   1.052   3.091   4.898
  115SBC   C02I80716   1.062   3.200   4.809
  115SBC   C02H80717   1.130   3.210   4.686
  115SBC   C01Q80718   1.223   3.130   4.623
  115SBC   C02G80719   1.285   3.193   4.517
  115SBC   C08980720   1.220   3.314   4.508
  115SBC   C08880721   1.305   3.411   4.447
  115SBC   C08780722   1.409   3.325   4.387
  115SBC   C08680723   1.499   3.371   4.294
  115SBC   C03S80724   1.602   3.292   4.218
  115SBC   N00680725   1.669   3.384   4.139
  115SBC   C08F80726   1.635   3.508   4.171
  115SBC   C01J80727   1.635   3.157   4.206
  115SBC   C03R80728   1.730   3.128   4.105
  115SBC   C03Q80729   1.786   3.228   4.022
  115SBC   C08E80730   1.538   3.507   4.264
  115SBC   C08D80731   1.487   3.626   4.324
  115SBC   C08K80732   1.554   3.748   4.277
  115SBC   C08C80733   1.389   3.651   4.418
  115SBC   C09180734   1.364   3.778   4.463
  115SBC   C09280735   1.437   3.894   4.435
  115SBC   C08B80736   1.293   3.560   4.468
  115SBC   C09080737   1.213   3.639   4.562
  115SBC   C09480738   1.110   3.586   4.643
  115SBC   C09580739   1.057   3.652   4.755
  115SBC   C09R80740   1.000   3.561   4.844
  115SBC   C09780741   1.024   3.434   4.799
  115SBC   C09680742   1.090   3.447   4.673
  115SBC   C01I80743   1.394   3.181   4.416
  115SBC   C08A80744   1.135   3.328   4.619
  115SBC   C09L80745   1.003   3.313   4.870
  115SBC   C09K80746   0.950   3.276   4.997
  115SBC   C09J80747   0.928   3.367   5.099
  115SBC   C09I80748   0.918   3.337   5.239
  115SBC   C09O80749   0.903   3.221   5.323
  115SBC   C09N80750   0.921   3.088   5.274
  115SBC   C09M80751   0.968   3.050   5.143
  115SBC   C06O80752   0.897   2.988   5.367
  115SBC   C05M80753   0.855   3.018   5.501
  115SBC   C06P80754   0.844   3.148   5.547
  115SBC   C04280755   0.835   2.923   5.603
  115SBC   C04180756   0.867   2.791   5.571
  115SBC   C04080757   0.865   2.694   5.671
  115SBC   C03Z80758   0.917   2.569   5.647
  115SBC   C03Y80759   0.967   2.534   5.522
  115SBC   C02780760   1.033   2.415   5.503
  115SBC   C02680761   1.082   2.377   5.377
  115SBC   C02880762   1.157   2.267   5.364
  115SBC   C02980763   1.187   2.188   5.474
  115SBC   C02B80764   1.279   2.081   5.459
  115SBC   C02C80765   1.311   2.006   5.571
  115SBC   C02X80766   1.410   1.915   5.566
  115SBC   C03E80767   1.448   1.846   5.678
  115SBC   C03G80768   1.391   1.859   5.798
  115SBC   C04Q80769   1.291   1.955   5.809
  115SBC   C04R80770   1.227   1.979   5.928
  115SBC   C04S80771   1.141   2.085   5.943
  115SBC   C04L80772   1.106   2.160   5.834
  115SBC   C04M80773   1.155   2.130   5.707
  115SBC   C04K80774   1.019   2.270   5.846
  115SBC   C04F80775   0.973   2.304   5.971
  115SBC   C04E80776   1.013   2.231   6.078
  115SBC   C04D80777   0.964   2.258   6.205
  115SBC   C05080778   0.995   2.170   6.312
  115SBC   C05180779   0.963   2.211   6.439
  115SBC   C05Q80780   0.993   2.131   6.543
  115SBC   C05V80781   0.960   2.171   6.670
  115SBC   N00580782   1.000   2.092   6.786
  115SBC   C07V80783   1.066   1.968   6.764
  115SBC   C08280784   1.097   1.880   6.871
  115SBC   C08180785   1.079   1.924   6.998
  115SBC   C07C80786   1.022   2.048   7.018
  115SBC   C07B80787   1.007   2.092   7.152
  115SBC   C08080788   1.048   2.015   7.261
  115SBC   C07Z80789   1.035   2.075   7.389
  115SBC   H00L80790   1.072   2.015   7.471
  115SBC   C07980791   0.964   2.191   7.420
  115SBC   C07880792   0.908   2.255   7.307
  115SBC   C07780793   0.833   2.371   7.329
  115SBC   C07X80794   0.818   2.425   7.460
  115SBC   H00I80795   0.760   2.515   7.473
  115SBC   C07Y80796   0.865   2.351   7.574
  115SBC   H00H80797   0.855   2.389   7.675
  115SBC   C07680798   0.778   2.431   7.219
  115SBC   C06C80799   0.669   2.522   7.237
  115SBC   H00C80800   0.617   2.552   7.326
  115SBC   C06F80801   0.829   2.405   7.092
  115SBC   C06E80802   0.788   2.481   6.982
  115SBC   C06G80803   0.809   2.455   6.852
  115SBC   C06H80804   0.879   2.336   6.827
  115SBC   C06I80805   0.925   2.256   6.932
  115SBC   C06L80806   0.760   2.539   6.749
  115SBC   C06M80807   0.687   2.666   6.776
  115SBC   C06K80808   0.792   2.501   6.616
  115SBC   C05S80809   0.858   2.376   6.588
  115SBC   C05U80810   0.764   2.585   6.511
  115SBC   C05X80811   0.700   2.714   6.529
  115SBC   C05G80812   0.694   2.790   6.408
  115SBC   C05F80813   0.723   2.734   6.286
  115SBC   C05E80814   0.719   2.824   6.184
  115SBC   C04880815   0.754   2.791   6.053
  115SBC   C05680816   0.757   2.893   5.964
  115SBC   C04580817   0.788   2.856   5.829
  115SBC   C04780818   0.789   2.663   6.031
  115SBC   C04980819   0.807   2.573   6.139
  115SBC   C04B80820   0.866   2.457   6.119
  115SBC   C04680821   0.828   2.633   5.904
  115SBC   C04H80822   0.884   2.509   5.880
  115SBC   C05D80823   0.688   2.949   6.232
  115SBC   C04A80824   0.780   2.608   6.271
  115SBC   C05T80825   0.802   2.538   6.382
  115SBC   C05580826   0.861   2.418   6.357
  115SBC   C06D80827   0.686   2.571   7.004
  115SBC   C07W80828   0.904   2.293   7.066
  115SBC   C08580829   0.941   2.233   7.553
  115SBC   H00M80830   0.984   2.173   7.633
  115SBC   C08480831   1.101   1.890   7.239
  115SBC   H00J80832   1.129   1.835   7.327
  115SBC   C07A80833   0.937   2.213   7.174
  115SBC   C08380834   1.117   1.839   7.109
  115SBC   H00K80835   1.170   1.745   7.104
  115SBC   O00K80836   1.146   1.757   6.849
  115SBC   C0GO80837   1.182   1.719   6.722
  115SBC   C0GN80838   1.233   1.588   6.698
  115SBC   H01L80839   1.244   1.524   6.783
  115SBC   C0GM80840   1.259   1.538   6.565
  115SBC   C0GL80841   1.304   1.410   6.545
  115SBC   H01M80842   1.314   1.348   6.633
  115SBC   O00J80843   1.337   1.367   6.418
  115SBC   C0GK80844   1.331   1.464   6.318
  115SBC   H01N80845   1.374   1.436   6.223
  115SBC   C05K80846   1.280   1.592   6.337
  115SBC   C05J80847   1.285   1.695   6.237
  115SBC   C04Y80848   1.364   1.686   6.120
  115SBC   C04X80849   1.350   1.779   6.015
  115SBC   O00680850   1.463   1.588   6.100
  115SBC   C05380851   1.534   1.577   5.989
  115SBC   C04O80852   1.524   1.673   5.888
  115SBC   C03C80853   1.601   1.674   5.763
  115SBC   C03B80854   1.703   1.598   5.700
  115SBC   C05480855   1.737   1.468   5.743
  115SBC   C0GR80856   1.812   1.378   5.661
  115SBC   C03M80857   1.883   1.380   5.529
  115SBC   C03I80858   1.871   1.483   5.438
  115SBC   C03J80859   1.952   1.478   5.317
  115SBC   N00280860   1.934   1.569   5.213
  115SBC   C02U80861   2.019   1.572   5.097
  115SBC   C02T80862   1.994   1.662   4.994
  115SBC   C02Z80863   2.082   1.666   4.891
  115SBC   N00180864   2.064   1.760   4.783
  115SBC   C02R80865   2.166   1.771   4.679
  115SBC   C03280866   2.271   1.680   4.675
  115SBC   C03180867   2.278   1.586   4.778
  115SBC   H00780868   2.359   1.515   4.780
  115SBC   C03380869   2.375   1.705   4.575
  115SBC   H00380870   2.453   1.630   4.564
  115SBC   O00480871   2.358   1.811   4.481
  115SBC   C03480872   2.248   1.894   4.494
  115SBC   C03580873   2.248   2.003   4.408
  115SBC   C03680874   2.156   2.107   4.428
  115SBC   H00580875   2.168   2.193   4.363
  115SBC   C03780876   2.053   2.094   4.529
  115SBC   H00680877   1.984   2.175   4.546
  115SBC   C00D80878   2.043   1.970   4.598
  115SBC   C00C80879   1.933   1.939   4.675
  115SBC   C00B80880   1.806   2.015   4.676
  115SBC   C00A80881   1.744   2.148   4.626
  115SBC   C00980882   1.626   2.165   4.699
  115SBC   C00880883   1.540   2.277   4.704
  115SBC   C00780884   1.567   2.373   4.609
  115SBC   C00680885   1.488   2.491   4.614
  115SBC   C00580886   1.520   2.592   4.520
  115SBC   C00480887   1.622   2.579   4.425
  115SBC   C00380888   1.680   2.452   4.410
  115SBC   C00280889   1.771   2.432   4.308
  115SBC   C01C80890   1.800   2.537   4.218
  115SBC   C01B80891   1.898   2.516   4.118
  115SBC   H00080892   1.959   2.431   4.092
  115SBC   C00180893   1.823   2.304   4.289
  115SBC   C00080894   1.799   2.209   4.393
  115SBC   C01U80895   1.833   2.083   4.337
  115SBC   H00280896   1.820   1.982   4.373
  115SBC   C01T80897   1.880   2.109   4.196
  115SBC   O00280898   1.922   2.022   4.116
  115SBC   O00180899   1.873   2.242   4.175
  115SBC   C01S80900   1.665   2.355   4.516
  115SBC   C00N80901   1.446   2.278   4.802
  115SBC   C00M80902   1.439   2.182   4.901
  115SBC   C00J80903   1.522   2.073   4.896
  115SBC   C00I80904   1.543   1.979   4.993
  115SBC   C00H80905   1.644   1.884   4.984
  115SBC   C00G80906   1.733   1.883   4.877
  115SBC   C00F80907   1.854   1.822   4.883
  115SBC   C01X80908   1.679   1.810   5.098
  115SBC   C01W80909   1.605   1.828   5.208
  115SBC   C01V80910   1.500   1.921   5.217
  115SBC   C02080911   1.434   1.953   5.331
  115SBC   C01Z80912   1.647   1.768   5.325
  115SBC   C02Y80913   1.591   1.809   5.435
  115SBC   C03980914   1.631   1.748   5.553
  115SBC   C02W80915   1.749   1.671   5.330
  115SBC   C01Y80916   1.793   1.728   5.102
  115SBC   C00U80917   1.468   1.999   5.105
  115SBC   C00S80918   1.375   2.104   5.112
  115SBC   C00T80919   1.304   2.129   5.229
  115SBC   C00R80920   1.360   2.192   5.011
  115SBC   C00Q80921   1.274   2.300   5.018
  115SBC   C00V80922   1.192   2.320   5.135
  115SBC   C02480923   1.111   2.427   5.149
  115SBC   C00X80924   1.119   2.525   5.052
  115SBC   C00P80925   1.277   2.394   4.922
  115SBC   C00O80926   1.367   2.389   4.811
  115SBC   C00K80927   1.605   2.059   4.785
  115SBC   N00080928   1.738   2.232   4.513
  115SBC   C00L80929   1.712   1.973   4.771
  115SBC   H00480930   2.332   2.013   4.340
  115SBC   C02Q80931   2.148   1.875   4.590
  115SBC   C00E80932   1.941   1.835   4.774
  115SBC   C03080933   2.185   1.574   4.878
  115SBC   O00380934   2.201   1.477   4.981
  115SBC   C02S80935   1.880   1.733   4.994
  115SBC   C03880936   2.120   1.483   5.087
  115SBC   C03L80937   2.136   1.381   5.183
  115SBC   H00880938   2.209   1.303   5.168
  115SBC   C02V80939   1.824   1.659   5.219
  115SBC   C03K80940   2.047   1.377   5.294
  115SBC   C0BK80941   2.041   1.277   5.389
  115SBC   H00T80942   2.108   1.196   5.363
  115SBC   C03H80943   1.787   1.597   5.444
  115SBC   C0BL80944   1.959   1.266   5.500
  115SBC   C0GU80945   1.958   1.152   5.581
  115SBC   H01O80946   2.011   1.064   5.548
  115SBC   C0GT80947   1.874   1.140   5.690
  115SBC   H01P80948   1.858   1.051   5.749
  115SBC   C0GS80949   1.814   1.257   5.741
  115SBC   C0GV80950   1.745   1.283   5.860
  115SBC   C0GW80951   1.712   1.188   5.962
  115SBC   H01Q80952   1.748   1.086   5.958
  115SBC   C0GX80953   1.650   1.235   6.072
  115SBC   H01R80954   1.623   1.161   6.146
  115SBC   O00L80955   1.605   1.371   6.087
  115SBC   C0GQ80956   1.690   1.415   5.867
  115SBC   C03A80957   1.713   1.635   5.567
  115SBC   C05L80958   1.607   1.457   5.977
  115SBC   C04W80959   1.212   1.817   6.246
  115SBC   C05I80960   1.158   1.848   6.373
  115SBC   C05O80961   1.178   1.762   6.480
  115SBC   C05280962   1.094   1.971   6.398
  115SBC   C04V80963   1.187   1.906   6.143
  115SBC   C04U80964   1.110   2.020   6.161
  115SBC   N00980965   1.229   1.631   6.458
  115SBC   C0GP80966   1.155   1.803   6.610
  115SBC   C05W80967   1.093   1.929   6.631
  115SBC   C07D80968   0.983   2.131   6.916
  115SBC   C06J80969   0.897   2.290   6.697
  115SBC   C05P80970   1.061   2.012   6.526
  115SBC   C05R80971   0.892   2.336   6.463
  115SBC   C04Z80972   1.067   2.058   6.289
  115SBC   C04C80973   0.893   2.376   6.228
  115SBC   C04G80974   0.903   2.421   5.991
  115SBC   C04J80975   1.000   2.356   5.738
  115SBC   C04T80976   1.086   2.109   6.062
  115SBC   N00380977   1.259   1.890   6.032
  115SBC   C04P80978   1.423   1.773   5.900
  115SBC   C03D80979   1.555   1.762   5.665
  115SBC   C02180980   1.478   1.893   5.448
  115SBC   C03F80981   1.251   2.030   5.696
  115SBC   C02280982   1.337   2.053   5.338
  115SBC   C02A80983   1.130   2.213   5.598
  115SBC   C02380984   1.217   2.236   5.240
  115SBC   C02580985   1.057   2.460   5.270
  115SBC   C02D80986   1.006   2.590   5.292
  115SBC   C02E80987   1.015   2.684   5.191
  115SBC   C02N80988   0.981   2.819   5.214
  115SBC   C04N80989   1.054   2.330   5.610
  115SBC   C02P80990   0.961   2.628   5.421
  115SBC   C04I80991   0.927   2.477   5.753
  115SBC   C04480992   0.826   2.726   5.799
  115SBC   C04380993   0.920   2.757   5.445
  115SBC   C05N80994   0.928   2.857   5.340
  115SBC   C09U80995   0.877   3.248   5.458
  115SBC   C09V80996   0.874   3.383   5.511
  115SBC   C09X80997   0.897   3.497   5.433
  115SBC   C09Y80998   0.910   3.630   5.465
  115SBC   C0A180999   0.891   3.657   5.597
  115SBC   C0A281000   0.853   3.556   5.682
  115SBC   C0A481001   0.814   3.585   5.811
  115SBC   C07181002   0.773   3.482   5.895
  115SBC   C0A581003   0.740   3.517   6.023
  115SBC   C0A981004   0.743   3.651   6.060
  115SBC   C0A881005   0.781   3.748   5.971
  115SBC   C0AP81006   0.784   3.880   6.010
  115SBC   C0BY81007   0.824   3.975   5.925
  115SBC   C0BX81008   0.874   3.948   5.805
  115SBC   C0C281009   0.912   4.053   5.717
  115SBC   C0C381010   0.949   4.020   5.587
  115SBC   C0CT81011   0.934   3.890   5.545
  115SBC   C0C181012   0.918   4.185   5.766
  115SBC   C0C081013   0.853   4.216   5.893
  115SBC   C0A781014   0.870   3.818   5.764
  115SBC   C0BZ81015   0.814   4.106   5.965
  115SBC   C0BO81016   0.764   4.145   6.085
  115SBC   C0BN81017   0.744   4.049   6.181
  115SBC   C0BM81018   0.712   4.090   6.305
  115SBC   C0B981019   0.674   3.994   6.395
  115SBC   C0B881020   0.671   3.864   6.358
  115SBC   C0AD81021   0.700   3.825   6.229
  115SBC   C0AF81022   0.642   3.763   6.453
  115SBC   C0AG81023   0.617   3.792   6.594
  115SBC   C0B781024   0.627   3.926   6.624
  115SBC   C0AE81025   0.629   3.636   6.408
  115SBC   C0AB81026   0.657   3.598   6.278
  115SBC   C0AA81027   0.659   3.460   6.243
  115SBC   C0AJ81028   0.585   3.545   6.503
  115SBC   C0AK81029   0.576   3.417   6.464
  115SBC   C06W81030   0.542   3.348   6.571
  115SBC   C0AI81031   0.558   3.563   6.637
  115SBC   C0BP81032   0.777   4.280   6.112
  115SBC   C0BQ81033   0.756   4.332   6.248
  115SBC   C0BW81034   0.744   3.920   6.137
  115SBC   C0AC81035   0.697   3.691   6.189
  115SBC   C0A681036   0.819   3.714   5.847
  115SBC   C0A381037   0.899   3.790   5.635
  115SBC   C09Z81038   0.938   3.733   5.377
  115SBC   C09W81039   0.836   3.417   5.644
  115SBC   C07281040   0.807   3.316   5.727
  115SBC   C09H81041   0.908   3.464   5.303
  115SBC   C09G81042   0.921   3.563   5.212
  115SBC   C09P81043   0.937   3.509   5.089
  115SBC   C02O81044   0.979   3.140   5.021
  115SBC   C02M81045   1.001   2.920   5.116
  115SBC   C02F81046   1.064   2.650   5.068
  115SBC   C00W81047   1.187   2.497   4.931
  115SBC   C01R81048   1.384   2.488   4.714
  115SBC   C01N81049   1.188   2.785   4.760
  115SBC   C01L81050   1.248   2.996   4.655
  115SBC   C01H81051   1.472   3.067   4.383
  115SBC   C01K81052   1.454   2.721   4.519
  115SBC   C01E81053   1.652   2.686   4.338
  115SBC   C01G81054   1.581   3.054   4.285
  115SBC   C01D81055   1.746   2.663   4.235
  115SBC   C01A81056   1.921   2.617   4.026
  115SBC   H00181057   1.980   2.606   3.936
  115SBC   C01F81058   1.753   2.995   4.077
  115SBC   C03P81059   1.866   3.193   3.912
  115SBC   C03T81060   1.764   3.361   4.042
  115SBC   C08I81061   1.697   3.616   4.128
  115SBC   C08J81062   1.656   3.737   4.177
  115SBC   C08L81063   1.521   3.875   4.327
  115SBC   C09381064   1.399   4.014   4.495
  115SBC   C08Z81065   1.265   3.774   4.566
  115SBC   C09T81066   1.177   4.108   4.899
  115SBC   C09S81067   1.073   3.786   4.798
  115SBC   C09Q81068   0.966   3.594   4.984
  115SBC   C09F81069   0.942   3.699   5.244
  115SBC   C09E81070   1.045   3.996   5.072
  115SBC   C0A081071   0.957   3.865   5.412
  115SBC   C0CU81072   0.986   4.124   5.499
  115SBC   C0CR81073   1.006   4.255   5.555
  115SBC   C0CZ81074   1.032   4.360   5.466
  115SBC   C0DA81075   1.119   4.121   5.044
  115SBC   C0D981076   1.218   4.469   5.089
  115SBC   H00V81077   1.301   4.449   5.023
  115SBC   C0CY81078   1.031   4.331   5.325
  115SBC   C0DF81079   1.168   4.599   5.143
  115SBC   C0DE81080   1.194   4.737   5.167
  115SBC   C0GI81081   1.236   4.841   5.085
  115SBC   H01K81082   1.266   4.837   4.981
  115SBC   C0GJ81083   1.245   4.962   5.140
  115SBC   H01J81084   1.276   5.039   5.072
  115SBC   O00I81085   1.192   4.996   5.270
  115SBC   C0GH81086   1.126   4.897   5.348
  115SBC   C0GG81087   1.083   4.940   5.478
  115SBC   O00G81088   1.081   5.072   5.513
  115SBC   C0G881089   1.028   5.114   5.633
  115SBC   C0G981090   1.000   5.252   5.639
  115SBC   H01G81091   1.034   5.317   5.559
  115SBC   C0GA81092   0.929   5.302   5.751
  115SBC   H01H81093   0.899   5.406   5.748
  115SBC   C0GB81094   0.877   5.216   5.849
  115SBC   C0EP81095   0.910   5.078   5.851
  115SBC   C0E881096   0.860   4.997   5.959
  115SBC   C0CK81097   0.864   4.859   6.005
  115SBC   C0CL81098   0.965   4.780   5.962
  115SBC   C0E981099   1.026   4.795   5.830
  115SBC   C0GE81100   1.031   4.891   5.723
  115SBC   C0E781101   0.772   5.050   6.056
  115SBC   C0CJ81102   0.727   4.959   6.153
  115SBC   C0E681103   0.633   5.006   6.236
  115SBC   H00Y81104   0.596   4.936   6.309
  115SBC   C0EO81105   0.604   5.138   6.250
  115SBC   H01181106   0.549   5.164   6.339
  115SBC   C0G681107   0.654   5.238   6.158
  115SBC   C0G581108   0.620   5.375   6.144
  115SBC   H01F81109   0.549   5.410   6.218
  115SBC   C0GD81110   0.676   5.450   6.047
  115SBC   H01I81111   0.641   5.552   6.039
  115SBC   O00H81112   0.765   5.405   5.952
  115SBC   C0EQ81113   0.737   5.188   6.053
  115SBC   C0GC81114   0.791   5.272   5.951
  115SBC   C0G781115   0.987   5.025   5.741
  115SBC   C0DD81116   1.123   4.767   5.289
  115SBC   C0GF81117   1.075   4.847   5.588
  115SBC   C0CO81118   1.078   4.673   5.812
  115SBC   C0D081119   1.052   4.489   5.523
  115SBC   C0C481120   0.986   4.288   5.696
  115SBC   C0CN81121   1.070   4.585   5.918
  115SBC   C0CP81122   0.828   4.329   5.988
  115SBC   C0CM81123   1.000   4.652   6.021
  115SBC   C0CI81124   0.798   4.834   6.133
  115SBC   C0CD81125   0.694   4.670   6.583
  115SBC   C0BR81126   0.764   4.467   6.279
  115SBC   C0CS81127   0.718   4.231   6.334
  115SBC   C0B681128   0.653   4.026   6.526
  115SBC   C0CG81129   0.653   4.434   6.629
  115SBC   C0CF81130   0.662   4.570   6.671
  115SBC   C0E581131   0.657   4.839   6.761
  115SBC   C0DT81132   0.591   4.900   7.014
  115SBC   C0DL81133   0.561   4.532   7.030
  115SBC   C0DM81134   0.530   4.434   7.125
  115SBC   C0DY81135   0.492   4.600   7.292
  115SBC   C0DU81136   0.561   4.925   7.143
  115SBC   C0F081137   0.470   5.090   7.298
  115SBC   C0F481138   0.298   5.147   7.499
  115SBC   C0FG81139   0.400   4.803   7.579
  115SBC   O00B81140   0.148   5.042   7.669
  115SBC   C0FN81141   0.336   4.723   7.662
  115SBC   C0DZ81142   0.444   4.631   7.421
  115SBC   O00C81143   0.373   4.292   7.557
  115SBC   C0FR81144   0.424   4.164   7.541
  115SBC   O00D81145   0.410   4.084   7.633
  115SBC   C0E081146   0.492   4.466   7.250
  115SBC   C0E381147   0.489   4.131   7.416
  115SBC   C0AW81148   0.543   4.009   7.384
  115SBC   C0AV81149   0.567   3.903   7.475
  115SBC   H00Q81150   0.560   3.922   7.581
  115SBC   C0AU81151   0.600   3.774   7.434
  115SBC   H00R81152   0.612   3.701   7.513
  115SBC   C0AT81153   0.594   3.742   7.296
  115SBC   C0AS81154   0.593   3.633   7.208
  115SBC   C0AR81155   0.561   3.509   7.263
  115SBC   C0BE81156   0.585   3.849   7.210
  115SBC   C0DN81157   0.546   4.303   7.082
  115SBC   C0AX81158   0.568   3.983   7.254
  115SBC   C0BB81159   0.591   4.138   6.918
  115SBC   C0BD81160   0.594   3.812   7.081
  115SBC   C0B281161   0.615   3.962   6.755
  115SBC   C0AH81162   0.589   3.694   6.691
  115SBC   C0BF81163   0.592   3.676   7.070
  115SBC   C0AL81164   0.516   3.432   6.684
  115SBC   C07U81165   0.561   3.374   7.043
  115SBC   C0AQ81166   0.571   3.395   7.186
  115SBC   C0BG81167   0.566   3.463   7.402
  115SBC   C0FY81168   0.439   3.158   7.518
  115SBC   C0BJ81169   0.456   3.494   7.501
  115SBC   H00S81170   0.407   3.590   7.512
  115SBC   C0FZ81171   0.334   3.177   7.607
  115SBC   C07S81172   0.423   3.056   7.423
  115SBC   C0G181173   0.161   2.864   7.599
  115SBC   C07K81174   0.278   2.595   7.375
  115SBC   C07H81175   0.398   2.829   7.245
  115SBC   C06B81176   0.632   2.598   7.124
  115SBC   C06N81177   0.647   2.670   6.913
  115SBC   C06681178   0.503   2.984   7.064
  115SBC   C06281179   0.531   3.109   6.785
  115SBC   C05Y81180   0.665   2.755   6.668
  115SBC   C06181181   0.512   3.108   6.648
  115SBC   C05H81182   0.664   2.923   6.373
  115SBC   C06V81183   0.546   3.209   6.551
  115SBC   C06Y81184   0.622   3.367   6.339
  115SBC   C05C81185   0.689   3.058   6.138
  115SBC   C06Z81186   0.698   3.421   6.114
  115SBC   C07081187   0.778   3.347   5.861
  115SBC   C05B81188   0.728   3.023   6.003
  115SBC   C05781189   0.797   2.952   5.735
  115SBC   C05981190   0.814   3.183   5.681
  116SBC   C05881191   7.555   0.499   6.284
  116SBC   C05A81192   7.466   0.564   6.202
  116SBC   C06Q81193   7.399   0.681   6.244
  116SBC   C06R81194   7.313   0.748   6.156
  116SBC   C06S81195   7.275   0.692   6.029
  116SBC   C06T81196   7.175   0.763   5.951
  116SBC   C06U81197   7.130   0.741   5.810
  116SBC   C06X81198   7.154   0.641   5.714
  116SBC   C06081199   7.088   0.672   5.589
  116SBC   C05Z81200   7.016   0.581   5.498
  116SBC   C06881201   6.885   0.650   5.465
  116SBC   C06781202   6.772   0.614   5.370
  116SBC   C06981203   6.789   0.496   5.283
  116SBC   C06A81204   6.691   0.428   5.194
  116SBC   C07381205   6.550   0.425   5.190
  116SBC   C07P81206   6.488   0.299   5.167
  116SBC   C07O81207   6.546   0.174   5.183
  116SBC   H00D81208   6.640   0.155   5.232
  116SBC   C07N81209   6.492   0.057   5.134
  116SBC   H00E81210   6.544  -0.036   5.151
  116SBC   C07M81211   6.367   0.061   5.076
  116SBC   H00F81212   6.315  -0.030   5.054
  116SBC   C07L81213   6.296   0.180   5.077
  116SBC   C07Q81214   6.157   0.195   5.037
  116SBC   H00G81215   6.106   0.105   5.004
  116SBC   O00F81216   6.082   0.311   5.036
  116SBC   C07J81217   6.153   0.420   5.064
  116SBC   C07I81218   6.289   0.419   5.115
  116SBC   N00481219   6.349   0.545   5.155
  116SBC   C07R81220   6.280   0.665   5.125
  116SBC   C07T81221   6.150   0.653   5.080
  116SBC   C0FX81222   6.072   0.768   5.084
  116SBC   C0FW81223   5.934   0.768   5.067
  116SBC   C0G081224   5.879   0.646   5.013
  116SBC   C0G281225   5.739   0.645   4.993
  116SBC   H01E81226   5.697   0.548   4.972
  116SBC   C0G381227   5.658   0.757   5.004
  116SBC   H01C81228   5.556   0.752   4.970
  116SBC   C0G481229   5.715   0.878   5.050
  116SBC   H01D81230   5.641   0.955   5.065
  116SBC   O00E81231   5.954   0.532   4.992
  116SBC   C0FV81232   5.855   0.882   5.098
  116SBC   C0FU81233   5.918   0.995   5.156
  116SBC   H01B81234   5.865   1.085   5.184
  116SBC   C0FT81235   6.061   0.997   5.156
  116SBC   C0FS81236   6.163   1.084   5.203
  116SBC   C0BI81237   6.288   1.039   5.157
  116SBC   C0BH81238   6.386   1.092   5.236
  116SBC   C07F81239   6.474   1.016   5.319
  116SBC   C07E81240   6.519   0.885   5.303
  116SBC   C07G81241   6.462   0.784   5.224
  116SBC   C07481242   6.533   0.669   5.258
  116SBC   C06581243   6.619   0.828   5.380
  116SBC   C06481244   6.666   0.905   5.490
  116SBC   C06381245   6.770   0.872   5.579
  116SBC   C07581246   6.761   0.980   5.683
  116SBC   C0AM81247   6.659   1.081   5.652
  116SBC   C0AN81248   6.609   1.196   5.736
  116SBC   C0AO81249   6.645   1.243   5.875
  116SBC   C0B181250   6.561   1.335   5.954
  116SBC   C0B081251   6.447   1.383   5.900
  116SBC   C0AZ81252   6.349   1.461   5.964
  116SBC   C0AY81253   6.232   1.503   5.903
  116SBC   N00781254   6.135   1.569   5.976
  116SBC   C0E281255   6.010   1.595   5.916
  116SBC   C0E181256   5.912   1.643   5.994
  116SBC   C0E481257   5.783   1.661   5.935
  116SBC   C0FF81258   5.676   1.712   6.005
  116SBC   C0FJ81259   5.530   1.716   5.980
  116SBC   C0FK81260   5.462   1.608   5.915
  116SBC   H01681261   5.515   1.535   5.856
  116SBC   C0FL81262   5.326   1.610   5.978
  116SBC   H01781263   5.242   1.543   5.965
  116SBC   C0FM81264   5.311   1.722   6.066
  116SBC   C0FH81265   5.256   1.758   6.196
  116SBC   C0FI81266   5.368   1.822   6.250
  116SBC   C0F381267   5.380   1.830   6.394
  116SBC   C0F281268   5.505   1.850   6.435
  116SBC   C0DW81269   5.618   1.829   6.353
  116SBC   C0FE81270   5.610   1.819   6.216
  116SBC   C0DV81271   5.744   1.814   6.409
  116SBC   C0DX81272   5.848   1.764   6.333
  116SBC   C0DK81273   5.971   1.730   6.397
  116SBC   C0DJ81274   5.983   1.753   6.534
  116SBC   C0DI81275   6.102   1.721   6.593
  116SBC   C0DH81276   6.213   1.676   6.512
  116SBC   C0DG81277   6.196   1.651   6.377
  116SBC   C0BV81278   6.297   1.584   6.307
  116SBC   C0BC81279   6.278   1.555   6.171
  116SBC   C0BA81280   6.421   1.563   6.365
  116SBC   C0B481281   6.511   1.493   6.293
  116SBC   C0B381282   6.490   1.452   6.160
  116SBC   C0B581283   6.633   1.463   6.354
  116SBC   C0BU81284   6.659   1.504   6.483
  116SBC   C0BT81285   6.568   1.574   6.558
  116SBC   C0BS81286   6.589   1.609   6.691
  116SBC   C0CC81287   6.480   1.662   6.762
  116SBC   C0CB81288   6.492   1.685   6.902
  116SBC   C0CH81289   6.374   1.687   6.972
  116SBC   C0DO81290   6.247   1.714   6.924
  116SBC   C0DP81291   6.135   1.737   7.009
  116SBC   C0EA81292   6.143   1.737   7.148
  116SBC   H01281293   6.240   1.734   7.196
  116SBC   O00981294   6.033   1.747   7.237
  116SBC   C0EH81295   5.915   1.762   7.173
  116SBC   C0EG81296   5.809   1.758   7.255
  116SBC   C0EJ81297   5.789   1.758   7.401
  116SBC   H01081298   5.867   1.747   7.475
  116SBC   C0EK81299   5.644   1.756   7.430
  116SBC   H00Z81300   5.599   1.753   7.528
  116SBC   C0EL81301   5.584   1.757   7.306
  116SBC   C0EM81302   5.447   1.757   7.260
  116SBC   C0EW81303   5.333   1.757   7.345
  116SBC   H01381304   5.339   1.769   7.452
  116SBC   C0EX81305   5.194   1.758   7.289
  116SBC   H01481306   5.113   1.753   7.360
  116SBC   C0F181307   5.175   1.757   7.137
  116SBC   C0EU81308   5.288   1.745   7.060
  116SBC   C0ET81309   5.301   1.741   6.917
  116SBC   C0ES81310   5.443   1.732   6.889
  116SBC   C0EE81311   5.515   1.744   7.017
  116SBC   C0ED81312   5.648   1.761   7.062
  116SBC   C0EC81313   5.761   1.771   6.976
  116SBC   C0EB81314   5.762   1.785   6.830
  116SBC   C0EN81315   5.637   1.809   6.761
  116SBC   C0ER81316   5.648   1.833   6.625
  116SBC   C0DS81317   5.882   1.786   6.753
  116SBC   C0DR81318   6.001   1.763   6.815
  116SBC   C0EY81319   5.494   1.794   6.782
  116SBC   C0EZ81320   5.423   1.796   6.662
  116SBC   C0F581321   5.287   1.780   6.609
  116SBC   C0F681322   5.184   1.754   6.698
  116SBC   N00881323   5.057   1.725   6.628
  116SBC   C0F781324   5.042   1.711   6.488
  116SBC   C0FQ81325   4.920   1.657   6.434
  116SBC   H01881326   4.925   1.637   6.328
  116SBC   C0FP81327   4.806   1.640   6.512
  116SBC   H01981328   4.714   1.609   6.465
  116SBC   C0FO81329   4.818   1.687   6.643
  116SBC   H01A81330   4.729   1.674   6.702
  116SBC   C0F881331   5.156   1.741   6.413
  116SBC   C0F981332   4.941   1.725   6.704
  116SBC   C0FA81333   4.938   1.743   6.846
  116SBC   H01581334   4.845   1.743   6.902
  116SBC   C0FB81335   5.061   1.755   6.913
  116SBC   C0FD81336   5.181   1.756   6.840
  116SBC   C0FC81337   5.051   1.762   7.057
  116SBC   O00A81338   4.940   1.764   7.112
  116SBC   C0EV81339   5.418   1.752   7.117
  116SBC   C0EF81340   5.681   1.767   7.203
  116SBC   C0EI81341   5.892   1.760   7.035
  116SBC   C0DQ81342   6.007   1.753   6.956
  116SBC   C0CE81343   6.237   1.711   6.786
  116SBC   H00U81344   6.390   1.672   7.078
  116SBC   C0CA81345   6.622   1.704   6.958
  116SBC   C0C981346   6.732   1.639   6.889
  116SBC   C0C881347   6.860   1.637   6.958
  116SBC   C0C781348   6.972   1.552   6.952
  116SBC   C0C681349   7.083   1.586   7.039
  116SBC   C0C581350   7.198   1.518   7.094
  116SBC   C0CQ81351   7.234   1.565   7.221
  116SBC   C0D181352   7.147   1.648   7.289
  116SBC   C0D881353   7.154   1.627   7.424
  116SBC   C0D781354   7.277   1.560   7.438
  116SBC   C0D681355   7.339   1.526   7.559
  116SBC   C0D581356   7.467   1.463   7.570
  116SBC   C0D481357   7.546   1.392   7.473
  116SBC   C0D381358   7.600   1.284   7.547
  116SBC   C0CX81359   7.618   1.171   7.456
  116SBC   C0CW81360   7.540   1.203   7.330
  116SBC   C0CV81361   7.508   1.135   7.199
  116SBC   C0D281362   7.558   1.005   7.162
  116SBC   C09D81363   7.642   0.919   7.244
  116SBC   C09C81364   7.687   0.789   7.196
  116SBC   C09B81365   7.778   0.700   7.261
  116SBC   C09A81366   7.830   0.745   7.381
  116SBC   C09981367   7.780   0.854   7.445
  116SBC   C09881368   7.874   0.909   7.529
  116SBC   C08Y81369   7.996   0.827   7.522
  116SBC   C08X81370   8.129   0.857   7.562
  116SBC   C08W81371   8.153   0.981   7.628
  116SBC   C08U81372   8.064   1.096   7.659
  116SBC   C08V81373   7.926   1.133   7.624
  116SBC   C0DC81374   7.886   1.238   7.706
  116SBC   H00W81375   7.789   1.286   7.707
  116SBC   C0DB81376   7.993   1.270   7.795
  116SBC   H00X81377   7.980   1.347   7.869
  116SBC   C08T81378   8.099   1.184   7.767
  116SBC   C08S81379   8.229   1.189   7.818
  116SBC   H00N81380   8.246   1.265   7.893
  116SBC   C08R81381   8.329   1.126   7.739
  116SBC   C08Q81382   8.461   1.167   7.740
  116SBC   H00O81383   8.490   1.261   7.784
  116SBC   C08P81384   8.564   1.100   7.665
  116SBC   C08O81385   8.700   1.147   7.643
  116SBC   H00P81386   8.721   1.244   7.685
  116SBC   C08N81387   8.794   1.078   7.568
  116SBC   C08M81388   8.925   1.138   7.544
  116SBC   O00881389   8.962   1.246   7.588
  116SBC   O00781390   9.017   1.056   7.484
  116SBC   C08H81391   8.989   0.932   7.430
  116SBC   C08G81392   9.086   0.860   7.358
  116SBC   C03V81393   9.222   0.890   7.333
  116SBC   H00981394   9.254   0.981   7.381
  116SBC   C03U81395   9.312   0.802   7.264
  116SBC   C03W81396   9.455   0.826   7.255
  116SBC   H00A81397   9.500   0.911   7.305
  116SBC   C03X81398   9.532   0.726   7.217
  116SBC   H00B81399   9.639   0.743   7.219
  116SBC   O00581400   9.479   0.614   7.150
  116SBC   C03O81401   9.345   0.595   7.152
  116SBC   C03N81402   9.291   0.486   7.083
  116SBC   O00081403   9.378   0.405   7.011
  116SBC   C01981404   9.327   0.301   6.941
  116SBC   C01881405   9.188   0.265   6.941
  116SBC   C01781406   9.104   0.342   7.028
  116SBC   C01681407   8.974   0.302   7.033
  116SBC   C01581408   8.939   0.190   6.958
  116SBC   C01481409   8.806   0.140   6.972
  116SBC   C01381410   8.711   0.214   7.043
  116SBC   C01281411   8.583   0.156   6.994
  116SBC   C01181412   8.622   0.042   6.918
  116SBC   C01081413   8.529  -0.033   6.847
  116SBC   C00Z81414   8.548  -0.113   6.735
  116SBC   C00Y81415   8.421  -0.114   6.681
  116SBC   C01O81416   8.323  -0.048   6.747
  116SBC   C01P81417   8.213   0.015   6.683
  116SBC   C02L81418   8.160   0.127   6.744
  116SBC   C02K81419   8.224   0.172   6.858
  116SBC   C01M81420   8.353   0.131   6.915
  116SBC   C02J81421   8.143   0.270   6.920
  116SBC   C02I81422   8.166   0.319   7.050
  116SBC   C02H81423   8.281   0.322   7.129
  116SBC   C01Q81424   8.413   0.281   7.109
  116SBC   C02G81425   8.498   0.347   7.199
  116SBC   C08981426   8.412   0.410   7.294
  116SBC   C08881427   8.476   0.517   7.358
  116SBC   C08781428   8.614   0.500   7.301
  116SBC   C08681429   8.718   0.592   7.317
  116SBC   C03S81430   8.853   0.587   7.262
  116SBC   N00681431   8.915   0.699   7.304
  116SBC   C08F81432   8.831   0.770   7.385
  116SBC   C01J81433   8.931   0.503   7.176
  116SBC   C03R81434   9.068   0.539   7.161
  116SBC   C03Q81435   9.128   0.654   7.220
  116SBC   C08E81436   8.707   0.711   7.398
  116SBC   C08D81437   8.601   0.777   7.470
  116SBC   C08K81438   8.632   0.901   7.533
  116SBC   C08C81439   8.466   0.738   7.482
  116SBC   C09181440   8.368   0.822   7.540
  116SBC   C09281441   8.395   0.945   7.604
  116SBC   C08B81442   8.406   0.625   7.425
  116SBC   C09081443   8.261   0.646   7.454
  116SBC   C09481444   8.154   0.570   7.388
  116SBC   C09581445   8.022   0.611   7.376
  116SBC   C09R81446   7.963   0.547   7.267
  116SBC   C09781447   8.050   0.459   7.210
  116SBC   C09681448   8.171   0.473   7.282
  116SBC   C01I81449   8.633   0.384   7.205
  116SBC   C08A81450   8.280   0.402   7.243
  116SBC   C09L81451   8.052   0.388   7.088
  116SBC   C09K81452   7.961   0.391   6.978
  116SBC   C09J81453   7.847   0.468   6.972
  116SBC   C09I81454   7.772   0.492   6.854
  116SBC   C09O81455   7.767   0.442   6.713
  116SBC   C09N81456   7.862   0.345   6.665
  116SBC   C09M81457   7.972   0.284   6.736
  116SBC   C06O81458   7.834   0.303   6.533
  116SBC   C05M81459   7.736   0.367   6.452
  116SBC   C06P81460   7.665   0.479   6.494
  116SBC   C04281461   7.711   0.319   6.327
  116SBC   C04181462   7.782   0.210   6.279
  116SBC   C04081463   7.754   0.158   6.150
  116SBC   C03Z81464   7.827   0.052   6.093
  116SBC   C03Y81465   7.924  -0.012   6.167
  116SBC   C02781466   8.004  -0.107   6.109
  116SBC   C02681467   8.110  -0.161   6.179
  116SBC   C02881468   8.197  -0.244   6.114
  116SBC   C02981469   8.174  -0.283   5.983
  116SBC   C02B81470   8.267  -0.360   5.913
  116SBC   C02C81471   8.253  -0.383   5.778
  116SBC   C02X81472   8.354  -0.442   5.711
  116SBC   C03E81473   8.340  -0.457   5.574
  116SBC   C03G81474   8.234  -0.419   5.502
  116SBC   C04Q81475   8.128  -0.359   5.570
  116SBC   C04R81476   8.015  -0.320   5.508
  116SBC   C04S81477   7.915  -0.250   5.577
  116SBC   C04L81478   7.933  -0.223   5.712
  116SBC   C04M81479   8.042  -0.273   5.778
  116SBC   C04K81480   7.847  -0.138   5.778
  116SBC   C04F81481   7.742  -0.083   5.705
  116SBC   C04E81482   7.717  -0.119   5.574
  116SBC   C04D81483   7.612  -0.059   5.501
  116SBC   C05081484   7.584  -0.102   5.375
  116SBC   C05181485   7.477  -0.045   5.305
  116SBC   C05Q81486   7.446  -0.089   5.178
  116SBC   C05V81487   7.328  -0.043   5.119
  116SBC   N00581488   7.302  -0.102   4.992
  116SBC   C07V81489   7.391  -0.197   4.933
  116SBC   C08281490   7.349  -0.256   4.815
  116SBC   C08181491   7.221  -0.236   4.756
  116SBC   C07C81492   7.137  -0.147   4.819
  116SBC   C07B81493   7.009  -0.119   4.763
  116SBC   C08081494   6.957  -0.189   4.653
  116SBC   C07Z81495   6.825  -0.169   4.611
  116SBC   H00L81496   6.784  -0.229   4.531
  116SBC   C07981497   6.747  -0.067   4.664
  116SBC   C07881498   6.808   0.016   4.759
  116SBC   C07781499   6.731   0.131   4.803
  116SBC   C07X81500   6.603   0.165   4.744
  116SBC   H00I81501   6.537   0.247   4.772
  116SBC   C07Y81502   6.550   0.075   4.658
  116SBC   H00H81503   6.445   0.084   4.633
  116SBC   C07681504   6.789   0.208   4.912
  116SBC   C06C81505   6.708   0.308   4.967
  116SBC   H00C81506   6.607   0.322   4.931
  116SBC   C06F81507   6.912   0.175   4.964
  116SBC   C06E81508   6.964   0.244   5.078
  116SBC   C06G81509   7.074   0.211   5.152
  116SBC   C06H81510   7.144   0.101   5.103
  116SBC   C06I81511   7.104   0.029   4.984
  116SBC   C06L81512   7.105   0.282   5.271
  116SBC   C06M81513   7.023   0.388   5.332
  116SBC   C06K81514   7.216   0.230   5.341
  116SBC   C05S81515   7.288   0.114   5.293
  116SBC   C05U81516   7.256   0.286   5.462
  116SBC   C05X81517   7.193   0.400   5.515
  116SBC   C05G81518   7.255   0.441   5.643
  116SBC   C05F81519   7.353   0.360   5.705
  116SBC   C05E81520   7.391   0.410   5.829
  116SBC   C04881521   7.482   0.349   5.917
  116SBC   C05681522   7.507   0.402   6.036
  116SBC   C04581523   7.594   0.337   6.118
  116SBC   C04781524   7.533   0.228   5.870
  116SBC   C04981525   7.492   0.178   5.742
  116SBC   C04B81526   7.563   0.075   5.684
  116SBC   C04681527   7.635   0.171   5.940
  116SBC   C04H81528   7.700   0.061   5.893
  116SBC   C05D81529   7.323   0.525   5.858
  116SBC   C04A81530   7.394   0.236   5.665
  116SBC   C05T81531   7.356   0.210   5.535
  116SBC   C05581532   7.424   0.099   5.486
  116SBC   C06D81533   6.882   0.343   5.133
  116SBC   C07W81534   6.985   0.066   4.917
  116SBC   C08581535   6.618  -0.035   4.619
  116SBC   H00M81536   6.565  -0.108   4.558
  116SBC   C08481537   7.047  -0.284   4.592
  116SBC   H00J81538   7.019  -0.336   4.501
  116SBC   C07A81539   6.937  -0.013   4.813
  116SBC   C08381540   7.176  -0.298   4.638
  116SBC   H00K81541   7.241  -0.367   4.586
  116SBC   O00K81542   7.441  -0.338   4.749
  116SBC   C0GO81543   7.565  -0.349   4.799
  116SBC   C0GN81544   7.662  -0.406   4.723
  116SBC   H01L81545   7.648  -0.455   4.628
  116SBC   C0GM81546   7.799  -0.407   4.759
  116SBC   C0GL81547   7.897  -0.437   4.673
  116SBC   H01M81548   7.871  -0.466   4.572
  116SBC   O00J81549   8.030  -0.428   4.711
  116SBC   C0GK81550   8.050  -0.420   4.848
  116SBC   H01N81551   8.151  -0.411   4.886
  116SBC   C05K81552   7.953  -0.391   4.937
  116SBC   C05J81553   7.976  -0.386   5.080
  116SBC   C04Y81554   8.096  -0.420   5.156
  116SBC   C04X81555   8.114  -0.397   5.293
  116SBC   O00681556   8.203  -0.476   5.097
  116SBC   C05381557   8.327  -0.490   5.154
  116SBC   C04O81558   8.345  -0.481   5.290
  116SBC   C03C81559   8.467  -0.505   5.370
  116SBC   C03B81560   8.603  -0.542   5.344
  116SBC   C05481561   8.656  -0.532   5.214
  116SBC   C0GR81562   8.794  -0.525   5.196
  116SBC   C03M81563   8.918  -0.532   5.285
  116SBC   C03I81564   8.920  -0.541   5.428
  116SBC   C03J81565   9.051  -0.546   5.489
  116SBC   N00281566   9.064  -0.538   5.631
  116SBC   C02U81567   9.193  -0.536   5.693
  116SBC   C02T81568   9.206  -0.513   5.833
  116SBC   C02Z81569   9.329  -0.486   5.887
  116SBC   N00181570   9.343  -0.455   6.025
  116SBC   C02R81571   9.472  -0.435   6.079
  116SBC   C03281572   9.587  -0.439   5.993
  116SBC   C03181573   9.569  -0.466   5.855
  116SBC   H00781574   9.647  -0.458   5.781
  116SBC   C03381575   9.711  -0.426   6.064
  116SBC   H00381576   9.805  -0.429   6.011
  116SBC   O00481577   9.731  -0.405   6.199
  116SBC   C03481578   9.616  -0.407   6.275
  116SBC   C03581579   9.631  -0.399   6.418
  116SBC   C03681580   9.516  -0.401   6.499
  116SBC   H00581581   9.535  -0.401   6.605
  116SBC   C03781582   9.391  -0.415   6.441
  116SBC   H00681583   9.312  -0.424   6.514
  116SBC   C00D81584   9.371  -0.420   6.299
  116SBC   C00C81585   9.248  -0.436   6.247
  116SBC   C00B81586   9.125  -0.413   6.319
  116SBC   C00A81587   9.082  -0.348   6.449
  116SBC   C00981588   8.939  -0.364   6.446
  116SBC   C00881589   8.844  -0.295   6.523
  116SBC   C00781590   8.885  -0.204   6.620
  116SBC   C00681591   8.792  -0.133   6.699
  116SBC   C00581592   8.843  -0.046   6.800
  116SBC   C00481593   8.977  -0.001   6.799
  116SBC   C00381594   9.062  -0.061   6.703
  116SBC   C00281595   9.192  -0.002   6.683
  116SBC   C01C81596   9.235   0.100   6.767
  116SBC   C01B81597   9.374   0.143   6.769
  116SBC   H00081598   9.447   0.090   6.711
  116SBC   C00181599   9.265  -0.040   6.565
  116SBC   C00081600   9.226  -0.161   6.497
  116SBC   C01U81601   9.288  -0.139   6.368
  116SBC   H00281602   9.270  -0.193   6.276
  116SBC   C01T81603   9.372  -0.013   6.371
  116SBC   O00281604   9.425   0.040   6.280
  116SBC   O00181605   9.349   0.041   6.495
  116SBC   C01S81606   9.017  -0.166   6.618
  116SBC   C00N81607   8.713  -0.304   6.478
  116SBC   C00M81608   8.679  -0.367   6.357
  116SBC   C00J81609   8.778  -0.428   6.280
  116SBC   C00I81610   8.762  -0.453   6.151
  116SBC   C00H81611   8.871  -0.488   6.071
  116SBC   C00G81612   9.000  -0.483   6.123
  116SBC   C00F81613   9.113  -0.493   6.049
  116SBC   C01X81614   8.854  -0.507   5.933
  116SBC   C01W81615   8.726  -0.506   5.880
  116SBC   C01V81616   8.617  -0.477   5.964
  116SBC   C02081617   8.493  -0.450   5.907
  116SBC   C01Z81618   8.716  -0.516   5.744
  116SBC   C02Y81619   8.591  -0.503   5.698
  116SBC   C03981620   8.578  -0.513   5.564
  116SBC   C02W81621   8.824  -0.531   5.658
  116SBC   C01Y81622   8.964  -0.518   5.855
  116SBC   C00U81623   8.631  -0.449   6.096
  116SBC   C00S81624   8.526  -0.398   6.173
  116SBC   C00T81625   8.404  -0.361   6.114
  116SBC   C00R81626   8.554  -0.358   6.305
  116SBC   C00Q81627   8.457  -0.285   6.372
  116SBC   C00V81628   8.333  -0.261   6.314
  116SBC   C02481629   8.242  -0.174   6.375
  116SBC   C00X81630   8.269  -0.128   6.505
  116SBC   C00P81631   8.488  -0.235   6.497
  116SBC   C00O81632   8.622  -0.234   6.548
  116SBC   C00K81633   8.900  -0.431   6.335
  116SBC   N00081634   9.107  -0.224   6.515
  116SBC   C00L81635   9.007  -0.452   6.259
  116SBC   H00481636   9.730  -0.389   6.459
  116SBC   C02Q81637   9.485  -0.425   6.221
  116SBC   C00E81638   9.231  -0.461   6.109
  116SBC   C03081639   9.442  -0.492   5.805
  116SBC   O00381640   9.431  -0.530   5.674
  116SBC   C02S81641   9.093  -0.510   5.910
  116SBC   C03881642   9.313  -0.545   5.614
  116SBC   C03L81643   9.297  -0.563   5.480
  116SBC   H00881644   9.385  -0.557   5.417
  116SBC   C02V81645   8.950  -0.533   5.717
  116SBC   C03K81646   9.169  -0.556   5.410
  116SBC   C0BK81647   9.158  -0.548   5.272
  116SBC   H00T81648   9.246  -0.553   5.209
  116SBC   C03H81649   8.814  -0.539   5.518
  116SBC   C0BL81650   9.036  -0.533   5.206
  116SBC   C0GU81651   9.033  -0.508   5.068
  116SBC   H01O81652   9.128  -0.503   5.018
  116SBC   C0GT81653   8.919  -0.505   4.986
  116SBC   H01P81654   8.924  -0.483   4.881
  116SBC   C0GS81655   8.801  -0.523   5.050
  116SBC   C0GV81656   8.675  -0.529   4.994
  116SBC   C0GW81657   8.640  -0.535   4.852
  116SBC   H01Q81658   8.706  -0.546   4.767
  116SBC   C0GX81659   8.508  -0.537   4.832
  116SBC   H01R81660   8.482  -0.553   4.729
  116SBC   O00L81661   8.409  -0.521   4.932
  116SBC   C0GQ81662   8.579  -0.522   5.092
  116SBC   C03A81663   8.683  -0.538   5.470
  116SBC   C05L81664   8.441  -0.503   5.062
  116SBC   C04W81665   7.873  -0.328   5.162
  116SBC   C05I81666   7.753  -0.288   5.108
  116SBC   C05O81667   7.725  -0.319   4.974
  116SBC   C05281668   7.656  -0.218   5.182
  116SBC   C04V81669   7.887  -0.302   5.300
  116SBC   C04U81670   7.793  -0.232   5.375
  116SBC   N00981671   7.826  -0.370   4.892
  116SBC   C0GP81672   7.598  -0.307   4.930
  116SBC   C05W81673   7.507  -0.226   4.995
  116SBC   C07D81674   7.178  -0.074   4.931
  116SBC   C06J81675   7.255   0.061   5.171
  116SBC   C05P81676   7.536  -0.174   5.118
  116SBC   C05R81677   7.390   0.051   5.359
  116SBC   C04Z81678   7.675  -0.189   5.310
  116SBC   C04C81679   7.533   0.038   5.555
  116SBC   C04G81680   7.670   0.021   5.762
  116SBC   C04J81681   7.871  -0.104   5.911
  116SBC   C04T81682   7.809  -0.201   5.512
  116SBC   N00381683   8.005  -0.339   5.366
  116SBC   C04P81684   8.227  -0.439   5.362
  116SBC   C03D81685   8.454  -0.492   5.503
  116SBC   C02181686   8.476  -0.472   5.776
  116SBC   C03F81687   8.139  -0.341   5.713
  116SBC   C02281688   8.387  -0.393   5.979
  116SBC   C02A81689   8.064  -0.239   5.913
  116SBC   C02381690   8.314  -0.287   6.179
  116SBC   C02581691   8.134  -0.118   6.308
  116SBC   C02D81692   8.055  -0.024   6.369
  116SBC   C02E81693   8.081   0.022   6.493
  116SBC   C02N81694   8.005   0.125   6.555
  116SBC   C04N81695   7.978  -0.153   5.981
  116SBC   C02P81696   7.952   0.033   6.299
  116SBC   C04I81697   7.800   0.001   5.967
  116SBC   C04481698   7.659   0.222   6.070
  116SBC   C04381699   7.878   0.144   6.356
  116SBC   C05N81700   7.906   0.191   6.481
  116SBC   C09U81701   7.677   0.518   6.629
  116SBC   C09V81702   7.609   0.632   6.668
  116SBC   C09X81703   7.614   0.676   6.797
  116SBC   C09Y81704   7.563   0.797   6.850
  116SBC   C0A181705   7.490   0.870   6.766
  116SBC   C0A281706   7.469   0.825   6.633
  116SBC   C0A481707   7.385   0.894   6.547
  116SBC   C07181708   7.364   0.850   6.416
  116SBC   C0A581709   7.272   0.910   6.333
  116SBC   C0A981710   7.211   1.028   6.381
  116SBC   C0A881711   7.234   1.073   6.508
  116SBC   C0AP81712   7.168   1.181   6.556
  116SBC   C0BY81713   7.198   1.227   6.681
  116SBC   C0BX81714   7.287   1.165   6.771
  116SBC   C0C281715   7.302   1.213   6.900
  116SBC   C0C381716   7.391   1.152   6.987
  116SBC   C0CT81717   7.456   1.040   6.943
  116SBC   C0C181718   7.233   1.327   6.939
  116SBC   C0C081719   7.116   1.370   6.857
  116SBC   C0A781720   7.347   1.053   6.722
  116SBC   C0BZ81721   7.111   1.324   6.727
  116SBC   C0BO81722   7.013   1.390   6.651
  116SBC   C0BN81723   6.983   1.344   6.525
  116SBC   C0BM81724   6.868   1.395   6.470
  116SBC   C0B981725   6.834   1.341   6.350
  116SBC   C0B881726   6.920   1.240   6.293
  116SBC   C0AD81727   7.030   1.192   6.362
  116SBC   C0AF81728   6.897   1.194   6.161
  116SBC   C0AG81729   6.786   1.239   6.089
  116SBC   C0B781730   6.700   1.335   6.154
  116SBC   C0AE81731   6.979   1.101   6.116
  116SBC   C0AB81732   7.078   1.037   6.185
  116SBC   C0AA81733   7.147   0.929   6.131
  116SBC   C0AJ81734   6.948   1.056   5.988
  116SBC   C0AK81735   7.024   0.954   5.932
  116SBC   C06W81736   6.969   0.926   5.809
  116SBC   C0AI81737   6.847   1.100   5.902
  116SBC   C0BP81738   6.930   1.462   6.734
  116SBC   C0BQ81739   6.811   1.522   6.671
  116SBC   C0BW81740   7.060   1.243   6.482
  116SBC   C0AC81741   7.117   1.093   6.305
  116SBC   C0A681742   7.322   1.008   6.597
  116SBC   C0A381743   7.429   0.984   6.813
  116SBC   C09Z81744   7.580   0.839   6.981
  116SBC   C09W81745   7.529   0.705   6.585
  116SBC   C07281746   7.511   0.661   6.454
  116SBC   C09H81747   7.678   0.596   6.883
  116SBC   C09G81748   7.702   0.639   7.017
  116SBC   C09P81749   7.799   0.557   7.071
  116SBC   C02O81750   8.017   0.320   6.869
  116SBC   C02M81751   8.045   0.184   6.679
  116SBC   C02F81752   8.188  -0.032   6.564
  116SBC   C00W81753   8.391  -0.163   6.557
  116SBC   C01R81754   8.662  -0.162   6.663
  116SBC   C01N81755   8.399   0.013   6.843
  116SBC   C01L81756   8.446   0.192   7.008
  116SBC   C01H81757   8.742   0.333   7.126
  116SBC   C01K81758   8.760   0.035   6.895
  116SBC   C01E81759   9.019   0.116   6.872
  116SBC   C01G81760   8.882   0.379   7.119
  116SBC   C01D81761   9.151   0.157   6.861
  116SBC   C01A81762   9.421   0.241   6.852
  116SBC   H00181763   9.525   0.270   6.846
  116SBC   C01F81764   9.153   0.458   7.090
  116SBC   C03P81765   9.260   0.686   7.212
  116SBC   C03T81766   9.043   0.743   7.291
  116SBC   C08I81767   8.861   0.884   7.444
  116SBC   C08J81768   8.765   0.953   7.517
  116SBC   C08L81769   8.531   0.978   7.601
  116SBC   C09381770   8.289   1.015   7.665
  116SBC   C08Z81771   8.238   0.771   7.526
  116SBC   C09T81772   7.841   1.051   7.543
  116SBC   C09S81773   7.956   0.719   7.435
  116SBC   C09Q81774   7.845   0.589   7.198
  116SBC   C09F81775   7.653   0.759   7.066
  116SBC   C09E81776   7.705   0.954   7.374
  116SBC   C0A081777   7.527   0.960   7.031
  116SBC   C0CU81778   7.426   1.211   7.111
  116SBC   C0CR81779   7.366   1.336   7.140
  116SBC   C0CZ81780   7.394   1.391   7.272
  116SBC   C0DA81781   7.719   1.067   7.456
  116SBC   C0D981782   7.553   1.286   7.689
  116SBC   H00V81783   7.563   1.207   7.763
  116SBC   C0CY81784   7.488   1.333   7.357
  116SBC   C0DF81785   7.477   1.412   7.700
  116SBC   C0DE81786   7.369   1.478   7.774
  116SBC   C0GI81787   7.353   1.491   7.918
  116SBC   H01K81788   7.426   1.456   7.990
  116SBC   C0GJ81789   7.243   1.565   7.955
  116SBC   H01J81790   7.226   1.573   8.061
  116SBC   O00I81791   7.153   1.619   7.866
  116SBC   C0GH81792   7.167   1.614   7.732
  116SBC   C0GG81793   7.059   1.677   7.655
  116SBC   O00G81794   6.954   1.728   7.726
  116SBC   C0G881795   6.845   1.786   7.657
  116SBC   C0G981796   6.755   1.857   7.741
  116SBC   H01G81797   6.764   1.850   7.848
  116SBC   C0GA81798   6.654   1.931   7.682
  116SBC   H01H81799   6.596   1.993   7.748
  116SBC   C0GB81800   6.623   1.925   7.547
  116SBC   C0EP81801   6.709   1.843   7.463
  116SBC   C0E881802   6.656   1.809   7.328
  116SBC   C0CK81803   6.701   1.757   7.209
  116SBC   C0CL81804   6.835   1.751   7.186
  116SBC   C0E981805   6.934   1.737   7.297
  116SBC   C0GE81806   6.940   1.733   7.446
  116SBC   C0E781807   6.546   1.889   7.279
  116SBC   C0CJ81808   6.512   1.864   7.144
  116SBC   C0E681809   6.407   1.938   7.090
  116SBC   H00Y81810   6.365   1.931   6.991
  116SBC   C0EO81811   6.332   2.024   7.175
  116SBC   H01181812   6.242   2.073   7.141
  116SBC   C0G681813   6.368   2.043   7.315
  116SBC   C0G581814   6.292   2.125   7.408
  116SBC   H01F81815   6.201   2.175   7.378
  116SBC   C0GD81816   6.337   2.143   7.535
  116SBC   H01I81817   6.272   2.194   7.604
  116SBC   O00H81818   6.449   2.081   7.584
  116SBC   C0EQ81819   6.481   1.982   7.365
  116SBC   C0GC81820   6.519   2.006   7.497
  116SBC   C0G781821   6.829   1.784   7.513
  116SBC   C0DD81822   7.281   1.544   7.686
  116SBC   C0GF81823   7.056   1.679   7.515
  116SBC   C0CO81824   7.045   1.698   7.231
  116SBC   C0D081825   7.311   1.499   7.312
  116SBC   C0C481826   7.264   1.396   7.056
  116SBC   C0CN81827   7.036   1.708   7.094
  116SBC   C0CP81828   6.995   1.455   6.862
  116SBC   C0CM81829   6.900   1.729   7.059
  116SBC   C0CI81830   6.612   1.767   7.092
  116SBC   C0CD81831   6.354   1.680   6.704
  116SBC   C0BR81832   6.715   1.590   6.752
  116SBC   C0CS81833   6.785   1.483   6.539
  116SBC   C0B681834   6.722   1.382   6.284
  116SBC   C0CG81835   6.442   1.595   6.498
  116SBC   C0CF81836   6.336   1.647   6.570
  116SBC   C0E581837   6.109   1.727   6.731
  116SBC   C0DT81838   5.877   1.780   6.614
  116SBC   C0DL81839   6.076   1.676   6.322
  116SBC   C0DM81840   6.053   1.644   6.189
  116SBC   C0DY81841   5.831   1.732   6.198
  116SBC   C0DU81842   5.763   1.810   6.547
  116SBC   C0F081843   5.523   1.831   6.570
  116SBC   C0F481844   5.278   1.784   6.472
  116SBC   C0FG81845   5.483   1.832   6.167
  116SBC   O00B81846   5.151   1.722   6.273
  116SBC   C0FN81847   5.439   1.795   6.045
  116SBC   C0DZ81848   5.703   1.754   6.135
  116SBC   O00C81849   5.763   1.645   5.803
  116SBC   C0FR81850   5.864   1.612   5.716
  116SBC   O00D81851   5.833   1.619   5.598
  116SBC   C0E081852   5.931   1.672   6.127
  116SBC   C0E381853   5.992   1.575   5.776
  116SBC   C0AW81854   6.098   1.520   5.703
  116SBC   C0AV81855   6.090   1.474   5.566
  116SBC   H00Q81856   6.009   1.506   5.503
  116SBC   C0AU81857   6.197   1.416   5.500
  116SBC   H00R81858   6.193   1.413   5.392
  116SBC   C0AT81859   6.302   1.369   5.578
  116SBC   C0AS81860   6.414   1.280   5.560
  116SBC   C0AR81861   6.419   1.199   5.441
  116SBC   C0BE81862   6.310   1.409   5.704
  116SBC   C0DN81863   6.153   1.592   6.116
  116SBC   C0AX81864   6.206   1.482   5.774
  116SBC   C0BB81865   6.373   1.489   6.096
  116SBC   C0BD81866   6.421   1.356   5.769
  116SBC   C0B281867   6.587   1.376   6.087
  116SBC   C0AH81868   6.753   1.196   5.954
  116SBC   C0BF81869   6.495   1.272   5.688
  116SBC   C0AL81870   6.859   1.012   5.787
  116SBC   C07U81871   6.602   1.030   5.527
  116SBC   C0AQ81872   6.506   1.085   5.434
  116SBC   C0BG81873   6.335   1.193   5.316
  116SBC   C0FY81874   6.273   0.905   5.113
  116SBC   C0BJ81875   6.190   1.179   5.310
  116SBC   H00S81876   6.118   1.215   5.381
  116SBC   C0FZ81877   6.136   0.889   5.109
  116SBC   C07S81878   6.347   0.787   5.144
  116SBC   C0G181879   6.081   0.537   5.048
  116SBC   C07K81880   6.358   0.299   5.126
  116SBC   C07H81881   6.485   0.545   5.208
  116SBC   C06B81882   6.757   0.363   5.086
  116SBC   C06N81883   6.899   0.407   5.259
  116SBC   C06681884   6.650   0.695   5.341
  116SBC   C06281885   6.880   0.774   5.546
  116SBC   C05Y81886   7.073   0.456   5.448
  116SBC   C06181887   7.011   0.788   5.604
  116SBC   C05H81888   7.245   0.547   5.739
  116SBC   C06V81889   7.036   0.826   5.741
  116SBC   C06Y81890   7.123   0.880   6.004
  116SBC   C05C81891   7.348   0.580   5.987
  116SBC   C06Z81892   7.244   0.863   6.206
  116SBC   C07081893   7.421   0.730   6.371
  116SBC   C05B81894   7.440   0.514   6.073
  116SBC   C05781895   7.618   0.386   6.244
  116SBC   C05981896   7.576   0.546   6.412
  117SBC   C05881897   1.447  10.986  11.755
  117SBC   C05A81898   1.547  10.942  11.663
  117SBC   C06Q81899   1.592  10.811  11.664
  117SBC   C06R81900   1.689  10.769  11.570
  117SBC   C06S81901   1.757  10.865  11.486
  117SBC   C06T81902   1.858  10.814  11.399
  117SBC   C06U81903   1.952  10.883  11.307
  117SBC   C06X81904   1.976  11.023  11.285
  117SBC   C06081905   2.082  11.049  11.195
  117SBC   C05Z81906   2.186  11.145  11.186
  117SBC   C06881907   2.309  11.065  11.149
  117SBC   C06781908   2.450  11.104  11.134
  117SBC   C06981909   2.496  11.240  11.157
  117SBC   C06A81910   2.629  11.291  11.145
  117SBC   C07381911   2.748  11.237  11.196
  117SBC   C07P81912   2.824  11.306  11.297
  117SBC   C07O81913   2.782  11.421  11.373
  117SBC   H00D81914   2.681  11.454  11.354
  117SBC   C07N81915   2.862  11.494  11.460
  117SBC   H00E81916   2.814  11.584  11.496
  117SBC   C07M81917   2.987  11.443  11.488
  117SBC   H00F81918   3.044  11.503  11.558
  117SBC   C07L81919   3.033  11.325  11.426
  117SBC   C07Q81920   3.158  11.253  11.444
  117SBC   H00G81921   3.230  11.304  11.507
  117SBC   O00F81922   3.200  11.129  11.393
  117SBC   C07J81923   3.123  11.083  11.294
  117SBC   C07I81924   2.997  11.148  11.264
  117SBC   N00481925   2.916  11.076  11.168
  117SBC   C07R81926   2.967  10.970  11.086
  117SBC   C07T81927   3.091  10.915  11.132
  117SBC   C0FX81928   3.143  10.798  11.074
  117SBC   C0FW81929   3.256  10.724  11.117
  117SBC   C0G081930   3.328  10.788  11.219
  117SBC   C0G281931   3.453  10.739  11.257
  117SBC   H01E81932   3.507  10.801  11.328
  117SBC   C0G381933   3.490  10.616  11.217
  117SBC   H01C81934   3.589  10.577  11.237
  117SBC   C0G481935   3.412  10.548  11.115
  117SBC   H01D81936   3.449  10.455  11.077
  117SBC   O00E81937   3.292  10.916  11.264
  117SBC   C0FV81938   3.295  10.602  11.064
  117SBC   C0FU81939   3.214  10.547  10.955
  117SBC   H01B81940   3.244  10.450  10.919
  117SBC   C0FT81941   3.107  10.623  10.905
  117SBC   C0FS81942   2.983  10.588  10.841
  117SBC   C0BI81943   2.909  10.709  10.822
  117SBC   C0BH81944   2.772  10.680  10.792
  117SBC   C07F81945   2.677  10.724  10.881
  117SBC   C07E81946   2.656  10.852  10.940
  117SBC   C07G81947   2.752  10.941  10.971
  117SBC   C07481948   2.698  11.029  11.063
  117SBC   C06581949   2.544  10.885  11.011
  117SBC   C06481950   2.456  10.787  11.045
  117SBC   C06381951   2.342  10.796  11.127
  117SBC   C07581952   2.311  10.658  11.162
  117SBC   C0AM81953   2.405  10.564  11.089
  117SBC   C0AN81954   2.412  10.413  11.102
  117SBC   C0AO81955   2.340  10.324  11.198
  117SBC   C0B181956   2.386  10.190  11.222
  117SBC   C0B081957   2.476  10.131  11.139
  117SBC   C0AZ81958   2.532  10.009  11.158
  117SBC   C0AY81959   2.620   9.960  11.059
  117SBC   N00781960   2.685   9.839  11.082
  117SBC   C0E281961   2.773   9.785  10.983
  117SBC   C0E181962   2.838   9.672  11.014
  117SBC   C0E481963   2.927   9.619  10.914
  117SBC   C0FF81964   3.016   9.510  10.942
  117SBC   C0FJ81965   3.108   9.423  10.865
  117SBC   C0FK81966   3.105   9.392  10.721
  117SBC   H01681967   3.054   9.445  10.641
  117SBC   C0FL81968   3.176   9.265  10.712
  117SBC   H01781969   3.196   9.201  10.628
  117SBC   C0FM81970   3.221   9.224  10.845
  117SBC   C0FH81971   3.267   9.123  10.947
  117SBC   C0FI81972   3.253   9.192  11.070
  117SBC   C0F381973   3.224   9.124  11.191
  117SBC   C0F281974   3.154   9.195  11.280
  117SBC   C0DW81975   3.094   9.321  11.263
  117SBC   C0FE81976   3.104   9.377  11.140
  117SBC   C0DV81977   2.997   9.369  11.345
  117SBC   C0DX81978   2.912   9.464  11.306
  117SBC   C0DK81979   2.804   9.504  11.387
  117SBC   C0DJ81980   2.783   9.435  11.506
  117SBC   C0DI81981   2.674   9.470  11.591
  117SBC   C0DH81982   2.598   9.580  11.558
  117SBC   C0DG81983   2.617   9.639  11.436
  117SBC   C0BV81984   2.529   9.740  11.402
  117SBC   C0BC81985   2.561   9.813  11.290
  117SBC   C0BA81986   2.433   9.788  11.493
  117SBC   C0B481987   2.358   9.902  11.457
  117SBC   C0B381988   2.398   9.981  11.350
  117SBC   C0B581989   2.257   9.946  11.538
  117SBC   C0BU81990   2.217   9.863  11.646
  117SBC   C0BT81991   2.291   9.749  11.684
  117SBC   C0BS81992   2.259   9.672  11.793
  117SBC   C0CC81993   2.348   9.573  11.835
  117SBC   C0CB81994   2.328   9.497  11.957
  117SBC   C0CH81995   2.444   9.428  12.001
  117SBC   C0DO81996   2.539   9.380  11.915
  117SBC   C0DP81997   2.631   9.286  11.954
  117SBC   C0EA81998   2.632   9.231  12.090
  117SBC   H01281999   2.549   9.255  12.154
  117SBC   O00982000   2.724   9.140  12.134
  117SBC   C0EH82001   2.789   9.074  12.036
  117SBC   C0EG82002   2.837   8.948  12.059
  117SBC   C0EJ82003   2.829   8.862  12.174
  117SBC   H01082004   2.793   8.876  12.275
  117SBC   C0EK82005   2.899   8.738  12.138
  117SBC   H00Z82006   2.921   8.657  12.206
  117SBC   C0EL82007   2.933   8.750  11.999
  117SBC   C0EM82008   3.002   8.668  11.901
  117SBC   C0EW82009   3.046   8.533  11.919
  117SBC   H01382010   3.029   8.488  12.016
  117SBC   C0EX82011   3.117   8.457  11.815
  117SBC   H01482012   3.169   8.366  11.842
  117SBC   C0F182013   3.145   8.527  11.690
  117SBC   C0EU82014   3.106   8.659  11.678
  117SBC   C0ET82015   3.124   8.744  11.562
  117SBC   C0ES82016   3.059   8.855  11.607
  117SBC   C0EE82017   3.006   8.855  11.733
  117SBC   C0ED82018   2.939   8.935  11.834
  117SBC   C0EC82019   2.887   9.063  11.808
  117SBC   C0EB82020   2.909   9.129  11.684
  117SBC   C0EN82021   2.997   9.090  11.580
  117SBC   C0ER82022   3.041   9.186  11.491
  117SBC   C0DS82023   2.835   9.250  11.655
  117SBC   C0DR82024   2.739   9.297  11.744
  117SBC   C0EY82025   3.078   8.979  11.544
  117SBC   C0EZ82026   3.159   9.001  11.432
  117SBC   C0F582027   3.208   8.912  11.322
  117SBC   C0F682028   3.228   8.776  11.336
  117SBC   N00882029   3.284   8.714  11.217
  117SBC   C0F782030   3.292   8.780  11.089
  117SBC   C0FQ82031   3.342   8.698  10.989
  117SBC   H01882032   3.329   8.737  10.889
  117SBC   C0FP82033   3.375   8.562  10.999
  117SBC   H01982034   3.405   8.501  10.914
  117SBC   C0FO82035   3.371   8.500  11.122
  117SBC   H01A82036   3.396   8.395  11.132
  117SBC   C0F882037   3.260   8.910  11.079
  117SBC   C0F982038   3.324   8.577  11.233
  117SBC   C0FA82039   3.315   8.506  11.357
  117SBC   H01582040   3.332   8.399  11.357
  117SBC   C0FB82041   3.247   8.567  11.469
  117SBC   C0FD82042   3.198   8.695  11.449
  117SBC   C0FC82043   3.228   8.484  11.586
  117SBC   O00A82044   3.271   8.372  11.592
  117SBC   C0EV82045   3.029   8.720  11.774
  117SBC   C0EF82046   2.906   8.881  11.961
  117SBC   C0EI82047   2.806   9.131  11.905
  117SBC   C0DQ82048   2.728   9.242  11.870
  117SBC   C0CE82049   2.549   9.439  11.790
  117SBC   H00U82050   2.446   9.405  12.106
  117SBC   C0CA82051   2.209   9.513  12.033
  117SBC   C0C982052   2.110   9.613  11.990
  117SBC   C0C882053   1.984   9.610  12.059
  117SBC   C0C782054   1.877   9.709  12.075
  117SBC   C0C682055   1.778   9.680  12.171
  117SBC   C0C582056   1.688   9.758  12.261
  117SBC   C0CQ82057   1.650   9.691  12.381
  117SBC   C0D182058   1.719   9.576  12.421
  117SBC   C0D882059   1.734   9.573  12.554
  117SBC   C0D782060   1.641   9.667  12.611
  117SBC   C0D682061   1.645   9.715  12.741
  117SBC   C0D582062   1.572   9.833  12.782
  117SBC   C0D482063   1.470   9.910  12.722
  117SBC   C0D382064   1.456  10.025  12.801
  117SBC   C0CX82065   1.406  10.129  12.712
  117SBC   C0CW82066   1.437  10.082  12.577
  117SBC   C0CV82067   1.412  10.127  12.442
  117SBC   C0D282068   1.329  10.234  12.414
  117SBC   C09D82069   1.221  10.282  12.494
  117SBC   C09C82070   1.136  10.390  12.448
  117SBC   C09B82071   1.036  10.455  12.526
  117SBC   C09A82072   1.019  10.405  12.659
  117SBC   C09982073   1.086  10.290  12.703
  117SBC   C09882074   1.099  10.289  12.841
  117SBC   C08Y82075   1.037  10.410  12.891
  117SBC   C08X82076   1.053  10.476  13.021
  117SBC   C08W82077   1.131  10.411  13.127
  117SBC   C08U82078   1.211  10.284  13.120
  117SBC   C08V82079   1.252  10.196  13.015
  117SBC   C0DC82080   1.324  10.089  13.073
  117SBC   H00W82081   1.344   9.999  13.017
  117SBC   C0DB82082   1.349  10.117  13.207
  117SBC   H00X82083   1.414  10.068  13.278
  117SBC   C08T82084   1.272  10.235  13.235
  117SBC   C08S82085   1.257  10.293  13.360
  117SBC   H00N82086   1.304  10.248  13.446
  117SBC   C08R82087   1.196  10.408  13.377
  117SBC   C08Q82088   1.191  10.478  13.499
  117SBC   H00O82089   1.232  10.437  13.590
  117SBC   C08P82090   1.127  10.605  13.522
  117SBC   C08O82091   1.128  10.675  13.650
  117SBC   H00P82092   1.177  10.627  13.733
  117SBC   C08N82093   1.073  10.810  13.660
  117SBC   C08M82094   1.072  10.878  13.788
  117SBC   O00882095   1.116  10.820  13.890
  117SBC   O00782096   1.014  11.001  13.791
  117SBC   C08H82097   0.967  11.063  13.678
  117SBC   C08G82098   0.911  11.195  13.688
  117SBC   C03V82099   0.887  11.278  13.803
  117SBC   H00982100   0.917  11.234  13.898
  117SBC   C03U82101   0.822  11.403  13.799
  117SBC   C03W82102   0.777  11.476  13.917
  117SBC   H00A82103   0.787  11.438  14.018
  117SBC   C03X82104   0.721  11.599  13.897
  117SBC   H00B82105   0.683  11.654  13.982
  117SBC   O00582106   0.705  11.660  13.773
  117SBC   C03O82107   0.728  11.581  13.660
  117SBC   C03N82108   0.708  11.629  13.531
  117SBC   O00082109   0.664  11.755  13.528
  117SBC   C01982110   0.635  11.815  13.407
  117SBC   C01882111   0.657  11.744  13.286
  117SBC   C01782112   0.703  11.612  13.294
  117SBC   C01682113   0.725  11.541  13.171
  117SBC   C01582114   0.707  11.615  13.055
  117SBC   C01482115   0.728  11.549  12.930
  117SBC   C01382116   0.769  11.415  12.925
  117SBC   C01282117   0.766  11.388  12.778
  117SBC   C01182118   0.720  11.505  12.715
  117SBC   C01082119   0.698  11.516  12.582
  117SBC   C00Z82120   0.681  11.630  12.510
  117SBC   C00Y82121   0.699  11.587  12.372
  117SBC   C01O82122   0.727  11.451  12.366
  117SBC   C01P82123   0.815  11.396  12.271
  117SBC   C02L82124   0.869  11.273  12.303
  117SBC   C02K82125   0.848  11.223  12.430
  117SBC   C01M82126   0.796  11.296  12.544
  117SBC   C02J82127   0.877  11.088  12.437
  117SBC   C02I82128   0.872  11.007  12.550
  117SBC   C02H82129   0.865  11.042  12.682
  117SBC   C01Q82130   0.839  11.163  12.749
  117SBC   C02G82131   0.828  11.133  12.890
  117SBC   C08982132   0.860  11.002  12.902
  117SBC   C08882133   0.855  10.955  13.033
  117SBC   C08782134   0.835  11.076  13.105
  117SBC   C08682135   0.831  11.090  13.248
  117SBC   C03S82136   0.826  11.212  13.324
  117SBC   N00682137   0.858  11.174  13.454
  117SBC   C08F82138   0.904  11.050  13.458
  117SBC   C01J82139   0.787  11.345  13.306
  117SBC   C03R82140   0.771  11.423  13.421
  117SBC   C03Q82141   0.796  11.374  13.553
  117SBC   C08E82142   0.894  10.990  13.334
  117SBC   C08D82143   0.940  10.854  13.314
  117SBC   C08K82144   1.007  10.793  13.420
  117SBC   C08C82145   0.936  10.781  13.195
  117SBC   C09182146   0.992  10.647  13.188
  117SBC   C09282147   1.062  10.583  13.292
  117SBC   C08B82148   0.880  10.815  13.070
  117SBC   C09082149   0.913  10.700  12.984
  117SBC   C09482150   0.897  10.697  12.840
  117SBC   C09582151   0.931  10.595  12.750
  117SBC   C09R82152   0.923  10.642  12.616
  117SBC   C09782153   0.890  10.775  12.615
  117SBC   C09682154   0.883  10.809  12.750
  117SBC   C01I82155   0.813  11.195  13.022
  117SBC   C08A82156   0.870  10.943  12.780
  117SBC   C09L82157   0.899  10.876  12.512
  117SBC   C09K82158   0.927  10.876  12.376
  117SBC   C09J82159   0.979  10.763  12.307
  117SBC   C09I82160   1.074  10.777  12.197
  117SBC   C09O82161   1.123  10.889  12.106
  117SBC   C09N82162   1.082  11.024  12.113
  117SBC   C09M82163   0.988  11.079  12.212
  117SBC   C06O82164   1.140  11.112  12.018
  117SBC   C05M82165   1.248  11.077  11.936
  117SBC   C06P82166   1.286  10.939  11.930
  117SBC   C04282167   1.307  11.163  11.847
  117SBC   C04182168   1.264  11.297  11.840
  117SBC   C04082169   1.330  11.395  11.760
  117SBC   C03Z82170   1.289  11.526  11.752
  117SBC   C03Y82171   1.187  11.565  11.839
  117SBC   C02782172   1.149  11.700  11.832
  117SBC   C02682173   1.042  11.742  11.914
  117SBC   C02882174   1.009  11.881  11.920
  117SBC   C02982175   1.085  11.972  11.845
  117SBC   C02B82176   1.058  12.109  11.857
  117SBC   C02C82177   1.138  12.200  11.790
  117SBC   C02X82178   1.106  12.332  11.793
  117SBC   C03E82179   1.184  12.416  11.732
  117SBC   C03G82180   1.305  12.388  11.673
  117SBC   C04Q82181   1.334  12.254  11.664
  117SBC   C04R82182   1.451  12.211  11.608
  117SBC   C04S82183   1.479  12.077  11.596
  117SBC   C04L82184   1.393  11.981  11.641
  117SBC   C04M82185   1.275  12.024  11.707
  117SBC   C04K82186   1.414  11.850  11.627
  117SBC   C04F82187   1.528  11.805  11.557
  117SBC   C04E82188   1.624  11.897  11.505
  117SBC   C04D82189   1.741  11.851  11.445
  117SBC   C05082190   1.838  11.945  11.406
  117SBC   C05182191   1.959  11.895  11.350
  117SBC   C05Q82192   2.058  11.987  11.318
  117SBC   C05V82193   2.175  11.941  11.261
  117SBC   N00582194   2.276  12.038  11.237
  117SBC   C07V82195   2.254  12.172  11.272
  117SBC   C08282196   2.360  12.264  11.248
  117SBC   C08182197   2.487  12.219  11.199
  117SBC   C07C82198   2.501  12.089  11.160
  117SBC   C07B82199   2.628  12.044  11.115
  117SBC   C08082200   2.734  12.137  11.090
  117SBC   C07Z82201   2.846  12.094  11.018
  117SBC   H00L82202   2.927  12.160  10.992
  117SBC   C07982203   2.862  11.961  10.977
  117SBC   C07882204   2.760  11.868  11.009
  117SBC   C07782205   2.777  11.733  10.984
  117SBC   C07X82206   2.882  11.685  10.903
  117SBC   H00I82207   2.875  11.585  10.863
  117SBC   C07Y82208   2.982  11.772  10.856
  117SBC   H00H82209   3.063  11.737  10.793
  117SBC   C07682210   2.686  11.643  11.036
  117SBC   C06C82211   2.723  11.507  11.051
  117SBC   H00C82212   2.825  11.474  11.037
  117SBC   C06F82213   2.567  11.687  11.088
  117SBC   C06E82214   2.472  11.599  11.136
  117SBC   C06G82215   2.343  11.627  11.173
  117SBC   C06H82216   2.319  11.764  11.180
  117SBC   C06I82217   2.418  11.860  11.153
  117SBC   C06L82218   2.244  11.529  11.198
  117SBC   C06M82219   2.271  11.386  11.191
  117SBC   C06K82220   2.120  11.579  11.252
  117SBC   C05S82221   2.102  11.715  11.268
  117SBC   C05U82222   2.023  11.481  11.290
  117SBC   C05X82223   2.039  11.341  11.261
  117SBC   C05G82224   1.927  11.261  11.313
  117SBC   C05F82225   1.821  11.324  11.376
  117SBC   C05E82226   1.726  11.231  11.427
  117SBC   C04882227   1.621  11.268  11.509
  117SBC   C05682228   1.570  11.169  11.586
  117SBC   C04582229   1.470  11.215  11.675
  117SBC   C04782230   1.605  11.402  11.522
  117SBC   C04982231   1.691  11.495  11.459
  117SBC   C04B82232   1.674  11.629  11.483
  117SBC   C04682233   1.504  11.443  11.600
  117SBC   C04H82234   1.474  11.578  11.609
  117SBC   C05D82235   1.781  11.103  11.419
  117SBC   C04A82236   1.801  11.457  11.390
  117SBC   C05T82237   1.904  11.534  11.348
  117SBC   C05582238   1.888  11.667  11.374
  117SBC   C06D82239   2.502  11.463  11.130
  117SBC   C07W82240   2.543  11.820  11.100
  117SBC   C08582241   2.972  11.906  10.902
  117SBC   H00M82242   3.044  11.978  10.864
  117SBC   C08482243   2.714  12.270  11.126
  117SBC   H00J82244   2.787  12.347  11.105
  117SBC   C07A82245   2.643  11.910  11.073
  117SBC   C08382246   2.599  12.311  11.180
  117SBC   H00K82247   2.579  12.416  11.199
  117SBC   O00K82248   2.339  12.398  11.267
  117SBC   C0GO82249   2.232  12.437  11.342
  117SBC   C0GN82250   2.213  12.574  11.366
  117SBC   H01L82251   2.295  12.644  11.359
  117SBC   C0GM82252   2.090  12.626  11.420
  117SBC   C0GL82253   2.084  12.753  11.459
  117SBC   H01M82254   2.172  12.815  11.453
  117SBC   O00J82255   1.967  12.802  11.503
  117SBC   C0GK82256   1.862  12.721  11.520
  117SBC   H01N82257   1.775  12.773  11.559
  117SBC   C05K82258   1.867  12.586  11.489
  117SBC   C05J82259   1.757  12.495  11.514
  117SBC   C04Y82260   1.629  12.532  11.558
  117SBC   C04X82261   1.525  12.444  11.584
  117SBC   O00682262   1.590  12.661  11.543
  117SBC   C05382263   1.478  12.711  11.606
  117SBC   C04O82264   1.373  12.628  11.642
  117SBC   C03C82265   1.244  12.659  11.704
  117SBC   C03B82266   1.185  12.779  11.767
  117SBC   C05482267   1.257  12.895  11.779
  117SBC   C0GR82268   1.197  13.010  11.838
  117SBC   C03M82269   1.087  13.041  11.933
  117SBC   C03I82270   1.006  12.939  11.996
  117SBC   C03J82271   0.928  12.977  12.110
  117SBC   N00282272   0.866  12.874  12.189
  117SBC   C02U82273   0.816  12.909  12.316
  117SBC   C02T82274   0.758  12.816  12.395
  117SBC   C02Z82275   0.730  12.847  12.525
  117SBC   N00182276   0.694  12.748  12.623
  117SBC   C02R82277   0.693  12.786  12.761
  117SBC   C03282278   0.695  12.920  12.802
  117SBC   C03182279   0.706  13.020  12.699
  117SBC   H00782280   0.711  13.122  12.735
  117SBC   C03382281   0.696  12.943  12.938
  117SBC   H00382282   0.697  13.043  12.979
  117SBC   O00482283   0.697  12.840  13.035
  117SBC   C03482284   0.704  12.713  12.984
  117SBC   C03582285   0.720  12.610  13.080
  117SBC   C03682286   0.738  12.474  13.035
  117SBC   H00582287   0.760  12.401  13.111
  117SBC   C03782288   0.719  12.442  12.895
  117SBC   H00682289   0.742  12.342  12.861
  117SBC   C00D82290   0.688  12.547  12.809
  117SBC   C00C82291   0.653  12.516  12.673
  117SBC   C00B82292   0.606  12.386  12.624
  117SBC   C00A82293   0.598  12.243  12.676
  117SBC   C00982294   0.587  12.164  12.557
  117SBC   C00882295   0.608  12.029  12.549
  117SBC   C00782296   0.611  11.957  12.669
  117SBC   C00682297   0.649  11.822  12.669
  117SBC   C00582298   0.660  11.755  12.795
  117SBC   C00482299   0.639  11.812  12.918
  117SBC   C00382300   0.597  11.949  12.917
  117SBC   C00282301   0.568  12.014  13.040
  117SBC   C01C82302   0.587  11.948  13.159
  117SBC   C01B82303   0.559  12.004  13.282
  117SBC   H00082304   0.528  12.107  13.292
  117SBC   C00182305   0.517  12.142  13.035
  117SBC   C00082306   0.530  12.216  12.913
  117SBC   C01U82307   0.461  12.336  12.942
  117SBC   H00282308   0.434  12.424  12.886
  117SBC   C01T82309   0.437  12.344  13.094
  117SBC   O00282310   0.394  12.435  13.161
  117SBC   O00182311   0.473  12.228  13.143
  117SBC   C01S82312   0.584  12.021  12.793
  117SBC   C00N82313   0.652  11.984  12.429
  117SBC   C00M82314   0.680  12.067  12.320
  117SBC   C00J82315   0.652  12.200  12.327
  117SBC   C00I82316   0.692  12.293  12.233
  117SBC   C00H82317   0.707  12.426  12.268
  117SBC   C00G82318   0.672  12.468  12.393
  117SBC   C00F82319   0.689  12.592  12.440
  117SBC   C01X82320   0.765  12.524  12.184
  117SBC   C01W82321   0.835  12.480  12.077
  117SBC   C01V82322   0.842  12.344  12.045
  117SBC   C02082323   0.936  12.293  11.958
  117SBC   C01Z82324   0.902  12.570  11.998
  117SBC   C02Y82325   0.982  12.515  11.901
  117SBC   C03982326   1.060  12.604  11.827
  117SBC   C02W82327   0.913  12.705  12.029
  117SBC   C01Y82328   0.782  12.655  12.227
  117SBC   C00U82329   0.771  12.254  12.128
  117SBC   C00S82330   0.795  12.118  12.119
  117SBC   C00T82331   0.888  12.068  12.025
  117SBC   C00R82332   0.740  12.026  12.205
  117SBC   C00Q82333   0.761  11.889  12.187
  117SBC   C00V82334   0.845  11.842  12.088
  117SBC   C02482335   0.874  11.705  12.082
  117SBC   C00X82336   0.820  11.616  12.175
  117SBC   C00P82337   0.720  11.803  12.292
  117SBC   C00O82338   0.676  11.851  12.420
  117SBC   C00K82339   0.603  12.244  12.448
  117SBC   N00082340   0.575  12.166  12.795
  117SBC   C00L82341   0.621  12.373  12.485
  117SBC   H00482342   0.717  12.629  13.186
  117SBC   C02Q82343   0.690  12.680  12.851
  117SBC   C00E82344   0.669  12.617  12.576
  117SBC   C03082345   0.733  12.982  12.568
  117SBC   O00382346   0.771  13.077  12.479
  117SBC   C02S82347   0.729  12.690  12.347
  117SBC   C03882348   0.824  13.042  12.357
  117SBC   C03L82349   0.869  13.143  12.273
  117SBC   H00882350   0.870  13.246  12.306
  117SBC   C02V82351   0.858  12.742  12.153
  117SBC   C03K82352   0.924  13.104  12.148
  117SBC   C0BK82353   0.986  13.200  12.072
  117SBC   H00T82354   0.979  13.305  12.100
  117SBC   C03H82355   0.994  12.799  11.963
  117SBC   C0BL82356   1.072  13.175  11.964
  117SBC   C0GU82357   1.136  13.277  11.891
  117SBC   H01O82358   1.109  13.379  11.914
  117SBC   C0GT82359   1.239  13.248  11.799
  117SBC   H01P82360   1.279  13.338  11.755
  117SBC   C0GS82361   1.272  13.114  11.777
  117SBC   C0GV82362   1.376  13.059  11.700
  117SBC   C0GW82363   1.475  13.134  11.638
  117SBC   H01Q82364   1.478  13.242  11.640
  117SBC   C0GX82365   1.576  13.068  11.584
  117SBC   H01R82366   1.657  13.118  11.534
  117SBC   O00L82367   1.587  12.925  11.582
  117SBC   C0GQ82368   1.376  12.921  11.706
  117SBC   C03A82369   1.076  12.740  11.855
  117SBC   C05L82370   1.473  12.852  11.629
  117SBC   C04W82371   1.780  12.357  11.491
  117SBC   C05I82372   1.897  12.312  11.435
  117SBC   C05O82373   2.005  12.399  11.416
  117SBC   C05282374   1.914  12.173  11.409
  117SBC   C04V82375   1.675  12.264  11.513
  117SBC   C04U82376   1.695  12.123  11.489
  117SBC   N00982377   1.987  12.530  11.450
  117SBC   C0GP82378   2.121  12.350  11.359
  117SBC   C05W82379   2.131  12.217  11.323
  117SBC   C07D82380   2.399  11.996  11.182
  117SBC   C06J82381   2.197  11.807  11.230
  117SBC   C05P82382   2.036  12.125  11.353
  117SBC   C05R82383   1.983  11.761  11.324
  117SBC   C04Z82384   1.813  12.078  11.431
  117SBC   C04C82385   1.768  11.718  11.439
  117SBC   C04G82386   1.560  11.671  11.548
  117SBC   C04J82387   1.329  11.754  11.687
  117SBC   C04T82388   1.602  12.033  11.536
  117SBC   N00382389   1.549  12.306  11.568
  117SBC   C04P82390   1.399  12.487  11.631
  117SBC   C03D82391   1.163  12.554  11.745
  117SBC   C02182392   1.009  12.378  11.883
  117SBC   C03F82393   1.249  12.159  11.720
  117SBC   C02282394   0.958  12.157  11.942
  117SBC   C02A82395   1.190  11.930  11.766
  117SBC   C02382396   0.913  11.931  12.007
  117SBC   C02582397   0.974  11.651  11.997
  117SBC   C02D82398   1.009  11.517  11.997
  117SBC   C02E82399   0.953  11.430  12.090
  117SBC   C02N82400   0.996  11.296  12.106
  117SBC   C04N82401   1.223  11.794  11.760
  117SBC   C02P82402   1.120  11.472  11.922
  117SBC   C04I82403   1.364  11.623  11.681
  117SBC   C04482404   1.440  11.352  11.681
  117SBC   C04382405   1.162  11.337  11.926
  117SBC   C05N82406   1.096  11.246  12.017
  117SBC   C09U82407   1.227  10.847  12.022
  117SBC   C09V82408   1.287  10.721  12.027
  117SBC   C09X82409   1.249  10.624  12.121
  117SBC   C09Y82410   1.313  10.501  12.139
  117SBC   C0A182411   1.414  10.465  12.060
  117SBC   C0A282412   1.448  10.555  11.957
  117SBC   C0A482413   1.542  10.506  11.865
  117SBC   C07182414   1.580  10.593  11.759
  117SBC   C0A582415   1.678  10.548  11.665
  117SBC   C0A982416   1.735  10.423  11.685
  117SBC   C0A882417   1.698  10.344  11.795
  117SBC   C0AP82418   1.765  10.226  11.820
  117SBC   C0BY82419   1.738  10.158  11.936
  117SBC   C0BX82420   1.637  10.185  12.017
  117SBC   C0C282421   1.612  10.104  12.131
  117SBC   C0C382422   1.519  10.147  12.226
  117SBC   C0CT82423   1.452  10.265  12.195
  117SBC   C0C182424   1.684   9.980  12.153
  117SBC   C0C082425   1.790   9.946  12.061
  117SBC   C0A782426   1.570  10.301  11.995
  117SBC   C0BZ82427   1.818  10.043  11.965
  117SBC   C0BO82428   1.918  10.000  11.879
  117SBC   C0BN82429   1.943  10.069  11.761
  117SBC   C0BM82430   2.052  10.025  11.694
  117SBC   C0B982431   2.087  10.107  11.587
  117SBC   C0B882432   2.017  10.224  11.554
  117SBC   C0AD82433   1.910  10.265  11.630
  117SBC   C0AF82434   2.060  10.304  11.453
  117SBC   C0AG82435   2.173  10.266  11.375
  117SBC   C0B782436   2.236  10.150  11.408
  117SBC   C0AE82437   1.984  10.416  11.428
  117SBC   C0AB82438   1.877  10.459  11.495
  117SBC   C0AA82439   1.825  10.587  11.486
  117SBC   C0AJ82440   2.042  10.507  11.336
  117SBC   C0AK82441   1.993  10.633  11.319
  117SBC   C06W82442   2.081  10.701  11.240
  117SBC   C0AI82443   2.158  10.482  11.261
  117SBC   C0BP82444   1.972   9.873  11.920
  117SBC   C0BQ82445   2.077   9.821  11.840
  117SBC   C0BW82446   1.869  10.187  11.733
  117SBC   C0AC82447   1.844  10.380  11.600
  117SBC   C0A682448   1.603  10.384  11.885
  117SBC   C0A382449   1.475  10.344  12.084
  117SBC   C09Z82450   1.278  10.418  12.248
  117SBC   C09W82451   1.385  10.679  11.939
  117SBC   C07282452   1.436  10.766  11.845
  117SBC   C09H82453   1.132  10.651  12.196
  117SBC   C09G82454   1.092  10.561  12.290
  117SBC   C09P82455   1.003  10.632  12.368
  117SBC   C02O82456   0.933  11.013  12.328
  117SBC   C02M82457   0.948  11.216  12.206
  117SBC   C02F82458   0.857  11.481  12.174
  117SBC   C00W82459   0.742  11.669  12.273
  117SBC   C01R82460   0.669  11.769  12.538
  117SBC   C01N82461   0.735  11.410  12.495
  117SBC   C01L82462   0.798  11.278  12.688
  117SBC   C01H82463   0.789  11.335  13.043
  117SBC   C01K82464   0.696  11.612  12.808
  117SBC   C01E82465   0.665  11.748  13.046
  117SBC   C01G82466   0.765  11.402  13.175
  117SBC   C01D82467   0.637  11.816  13.168
  117SBC   C01A82468   0.592  11.948  13.407
  117SBC   H00182469   0.569  11.998  13.500
  117SBC   C01F82470   0.727  11.553  13.414
  117SBC   C03P82471   0.785  11.453  13.672
  117SBC   C03T82472   0.857  11.248  13.566
  117SBC   C08I82473   0.960  10.990  13.561
  117SBC   C08J82474   1.013  10.867  13.545
  117SBC   C08L82475   1.062  10.659  13.413
  117SBC   C09382476   1.133  10.467  13.263
  117SBC   C08Z82477   0.991  10.597  13.054
  117SBC   C09T82478   1.209  10.210  12.875
  117SBC   C09S82479   0.982  10.469  12.775
  117SBC   C09Q82480   0.978  10.582  12.498
  117SBC   C09F82481   1.171  10.446  12.327
  117SBC   C09E82482   1.200  10.243  12.637
  117SBC   C0A082483   1.355  10.306  12.289
  117SBC   C0CU82484   1.499  10.070  12.344
  117SBC   C0CR82485   1.566   9.949  12.358
  117SBC   C0CZ82486   1.559   9.885  12.489
  117SBC   C0DA82487   1.273  10.181  12.741
  117SBC   C0D982488   1.570  10.031  12.894
  117SBC   H00V82489   1.610  10.114  12.951
  117SBC   C0CY82490   1.489   9.955  12.587
  117SBC   C0DF82491   1.628   9.895  12.897
  117SBC   C0DE82492   1.742   9.815  12.929
  117SBC   C0GI82493   1.826   9.821  13.042
  117SBC   H01K82494   1.824   9.901  13.114
  117SBC   C0GJ82495   1.907   9.715  13.057
  117SBC   H01J82496   1.977   9.721  13.139
  117SBC   O00I82497   1.918   9.605  12.974
  117SBC   C0GH82498   1.844   9.603  12.857
  117SBC   C0GG82499   1.887   9.506  12.758
  117SBC   O00G82500   1.979   9.415  12.797
  117SBC   C0G882501   2.034   9.326  12.711
  117SBC   C0G982502   2.093   9.214  12.762
  117SBC   H01G82503   2.085   9.196  12.868
  117SBC   C0GA82504   2.159   9.129  12.674
  117SBC   H01H82505   2.214   9.053  12.727
  117SBC   C0GB82506   2.178   9.153  12.535
  117SBC   C0EP82507   2.115   9.267  12.482
  117SBC   C0E882508   2.161   9.322  12.353
  117SBC   C0CK82509   2.131   9.432  12.268
  117SBC   C0CL82510   1.997   9.465  12.263
  117SBC   C0E982511   1.915   9.460  12.380
  117SBC   C0GE82512   1.932   9.438  12.521
  117SBC   C0E782513   2.231   9.230  12.277
  117SBC   C0CJ82514   2.249   9.276  12.147
  117SBC   C0E682515   2.308   9.193  12.060
  117SBC   H00Y82516   2.321   9.228  11.959
  117SBC   C0EO82517   2.377   9.082  12.111
  117SBC   H01182518   2.435   9.040  12.030
  117SBC   C0G682519   2.369   9.031  12.246
  117SBC   C0G582520   2.434   8.921  12.312
  117SBC   H01F82521   2.498   8.850  12.261
  117SBC   C0GD82522   2.397   8.884  12.437
  117SBC   H01I82523   2.435   8.793  12.480
  117SBC   O00H82524   2.310   8.952  12.518
  117SBC   C0EQ82525   2.284   9.108  12.325
  117SBC   C0GC82526   2.257   9.064  12.457
  117SBC   C0G782527   2.031   9.346  12.567
  117SBC   C0DD82528   1.751   9.703  12.838
  117SBC   C0GF82529   1.847   9.506  12.615
  117SBC   C0CO82530   1.800   9.518  12.334
  117SBC   C0D082531   1.615   9.756  12.503
  117SBC   C0C482532   1.649   9.890  12.257
  117SBC   C0CN82533   1.799   9.545  12.199
  117SBC   C0CP82534   1.887   9.841  12.029
  117SBC   C0CM82535   1.926   9.498  12.141
  117SBC   C0CI82536   2.198   9.417  12.141
  117SBC   C0CD82537   2.458   9.541  11.756
  117SBC   C0BR82538   2.143   9.700  11.874
  117SBC   C0CS82539   2.115   9.905  11.728
  117SBC   C0B682540   2.192  10.064  11.508
  117SBC   C0CG82541   2.407   9.719  11.610
  117SBC   C0CF82542   2.491   9.615  11.644
  117SBC   C0E582543   2.655   9.403  11.708
  117SBC   C0DT82544   2.858   9.324  11.540
  117SBC   C0DL82545   2.723   9.607  11.351
  117SBC   C0DM82546   2.736   9.665  11.226
  117SBC   C0DY82547   2.919   9.516  11.176
  117SBC   C0DU82548   2.967   9.309  11.464
  117SBC   C0F082549   3.128   9.134  11.398
  117SBC   C0F482550   3.240   8.984  11.201
  117SBC   C0FG82551   3.195   9.318  11.050
  117SBC   O00B82552   3.268   8.981  10.952
  117SBC   C0FN82553   3.202   9.337  10.915
  117SBC   C0DZ82554   3.018   9.470  11.085
  117SBC   O00C82555   2.923   9.671  10.783
  117SBC   C0FR82556   2.863   9.784  10.751
  117SBC   O00D82557   2.867   9.813  10.631
  117SBC   C0E082558   2.829   9.618  11.139
  117SBC   C0E382559   2.797   9.851  10.863
  117SBC   C0AW82560   2.747   9.978  10.849
  117SBC   C0AV82561   2.780  10.073  10.753
  117SBC   H00Q82562   2.849  10.048  10.674
  117SBC   C0AU82563   2.728  10.207  10.742
  117SBC   H00R82564   2.759  10.274  10.664
  117SBC   C0AT82565   2.642  10.255  10.842
  117SBC   C0AS82566   2.578  10.376  10.888
  117SBC   C0AR82567   2.636  10.504  10.857
  117SBC   C0BE82568   2.602  10.156  10.932
  117SBC   C0DN82569   2.656   9.770  11.198
  117SBC   C0AX82570   2.658  10.024  10.941
  117SBC   C0BB82571   2.496   9.934  11.264
  117SBC   C0BD82572   2.524  10.207  11.034
  117SBC   C0B282573   2.339  10.107  11.327
  117SBC   C0AH82574   2.228  10.356  11.275
  117SBC   C0BF82575   2.501  10.346  11.013
  117SBC   C0AL82576   2.179  10.608  11.200
  117SBC   C07U82577   2.484  10.650  11.010
  117SBC   C0AQ82578   2.587  10.624  10.915
  117SBC   C0BG82579   2.758  10.532  10.788
  117SBC   C0FY82580   2.961  10.803  10.916
  117SBC   C0BJ82581   2.893  10.476  10.820
  117SBC   H00S82582   2.917  10.374  10.848
  117SBC   C0FZ82583   3.080  10.749  10.962
  117SBC   C07S82584   2.895  10.912  10.978
  117SBC   C0G182585   3.170  10.967  11.235
  117SBC   C07K82586   2.949  11.258  11.332
  117SBC   C07H82587   2.780  11.116  11.142
  117SBC   C06B82588   2.624  11.422  11.103
  117SBC   C06N82589   2.414  11.360  11.162
  117SBC   C06682590   2.554  11.015  11.070
  117SBC   C06282591   2.266  10.923  11.138
  117SBC   C05Y82592   2.161  11.291  11.210
  117SBC   C06182593   2.123  10.927  11.151
  117SBC   C05H82594   1.902  11.125  11.343
  117SBC   C06V82595   2.054  10.830  11.226
  117SBC   C06Y82596   1.886  10.679  11.398
  117SBC   C05C82597   1.714  10.999  11.494
  117SBC   C06Z82598   1.725  10.634  11.571
  117SBC   C07082599   1.539  10.725  11.756
  117SBC   C05B82600   1.612  11.039  11.582
  117SBC   C05782601   1.411  11.121  11.757
  117SBC   C05982602   1.389  10.895  11.844
  118SBC   C05882603  12.808   8.688  15.986
  118SBC   C05A82604  12.872   8.567  16.017
  118SBC   C06Q82605  12.949   8.496  15.922
  118SBC   C06R82606  13.005   8.369  15.962
  118SBC   C06S82607  12.999   8.316  16.092
  118SBC   C06T82608  13.062   8.188  16.119
  118SBC   C06U82609  13.076   8.113  16.247
  118SBC   C06X82610  13.027   8.133  16.379
  118SBC   C06082611  13.082   8.039  16.476
  118SBC   C05Z82612  13.009   7.970  16.580
  118SBC   C06882613  13.036   7.825  16.560
  118SBC   C06782614  12.990   7.710  16.648
  118SBC   C06982615  12.947   7.747  16.785
  118SBC   C06A82616  12.898   7.652  16.885
  118SBC   C07382617  12.818   7.538  16.868
  118SBC   C07P82618  12.694   7.537  16.940
  118SBC   C07O82619  12.635   7.645  17.006
  118SBC   H00D82620  12.680   7.743  17.004
  118SBC   C07N82621  12.530   7.625  17.094
  118SBC   H00E82622  12.487   7.709  17.145
  118SBC   C07M82623  12.480   7.499  17.116
  118SBC   H00F82624  12.392   7.489  17.178
  118SBC   C07L82625  12.534   7.387  17.044
  118SBC   C07Q82626  12.479   7.256  17.059
  118SBC   H00G82627  12.388   7.242  17.116
  118SBC   O00F82628  12.535   7.147  16.997
  118SBC   C07J82629  12.640   7.167  16.911
  118SBC   C07I82630  12.704   7.294  16.897
  118SBC   N00482631  12.819   7.310  16.814
  118SBC   C07R82632  12.872   7.195  16.761
  118SBC   C07T82633  12.807   7.071  16.775
  118SBC   C0FX82634  12.855   6.955  16.715
  118SBC   C0FW82635  12.791   6.833  16.709
  118SBC   C0G082636  12.678   6.817  16.797
  118SBC   C0G282637  12.612   6.690  16.807
  118SBC   H01E82638  12.527   6.674  16.872
  118SBC   C0G382639  12.654   6.583  16.720
  118SBC   H01C82640  12.612   6.484  16.715
  118SBC   C0G482641  12.762   6.607  16.632
  118SBC   H01D82642  12.791   6.522  16.571
  118SBC   O00E82643  12.627   6.929  16.856
  118SBC   C0FV82644  12.837   6.726  16.624
  118SBC   C0FU82645  12.951   6.760  16.541
  118SBC   H01B82646  12.983   6.685  16.470
  118SBC   C0FT82647  13.020   6.872  16.548
  118SBC   C0FS82648  13.120   6.946  16.472
  118SBC   C0BI82649  13.150   7.062  16.552
  118SBC   C0BH82650  13.221   7.154  16.478
  118SBC   C07F82651  13.190   7.292  16.462
  118SBC   C07E82652  13.121   7.375  16.545
  118SBC   C07G82653  13.035   7.340  16.649
  118SBC   C07482654  12.978   7.455  16.694
  118SBC   C06582655  13.101   7.511  16.519
  118SBC   C06482656  13.145   7.555  16.390
  118SBC   C06382657  13.142   7.689  16.347
  118SBC   C07582658  13.202   7.675  16.209
  118SBC   C0AM82659  13.227   7.536  16.166
  118SBC   C0AN82660  13.270   7.481  16.033
  118SBC   C0AO82661  13.290   7.547  15.897
  118SBC   C0B182662  13.312   7.472  15.776
  118SBC   C0B082663  13.312   7.336  15.775
  118SBC   C0AZ82664  13.327   7.252  15.667
  118SBC   C0AY82665  13.327   7.117  15.686
  118SBC   N00782666  13.352   7.032  15.579
  118SBC   C0E282667  13.342   6.888  15.597
  118SBC   C0E182668  13.359   6.808  15.487
  118SBC   C0E482669  13.347   6.668  15.500
  118SBC   C0FF82670  13.356   6.579  15.388
  118SBC   C0FJ82671  13.321   6.433  15.369
  118SBC   C0FK82672  13.238   6.340  15.438
  118SBC   H01682673  13.198   6.341  15.538
  118SBC   C0FL82674  13.223   6.228  15.345
  118SBC   H01782675  13.167   6.136  15.357
  118SBC   C0FM82676  13.285   6.256  15.219
  118SBC   C0FH82677  13.325   6.233  15.074
  118SBC   C0FI82678  13.411   6.346  15.051
  118SBC   C0F382679  13.442   6.398  14.926
  118SBC   C0F282680  13.486   6.530  14.930
  118SBC   C0DW82681  13.485   6.620  15.042
  118SBC   C0FE82682  13.456   6.566  15.165
  118SBC   C0DV82683  13.498   6.755  15.031
  118SBC   C0DX82684  13.465   6.834  15.138
  118SBC   C0DK82685  13.468   6.975  15.123
  118SBC   C0DJ82686  13.490   7.030  14.994
  118SBC   C0DI82687  13.484   7.168  14.972
  118SBC   C0DH82688  13.456   7.254  15.080
  118SBC   C0DG82689  13.423   7.200  15.206
  118SBC   C0BV82690  13.395   7.284  15.310
  118SBC   C0BC82691  13.377   7.226  15.436
  118SBC   C0BA82692  13.396   7.420  15.291
  118SBC   C0B482693  13.376   7.501  15.404
  118SBC   C0B382694  13.362   7.445  15.530
  118SBC   C0B582695  13.364   7.639  15.386
  118SBC   C0BU82696  13.388   7.693  15.258
  118SBC   C0BT82697  13.422   7.619  15.149
  118SBC   C0BS82698  13.440   7.669  15.016
  118SBC   C0CC82699  13.462   7.583  14.911
  118SBC   C0CB82700  13.466   7.634  14.779
  118SBC   C0CH82701  13.447   7.535  14.677
  118SBC   C0DO82702  13.474   7.404  14.693
  118SBC   C0DP82703  13.496   7.320  14.583
  118SBC   C0EA82704  13.496   7.369  14.444
  118SBC   H01282705  13.473   7.472  14.422
  118SBC   O00982706  13.536   7.290  14.340
  118SBC   C0EH82707  13.542   7.154  14.365
  118SBC   C0EG82708  13.567   7.077  14.255
  118SBC   C0EJ82709  13.585   7.097  14.117
  118SBC   H01082710  13.592   7.200  14.083
  118SBC   C0EK82711  13.581   6.976  14.037
  118SBC   H00Z82712  13.601   6.967  13.931
  118SBC   C0EL82713  13.549   6.879  14.137
  118SBC   C0EM82714  13.500   6.743  14.133
  118SBC   C0EW82715  13.473   6.666  14.016
  118SBC   H01382716  13.483   6.714  13.919
  118SBC   C0EX82717  13.410   6.531  14.024
  118SBC   H01482718  13.385   6.485  13.930
  118SBC   C0F182719  13.391   6.468  14.155
  118SBC   C0EU82720  13.426   6.547  14.264
  118SBC   C0ET82721  13.412   6.516  14.403
  118SBC   C0ES82722  13.451   6.631  14.473
  118SBC   C0EE82723  13.488   6.733  14.387
  118SBC   C0ED82724  13.524   6.868  14.390
  118SBC   C0EC82725  13.526   6.954  14.508
  118SBC   C0EB82726  13.517   6.908  14.640
  118SBC   C0EN82727  13.500   6.766  14.663
  118SBC   C0ER82728  13.518   6.732  14.799
  118SBC   C0DS82729  13.521   6.995  14.751
  118SBC   C0DR82730  13.508   7.130  14.732
  118SBC   C0EY82731  13.463   6.643  14.600
  118SBC   C0EZ82732  13.453   6.532  14.687
  118SBC   C0F582733  13.402   6.395  14.690
  118SBC   C0F682734  13.356   6.338  14.566
  118SBC   N00882735  13.299   6.209  14.588
  118SBC   C0F782736  13.273   6.156  14.719
  118SBC   C0FQ82737  13.219   6.026  14.725
  118SBC   H01882738  13.205   5.968  14.814
  118SBC   C0FP82739  13.185   5.953  14.620
  118SBC   H01982740  13.138   5.857  14.633
  118SBC   C0FO82741  13.201   6.010  14.498
  118SBC   H01A82742  13.161   5.947  14.420
  118SBC   C0F882743  13.315   6.224  14.836
  118SBC   C0F982744  13.259   6.139  14.475
  118SBC   C0FA82745  13.265   6.181  14.338
  118SBC   H01582746  13.226   6.122  14.256
  118SBC   C0FB82747  13.318   6.310  14.319
  118SBC   C0FD82748  13.363   6.385  14.432
  118SBC   C0FC82749  13.317   6.352  14.182
  118SBC   O00A82750  13.268   6.288  14.092
  118SBC   C0EV82751  13.474   6.682  14.257
  118SBC   C0EF82752  13.555   6.940  14.268
  118SBC   C0EI82753  13.529   7.095  14.496
  118SBC   C0DQ82754  13.507   7.179  14.602
  118SBC   C0CE82755  13.488   7.358  14.820
  118SBC   H00U82756  13.435   7.571  14.576
  118SBC   C0CA82757  13.492   7.775  14.753
  118SBC   C0C982758  13.469   7.866  14.861
  118SBC   C0C882759  13.489   8.006  14.831
  118SBC   C0C782760  13.428   8.125  14.891
  118SBC   C0C682761  13.469   8.249  14.838
  118SBC   C0C582762  13.424   8.385  14.831
  118SBC   C0CQ82763  13.463   8.454  14.714
  118SBC   C0D182764  13.507   8.386  14.605
  118SBC   C0D882765  13.460   8.437  14.493
  118SBC   C0D782766  13.415   8.570  14.523
  118SBC   C0D682767  13.344   8.658  14.433
  118SBC   C0D582768  13.284   8.778  14.479
  118SBC   C0D482769  13.276   8.847  14.601
  118SBC   C0D382770  13.175   8.944  14.583
  118SBC   C0CX82771  13.113   8.954  14.711
  118SBC   C0CW82772  13.152   8.833  14.792
  118SBC   C0CV82773  13.115   8.769  14.918
  118SBC   C0D282774  13.020   8.834  15.004
  118SBC   C09D82775  12.928   8.937  14.976
  118SBC   C09C82776  12.830   8.981  15.068
  118SBC   C09B82777  12.738   9.091  15.051
  118SBC   C09A82778  12.748   9.160  14.930
  118SBC   C09982779  12.831   9.110  14.828
  118SBC   C09882780  12.863   9.223  14.748
  118SBC   C08Y82781  12.800   9.341  14.807
  118SBC   C08X82782  12.833   9.479  14.779
  118SBC   C08W82783  12.937   9.518  14.684
  118SBC   C08U82784  13.042   9.431  14.619
  118SBC   C08V82785  13.084   9.296  14.638
  118SBC   C0DC82786  13.180   9.265  14.532
  118SBC   H00W82787  13.219   9.165  14.518
  118SBC   C0DB82788  13.200   9.381  14.457
  118SBC   H00X82789  13.262   9.399  14.371
  118SBC   C08T82790  13.117   9.483  14.509
  118SBC   C08S82791  13.108   9.613  14.475
  118SBC   H00N82792  13.175   9.648  14.397
  118SBC   C08R82793  13.033   9.709  14.542
  118SBC   C08Q82794  13.036   9.852  14.520
  118SBC   H00O82795  13.094   9.892  14.439
  118SBC   C08P82796  12.955   9.942  14.578
  118SBC   C08O82797  12.942  10.081  14.529
  118SBC   H00P82798  13.002  10.114  14.445
  118SBC   C08N82799  12.867  10.169  14.609
  118SBC   C08M82800  12.835  10.301  14.564
  118SBC   O00882801  12.863  10.346  14.450
  118SBC   O00782802  12.773  10.387  14.653
  118SBC   C08H82803  12.736  10.353  14.783
  118SBC   C08G82804  12.684  10.447  14.879
  118SBC   C03V82805  12.665  10.585  14.866
  118SBC   H00982806  12.691  10.631  14.772
  118SBC   C03U82807  12.609  10.665  14.967
  118SBC   C03W82808  12.571  10.801  14.957
  118SBC   H00A82809  12.589  10.841  14.858
  118SBC   C03X82810  12.527  10.870  15.065
  118SBC   H00B82811  12.497  10.973  15.048
  118SBC   O00582812  12.517  10.816  15.189
  118SBC   C03O82813  12.538  10.679  15.196
  118SBC   C03N82814  12.509  10.621  15.319
  118SBC   O00082815  12.460  10.701  15.424
  118SBC   C01982816  12.426  10.642  15.541
  118SBC   C01882817  12.436  10.499  15.561
  118SBC   C01782818  12.482  10.422  15.452
  118SBC   C01682819  12.488  10.281  15.474
  118SBC   C01582820  12.459  10.240  15.610
  118SBC   C01482821  12.458  10.106  15.627
  118SBC   C01382822  12.464  10.007  15.521
  118SBC   C01282823  12.441   9.876  15.590
  118SBC   C01182824  12.412   9.911  15.722
  118SBC   C01082825  12.357   9.823  15.807
  118SBC   C00Z82826  12.319   9.839  15.938
  118SBC   C00Y82827  12.306   9.701  15.981
  118SBC   C01O82828  12.325   9.612  15.876
  118SBC   C01P82829  12.392   9.493  15.901
  118SBC   C02L82830  12.441   9.425  15.793
  118SBC   C02K82831  12.453   9.501  15.669
  118SBC   C01M82832  12.434   9.645  15.658
  118SBC   C02J82833  12.491   9.421  15.562
  118SBC   C02I82834  12.490   9.456  15.429
  118SBC   C02H82835  12.477   9.578  15.365
  118SBC   C01Q82836  12.472   9.709  15.419
  118SBC   C02G82837  12.491   9.806  15.319
  118SBC   C08982838  12.508   9.738  15.201
  118SBC   C08882839  12.594   9.800  15.111
  118SBC   C08782840  12.603   9.940  15.172
  118SBC   C08682841  12.656  10.056  15.105
  118SBC   C03S82842  12.626  10.194  15.139
  118SBC   N00682843  12.668  10.264  15.032
  118SBC   C08F82844  12.720  10.184  14.934
  118SBC   C01J82845  12.571  10.267  15.246
  118SBC   C03R82846  12.557  10.406  15.233
  118SBC   C03Q82847  12.589  10.462  15.107
  118SBC   C08E82848  12.719  10.055  14.976
  118SBC   C08D82849  12.750   9.948  14.888
  118SBC   C08K82850  12.811   9.990  14.769
  118SBC   C08C82851  12.730   9.809  14.899
  118SBC   C09182852  12.785   9.721  14.805
  118SBC   C09282853  12.879   9.760  14.708
  118SBC   C08B82854  12.666   9.733  14.999
  118SBC   C09082855  12.669   9.597  14.954
  118SBC   C09482856  12.600   9.487  15.021
  118SBC   C09582857  12.626   9.352  15.004
  118SBC   C09R82858  12.602   9.274  15.118
  118SBC   C09782859  12.555   9.360  15.218
  118SBC   C09682860  12.554   9.490  15.156
  118SBC   C01I82861  12.528   9.947  15.300
  118SBC   C08A82862  12.516   9.596  15.234
  118SBC   C09L82863  12.530   9.344  15.358
  118SBC   C09K82864  12.544   9.234  15.447
  118SBC   C09J82865  12.597   9.110  15.408
  118SBC   C09I82866  12.663   9.026  15.506
  118SBC   C09O82867  12.675   8.999  15.649
  118SBC   C09N82868  12.605   9.087  15.740
  118SBC   C09M82869  12.542   9.215  15.712
  118SBC   C06O82870  12.609   9.043  15.874
  118SBC   C05M82871  12.676   8.921  15.911
  118SBC   C06P82872  12.751   8.850  15.818
  118SBC   C04282873  12.669   8.877  16.043
  118SBC   C04182874  12.606   8.949  16.138
  118SBC   C04082875  12.611   8.907  16.271
  118SBC   C03Z82876  12.570   8.993  16.376
  118SBC   C03Y82877  12.520   9.116  16.346
  118SBC   C02782878  12.485   9.201  16.451
  118SBC   C02682879  12.425   9.323  16.427
  118SBC   C02882880  12.400   9.414  16.527
  118SBC   C02982881  12.420   9.379  16.660
  118SBC   C02B82882  12.405   9.478  16.758
  118SBC   C02C82883  12.435   9.437  16.890
  118SBC   C02X82884  12.441   9.538  16.988
  118SBC   C03E82885  12.476   9.496  17.116
  118SBC   C03G82886  12.517   9.372  17.150
  118SBC   C04Q82887  12.508   9.275  17.052
  118SBC   C04R82888  12.549   9.143  17.080
  118SBC   C04S82889  12.548   9.043  16.986
  118SBC   C04L82890  12.525   9.085  16.852
  118SBC   C04M82891  12.481   9.214  16.821
  118SBC   C04K82892  12.555   8.994  16.750
  118SBC   C04F82893  12.589   8.860  16.778
  118SBC   C04E82894  12.597   8.817  16.912
  118SBC   C04D82895  12.648   8.689  16.941
  118SBC   C05082896  12.689   8.657  17.066
  118SBC   C05182897  12.739   8.527  17.096
  118SBC   C05Q82898  12.780   8.489  17.226
  118SBC   C05V82899  12.825   8.362  17.249
  118SBC   N00582900  12.860   8.321  17.380
  118SBC   C07V82901  12.869   8.422  17.477
  118SBC   C08282902  12.925   8.386  17.604
  118SBC   C08182903  12.957   8.256  17.636
  118SBC   C07C82904  12.932   8.157  17.540
  118SBC   C07B82905  12.939   8.017  17.573
  118SBC   C08082906  12.969   7.980  17.707
  118SBC   C07Z82907  12.969   7.836  17.723
  118SBC   H00L82908  12.973   7.803  17.826
  118SBC   C07982909  12.947   7.741  17.620
  118SBC   C07882910  12.942   7.789  17.493
  118SBC   C07782911  12.930   7.698  17.381
  118SBC   C07X82912  12.927   7.558  17.401
  118SBC   H00I82913  12.924   7.479  17.328
  118SBC   C07Y82914  12.941   7.513  17.523
  118SBC   H00H82915  12.937   7.408  17.546
  118SBC   C07682916  12.929   7.742  17.251
  118SBC   C06C82917  12.917   7.655  17.140
  118SBC   H00C82918  12.896   7.550  17.150
  118SBC   C06F82919  12.930   7.878  17.226
  118SBC   C06E82920  12.935   7.930  17.098
  118SBC   C06G82921  12.912   8.056  17.059
  118SBC   C06H82922  12.892   8.145  17.170
  118SBC   C06I82923  12.904   8.103  17.304
  118SBC   C06L82924  12.896   8.096  16.922
  118SBC   C06M82925  12.927   8.008  16.814
  118SBC   C06K82926  12.862   8.228  16.906
  118SBC   C05S82927  12.820   8.310  17.009
  118SBC   C05U82928  12.842   8.267  16.773
  118SBC   C05X82929  12.895   8.191  16.665
  118SBC   C05G82930  12.882   8.253  16.533
  118SBC   C05F82931  12.815   8.374  16.526
  118SBC   C05E82932  12.821   8.427  16.398
  118SBC   C04882933  12.780   8.554  16.369
  118SBC   C05682934  12.795   8.595  16.241
  118SBC   C04582935  12.737   8.716  16.212
  118SBC   C04782936  12.709   8.616  16.471
  118SBC   C04982937  12.714   8.568  16.599
  118SBC   C04B82938  12.666   8.650  16.706
  118SBC   C04682939  12.662   8.741  16.440
  118SBC   C04H82940  12.616   8.822  16.542
  118SBC   C05D82941  12.900   8.346  16.317
  118SBC   C04A82942  12.763   8.446  16.629
  118SBC   C05T82943  12.778   8.392  16.754
  118SBC   C05582944  12.739   8.477  16.860
  118SBC   C06D82945  12.939   7.838  16.995
  118SBC   C07W82946  12.929   7.969  17.330
  118SBC   C08582947  12.940   7.601  17.637
  118SBC   H00M82948  12.959   7.559  17.735
  118SBC   C08482949  13.009   8.079  17.803
  118SBC   H00J82950  13.034   8.055  17.906
  118SBC   C07A82951  12.937   7.926  17.468
  118SBC   C08382952  13.007   8.217  17.767
  118SBC   H00K82953  13.043   8.300  17.826
  118SBC   O00K82954  12.925   8.490  17.697
  118SBC   C0GO82955  12.880   8.618  17.664
  118SBC   C0GN82956  12.877   8.706  17.765
  118SBC   H01L82957  12.902   8.672  17.864
  118SBC   C0GM82958  12.828   8.839  17.744
  118SBC   C0GL82959  12.823   8.928  17.847
  118SBC   H01M82960  12.848   8.899  17.948
  118SBC   O00J82961  12.775   9.057  17.833
  118SBC   C0GK82962  12.728   9.083  17.706
  118SBC   H01N82963  12.666   9.171  17.707
  118SBC   C05K82964  12.747   9.007  17.596
  118SBC   C05J82965  12.703   9.050  17.465
  118SBC   C04Y82966  12.667   9.181  17.428
  118SBC   C04X82967  12.613   9.215  17.301
  118SBC   O00682968  12.681   9.280  17.518
  118SBC   C05382969  12.672   9.411  17.487
  118SBC   C04O82970  12.599   9.453  17.371
  118SBC   C03C82971  12.555   9.582  17.330
  118SBC   C03B82972  12.588   9.714  17.378
  118SBC   C05482973  12.692   9.742  17.467
  118SBC   C0GR82974  12.733   9.878  17.497
  118SBC   C03M82975  12.715  10.014  17.440
  118SBC   C03I82976  12.656  10.043  17.311
  118SBC   C03J82977  12.660  10.179  17.260
  118SBC   N00282978  12.606  10.220  17.133
  118SBC   C02U82979  12.639  10.350  17.079
  118SBC   C02T82980  12.603  10.378  16.948
  118SBC   C02Z82981  12.648  10.499  16.890
  118SBC   N00182982  12.640  10.525  16.747
  118SBC   C02R82983  12.696  10.641  16.686
  118SBC   C03282984  12.769  10.728  16.766
  118SBC   C03182985  12.769  10.709  16.903
  118SBC   H00782986  12.818  10.781  16.967
  118SBC   C03382987  12.836  10.832  16.691
  118SBC   H00382988  12.895  10.907  16.740
  118SBC   O00482989  12.835  10.839  16.553
  118SBC   C03482990  12.781  10.737  16.488
  118SBC   C03582991  12.817  10.722  16.350
  118SBC   C03682992  12.757  10.621  16.279
  118SBC   H00582993  12.774  10.600  16.175
  118SBC   C03782994  12.674  10.525  16.342
  118SBC   H00682995  12.642  10.441  16.282
  118SBC   C00D82996  12.636  10.543  16.473
  118SBC   C00C82997  12.552  10.449  16.535
  118SBC   C00B82998  12.452  10.367  16.459
  118SBC   C00A82999  12.432  10.327  16.321
  118SBC   C00983000  12.363  10.210  16.328
  118SBC   C00883001  12.348  10.121  16.225
  118SBC   C00783002  12.380  10.165  16.099
  118SBC   C00683003  12.378  10.075  15.996
  118SBC   C00583004  12.399  10.128  15.868
  118SBC   C00483005  12.414  10.266  15.849
  118SBC   C00383006  12.407  10.353  15.959
  118SBC   C00283007  12.402  10.491  15.932
  118SBC   C01C83008  12.404  10.540  15.803
  118SBC   C01B83009  12.381  10.676  15.775
  118SBC   H00083010  12.351  10.745  15.852
  118SBC   C00183011  12.402  10.576  16.046
  118SBC   C00083012  12.409  10.524  16.171
  118SBC   C01U83013  12.399  10.633  16.264
  118SBC   H00283014  12.397  10.645  16.371
  118SBC   C01T83015  12.396  10.754  16.184
  118SBC   O00283016  12.396  10.874  16.216
  118SBC   O00183017  12.400  10.716  16.051
  118SBC   C01S83018  12.403  10.302  16.082
  118SBC   C00N83019  12.326   9.991  16.262
  118SBC   C00M83020  12.312   9.949  16.397
  118SBC   C00J83021  12.328  10.039  16.500
  118SBC   C00I83022  12.354  10.012  16.630
  118SBC   C00H83023  12.407  10.110  16.718
  118SBC   C00G83024  12.430  10.233  16.675
  118SBC   C00F83025  12.509  10.319  16.740
  118SBC   C01X83026  12.451  10.068  16.843
  118SBC   C01W83027  12.431   9.937  16.889
  118SBC   C01V83028  12.387   9.837  16.797
  118SBC   C02083029  12.390   9.700  16.827
  118SBC   C01Z83030  12.471   9.901  17.016
  118SBC   C02Y83031  12.448   9.771  17.045
  118SBC   C03983032  12.489   9.731  17.174
  118SBC   C02W83033  12.533   9.993  17.101
  118SBC   C01Y83034  12.507  10.162  16.926
  118SBC   C00U83035  12.358   9.877  16.667
  118SBC   C00S83036  12.347   9.781  16.565
  118SBC   C00T83037  12.358   9.647  16.599
  118SBC   C00R83038  12.321   9.815  16.431
  118SBC   C00Q83039  12.330   9.719  16.333
  118SBC   C00V83040  12.356   9.587  16.367
  118SBC   C02483041  12.372   9.494  16.266
  118SBC   C00X83042  12.356   9.529  16.134
  118SBC   C00P83043  12.323   9.763  16.201
  118SBC   C00O83044  12.322   9.895  16.165
  118SBC   C00K83045  12.339  10.173  16.457
  118SBC   N00083046  12.409  10.389  16.199
  118SBC   C00L83047  12.396  10.265  16.540
  118SBC   H00483048  12.895  10.780  16.304
  118SBC   C02Q83049  12.696  10.643  16.544
  118SBC   C00E83050  12.562  10.432  16.674
  118SBC   C03083051  12.723  10.591  16.962
  118SBC   O00383052  12.735  10.571  17.096
  118SBC   C02S83053  12.536  10.288  16.868
  118SBC   C03883054  12.709  10.446  17.150
  118SBC   C03L83055  12.736  10.416  17.284
  118SBC   H00883056  12.795  10.488  17.338
  118SBC   C02V83057  12.546  10.124  17.051
  118SBC   C03K83058  12.719  10.283  17.335
  118SBC   C0BK83059  12.769  10.246  17.464
  118SBC   H00T83060  12.817  10.325  17.520
  118SBC   C03H83061  12.578   9.952  17.227
  118SBC   C0BL83062  12.778  10.115  17.512
  118SBC   C0GU83063  12.849  10.088  17.629
  118SBC   H01O83064  12.891  10.174  17.680
  118SBC   C0GT83065  12.878   9.963  17.682
  118SBC   H01P83066  12.932   9.955  17.775
  118SBC   C0GS83067  12.812   9.859  17.617
  118SBC   C0GV83068  12.818   9.723  17.658
  118SBC   C0GW83069  12.887   9.671  17.771
  118SBC   H01Q83070  12.949   9.730  17.836
  118SBC   C0GX83071  12.879   9.534  17.777
  118SBC   H01R83072  12.936   9.483  17.853
  118SBC   O00L83073  12.807   9.455  17.689
  118SBC   C0GQ83074  12.744   9.648  17.565
  118SBC   C03A83075  12.544   9.813  17.273
  118SBC   C05L83076  12.735   9.509  17.580
  118SBC   C04W83077  12.691   8.947  17.367
  118SBC   C05I83078  12.740   8.815  17.385
  118SBC   C05O83079  12.791   8.782  17.513
  118SBC   C05283080  12.728   8.716  17.292
  118SBC   C04V83081  12.638   8.981  17.242
  118SBC   C04U83082  12.632   8.881  17.142
  118SBC   N00983083  12.793   8.875  17.617
  118SBC   C0GP83084  12.838   8.652  17.537
  118SBC   C05W83085  12.829   8.549  17.443
  118SBC   C07D83086  12.902   8.193  17.412
  118SBC   C06J83087  12.844   8.270  17.141
  118SBC   C05P83088  12.770   8.580  17.326
  118SBC   C05R83089  12.765   8.438  16.990
  118SBC   C04Z83090  12.680   8.750  17.165
  118SBC   C04C83091  12.683   8.602  16.835
  118SBC   C04G83092  12.619   8.776  16.673
  118SBC   C04J83093  12.546   9.037  16.613
  118SBC   C04T83094  12.587   8.912  17.013
  118SBC   N00383095  12.593   9.112  17.210
  118SBC   C04P83096  12.574   9.349  17.274
  118SBC   C03D83097  12.495   9.599  17.207
  118SBC   C02183098  12.417   9.669  16.956
  118SBC   C03F83099  12.476   9.308  16.924
  118SBC   C02283100  12.383   9.608  16.728
  118SBC   C02A83101  12.460   9.249  16.690
  118SBC   C02383102  12.369   9.552  16.500
  118SBC   C02583103  12.411   9.363  16.293
  118SBC   C02D83104  12.457   9.278  16.189
  118SBC   C02E83105  12.442   9.321  16.057
  118SBC   C02N83106  12.500   9.249  15.951
  118SBC   C04N83107  12.496   9.164  16.586
  118SBC   C02P83108  12.510   9.153  16.214
  118SBC   C04I83109  12.576   8.951  16.511
  118SBC   C04483110  12.663   8.782  16.307
  118SBC   C04383111  12.556   9.074  16.109
  118SBC   C05N83112  12.560   9.124  15.976
  118SBC   C09U83113  12.765   8.893  15.686
  118SBC   C09V83114  12.837   8.819  15.596
  118SBC   C09X83115  12.839   8.850  15.464
  118SBC   C09Y83116  12.919   8.788  15.366
  118SBC   C0A183117  12.993   8.681  15.403
  118SBC   C0A283118  12.989   8.641  15.536
  118SBC   C0A483119  13.056   8.524  15.570
  118SBC   C07183120  13.041   8.474  15.700
  118SBC   C0A583121  13.098   8.352  15.735
  118SBC   C0A983122  13.154   8.272  15.633
  118SBC   C0A883123  13.162   8.318  15.506
  118SBC   C0AP83124  13.213   8.242  15.409
  118SBC   C0BY83125  13.220   8.297  15.284
  118SBC   C0BX83126  13.182   8.426  15.243
  118SBC   C0C283127  13.201   8.472  15.112
  118SBC   C0C383128  13.164   8.601  15.085
  118SBC   C0CT83129  13.081   8.671  15.177
  118SBC   C0C183130  13.265   8.389  15.017
  118SBC   C0C083131  13.276   8.246  15.049
  118SBC   C0A783132  13.127   8.499  15.343
  118SBC   C0BZ83133  13.261   8.216  15.181
  118SBC   C0BO83134  13.294   8.084  15.203
  118SBC   C0BN83135  13.293   8.026  15.327
  118SBC   C0BM83136  13.316   7.898  15.339
  118SBC   C0B983137  13.310   7.849  15.472
  118SBC   C0B883138  13.284   7.927  15.582
  118SBC   C0AD83139  13.244   8.057  15.557
  118SBC   C0AF83140  13.269   7.877  15.711
  118SBC   C0AG83141  13.293   7.742  15.739
  118SBC   C0B783142  13.322   7.662  15.628
  118SBC   C0AE83143  13.226   7.971  15.804
  118SBC   C0AB83144  13.196   8.102  15.785
  118SBC   C0AA83145  13.136   8.176  15.888
  118SBC   C0AJ83146  13.214   7.912  15.929
  118SBC   C0AK83147  13.176   7.993  16.036
  118SBC   C06W83148  13.178   7.918  16.149
  118SBC   C0AI83149  13.245   7.782  15.976
  118SBC   C0BP83150  13.338   8.025  15.088
  118SBC   C0BQ83151  13.386   7.886  15.103
  118SBC   C0BW83152  13.248   8.107  15.429
  118SBC   C0AC83153  13.205   8.143  15.659
  118SBC   C0A683154  13.119   8.447  15.476
  118SBC   C0A383155  13.064   8.618  15.305
  118SBC   C09Z83156  12.917   8.830  15.226
  118SBC   C09W83157  12.912   8.711  15.632
  118SBC   C07283158  12.898   8.665  15.760
  118SBC   C09H83159  12.754   8.950  15.422
  118SBC   C09G83160  12.748   8.979  15.289
  118SBC   C09P83161  12.649   9.074  15.271
  118SBC   C02O83162  12.523   9.281  15.583
  118SBC   C02M83163  12.490   9.294  15.815
  118SBC   C02F83164  12.384   9.443  16.032
  118SBC   C00W83165  12.325   9.662  16.112
  118SBC   C01R83166  12.341   9.941  16.031
  118SBC   C01N83167  12.371   9.694  15.774
  118SBC   C01L83168  12.454   9.739  15.550
  118SBC   C01H83169  12.505  10.052  15.391
  118SBC   C01K83170  12.417  10.050  15.749
  118SBC   C01E83171  12.432  10.318  15.720
  118SBC   C01G83172  12.529  10.199  15.369
  118SBC   C01D83173  12.422  10.451  15.696
  118SBC   C01A83174  12.393  10.730  15.646
  118SBC   H00183175  12.390  10.837  15.631
  118SBC   C01F83176  12.515  10.482  15.333
  118SBC   C03P83177  12.576  10.599  15.083
  118SBC   C03T83178  12.646  10.394  15.002
  118SBC   C08I83179  12.761  10.223  14.815
  118SBC   C08J83180  12.818  10.128  14.734
  118SBC   C08L83181  12.881   9.898  14.687
  118SBC   C09383182  12.952   9.655  14.649
  118SBC   C08Z83183  12.762   9.588  14.847
  118SBC   C09T83184  12.997   9.196  14.700
  118SBC   C09S83185  12.714   9.295  14.912
  118SBC   C09Q83186  12.654   9.146  15.148
  118SBC   C09F83187  12.832   8.925  15.191
  118SBC   C09E83188  12.934   9.025  14.865
  118SBC   C0A083189  13.008   8.778  15.130
  118SBC   C0CU83190  13.185   8.650  14.953
  118SBC   C0CR83191  13.275   8.580  14.871
  118SBC   C0CZ83192  13.306   8.638  14.745
  118SBC   C0DA83193  13.027   9.059  14.761
  118SBC   C0D983194  13.111   8.924  14.455
  118SBC   H00V83195  13.009   8.950  14.428
  118SBC   C0CY83196  13.257   8.772  14.717
  118SBC   C0DF83197  13.198   8.833  14.381
  118SBC   C0DE83198  13.207   8.747  14.269
  118SBC   C0GI83199  13.155   8.746  14.134
  118SBC   H01K83200  13.080   8.817  14.102
  118SBC   C0GJ83201  13.187   8.641  14.053
  118SBC   H01J83202  13.140   8.649  13.956
  118SBC   O00I83203  13.253   8.530  14.095
  118SBC   C0GH83204  13.327   8.528  14.216
  118SBC   C0GG83205  13.398   8.405  14.243
  118SBC   O00G83206  13.414   8.321  14.131
  118SBC   C0G883207  13.464   8.190  14.145
  118SBC   C0G983208  13.489   8.125  14.024
  118SBC   H01G83209  13.469   8.180  13.933
  118SBC   C0GA83210  13.543   8.001  14.032
  118SBC   H01H83211  13.564   7.940  13.945
  118SBC   C0GB83212  13.560   7.928  14.155
  118SBC   C0EP83213  13.538   7.991  14.274
  118SBC   C0E883214  13.533   7.912  14.401
  118SBC   C0CK83215  13.508   7.932  14.535
  118SBC   C0CL83216  13.535   8.051  14.590
  118SBC   C0E983217  13.534   8.180  14.519
  118SBC   C0GE83218  13.503   8.222  14.382
  118SBC   C0E783219  13.589   7.789  14.397
  118SBC   C0CJ83220  13.604   7.724  14.525
  118SBC   C0E683221  13.683   7.609  14.529
  118SBC   H00Y83222  13.710   7.558  14.621
  118SBC   C0EO83223  13.717   7.551  14.401
  118SBC   H01183224  13.769   7.457  14.406
  118SBC   C0G683225  13.692   7.607  14.277
  118SBC   C0G583226  13.731   7.554  14.151
  118SBC   H01F83227  13.777   7.456  14.149
  118SBC   C0GD83228  13.695   7.611  14.038
  118SBC   H01I83229  13.745   7.561  13.957
  118SBC   O00H83230  13.623   7.728  14.031
  118SBC   C0EQ83231  13.629   7.732  14.274
  118SBC   C0GC83232  13.597   7.791  14.151
  118SBC   C0G783233  13.497   8.130  14.275
  118SBC   C0DD83234  13.304   8.641  14.300
  118SBC   C0GF83235  13.454   8.359  14.371
  118SBC   C0CO83236  13.545   8.263  14.622
  118SBC   C0D083237  13.392   8.562  14.662
  118SBC   C0C483238  13.317   8.444  14.901
  118SBC   C0CN83239  13.572   8.204  14.749
  118SBC   C0CP83240  13.325   8.123  14.985
  118SBC   C0CM83241  13.567   8.065  14.730
  118SBC   C0CI83242  13.530   7.809  14.617
  118SBC   C0CD83243  13.468   7.445  14.929
  118SBC   C0BR83244  13.431   7.813  14.991
  118SBC   C0CS83245  13.368   7.827  15.233
  118SBC   C0B683246  13.329   7.712  15.497
  118SBC   C0CG83247  13.422   7.481  15.164
  118SBC   C0CF83248  13.449   7.393  15.058
  118SBC   C0E583249  13.496   7.217  14.843
  118SBC   C0DT83250  13.507   6.945  14.884
  118SBC   C0DL83251  13.432   7.059  15.226
  118SBC   C0DM83252  13.402   7.005  15.350
  118SBC   C0DY83253  13.424   6.782  15.263
  118SBC   C0DU83254  13.510   6.813  14.906
  118SBC   C0F083255  13.491   6.592  14.809
  118SBC   C0F483256  13.391   6.338  14.817
  118SBC   C0FG83257  13.424   6.430  15.164
  118SBC   O00B83258  13.277   6.165  14.964
  118SBC   C0FN83259  13.354   6.371  15.256
  118SBC   C0DZ83260  13.408   6.638  15.273
  118SBC   O00C83261  13.313   6.616  15.623
  118SBC   C0FR83262  13.302   6.689  15.733
  118SBC   O00D83263  13.282   6.616  15.833
  118SBC   C0E083264  13.393   6.867  15.365
  118SBC   C0E383265  13.316   6.828  15.721
  118SBC   C0AW83266  13.304   6.918  15.830
  118SBC   C0AV83267  13.300   6.873  15.963
  118SBC   H00Q83268  13.324   6.771  15.989
  118SBC   C0AU83269  13.303   6.963  16.070
  118SBC   H00R83270  13.323   6.920  16.168
  118SBC   C0AT83271  13.294   7.099  16.043
  118SBC   C0AS83272  13.283   7.221  16.122
  118SBC   C0AR83273  13.249   7.217  16.256
  118SBC   C0BE83274  13.301   7.140  15.914
  118SBC   C0DN83275  13.376   7.090  15.458
  118SBC   C0AX83276  13.306   7.055  15.804
  118SBC   C0BB83277  13.356   7.311  15.545
  118SBC   C0BD83278  13.296   7.277  15.899
  118SBC   C0B283279  13.335   7.526  15.643
  118SBC   C0AH83280  13.273   7.686  15.869
  118SBC   C0BF83281  13.285   7.340  16.025
  118SBC   C0AL83282  13.225   7.783  16.118
  118SBC   C07U83283  13.192   7.466  16.290
  118SBC   C0AQ83284  13.212   7.334  16.325
  118SBC   C0BG83285  13.243   7.105  16.346
  118SBC   C0FY83286  13.049   7.087  16.642
  118SBC   C0BJ83287  13.160   6.979  16.335
  118SBC   H00S83288  13.119   6.930  16.249
  118SBC   C0FZ83289  12.971   6.971  16.642
  118SBC   C07S83290  12.992   7.208  16.686
  118SBC   C0G183291  12.692   7.056  16.849
  118SBC   C07K83292  12.646   7.407  16.959
  118SBC   C07H83293  12.873   7.440  16.788
  118SBC   C06B83294  12.927   7.703  17.014
  118SBC   C06N83295  12.942   7.871  16.860
  118SBC   C06683296  13.024   7.571  16.624
  118SBC   C06283297  13.104   7.811  16.430
  118SBC   C05Y83298  12.946   8.057  16.687
  118SBC   C06183299  13.142   7.942  16.393
  118SBC   C05H83300  12.933   8.234  16.407
  118SBC   C06V83301  13.139   7.989  16.259
  118SBC   C06Y83302  13.127   8.123  16.011
  118SBC   C05C83303  12.927   8.392  16.184
  118SBC   C06Z83304  13.077   8.296  15.863
  118SBC   C07083305  12.970   8.546  15.794
  118SBC   C05B83306  12.864   8.513  16.147
  118SBC   C05783307  12.736   8.760  16.081
  118SBC   C05983308  12.823   8.735  15.854
  119SBC   C05883309   6.073  10.733  10.214
  119SBC   C05A83310   6.165  10.673  10.134
  119SBC   C06Q83311   6.299  10.667  10.169
  119SBC   C06R83312   6.393  10.607  10.079
  119SBC   C06S83313   6.357  10.559   9.951
  119SBC   C06T83314   6.461  10.507   9.868
  119SBC   C06U83315   6.462  10.461   9.728
  119SBC   C06X83316   6.358  10.437   9.631
  119SBC   C06083317   6.408  10.384   9.508
  119SBC   C05Z83318   6.357  10.285   9.414
  119SBC   C06883319   6.486  10.229   9.359
  119SBC   C06783320   6.508  10.155   9.235
  119SBC   C06983321   6.397  10.111   9.147
  119SBC   C06A83322   6.402  10.047   9.017
  119SBC   C07383323   6.474  10.084   8.902
  119SBC   C07P83324   6.410  10.090   8.771
  119SBC   C07O83325   6.271  10.088   8.754
  119SBC   H00D83326   6.197  10.109   8.830
  119SBC   C07N83327   6.210  10.067   8.633
  119SBC   H00E83328   6.102  10.063   8.630
  119SBC   C07M83329   6.293  10.059   8.521
  119SBC   H00F83330   6.246  10.041   8.425
  119SBC   C07L83331   6.432  10.079   8.521
  119SBC   C07Q83332   6.521  10.085   8.408
  119SBC   H00G83333   6.482  10.072   8.308
  119SBC   O00F83334   6.654  10.112   8.414
  119SBC   C07J83335   6.708  10.129   8.544
  119SBC   C07I83336   6.623  10.119   8.661
  119SBC   N00483337   6.685  10.114   8.793
  119SBC   C07R83338   6.831  10.109   8.793
  119SBC   C07T83339   6.905  10.151   8.682
  119SBC   C0FX83340   7.042  10.172   8.682
  119SBC   C0FW83341   7.127  10.199   8.580
  119SBC   C0G083342   7.052  10.202   8.455
  119SBC   C0G283343   7.130  10.231   8.339
  119SBC   H01E83344   7.091  10.240   8.239
  119SBC   C0G383345   7.268  10.257   8.348
  119SBC   H01C83346   7.330  10.295   8.267
  119SBC   C0G483347   7.326  10.253   8.473
  119SBC   H01D83348   7.429  10.286   8.479
  119SBC   O00E83349   6.923  10.166   8.442
  119SBC   C0FV83350   7.265  10.216   8.594
  119SBC   C0FU83351   7.325  10.198   8.722
  119SBC   H01B83352   7.430  10.222   8.731
  119SBC   C0FT83353   7.245  10.141   8.823
  119SBC   C0FS83354   7.260  10.104   8.958
  119SBC   C0BI83355   7.132  10.037   8.991
  119SBC   C0BH83356   7.117  10.007   9.128
  119SBC   C07F83357   7.007  10.054   9.197
  119SBC   C07E83358   6.871  10.074   9.161
  119SBC   C07G83359   6.822  10.073   9.033
  119SBC   C07483360   6.689  10.089   9.045
  119SBC   C06583361   6.774  10.123   9.249
  119SBC   C06483362   6.818  10.157   9.375
  119SBC   C06383363   6.737  10.223   9.472
  119SBC   C07583364   6.841  10.244   9.582
  119SBC   C0AM83365   6.978  10.199   9.551
  119SBC   C0AN83366   7.097  10.190   9.638
  119SBC   C0AO83367   7.126  10.235   9.778
  119SBC   C0B183368   7.252  10.202   9.849
  119SBC   C0B083369   7.349  10.120   9.789
  119SBC   C0AZ83370   7.470  10.088   9.846
  119SBC   C0AY83371   7.567  10.028   9.770
  119SBC   N00783372   7.690   9.988   9.827
  119SBC   C0E283373   7.785   9.918   9.749
  119SBC   C0E183374   7.891   9.866   9.820
  119SBC   C0E483375   7.990   9.793   9.748
  119SBC   C0FF83376   8.102   9.724   9.811
  119SBC   C0FJ83377   8.214   9.644   9.761
  119SBC   C0FK83378   8.275   9.665   9.630
  119SBC   H01683379   8.232   9.689   9.533
  119SBC   C0FL83380   8.417   9.641   9.653
  119SBC   H01783381   8.495   9.658   9.580
  119SBC   C0FM83382   8.438   9.608   9.789
  119SBC   C0FH83383   8.532   9.616   9.902
  119SBC   C0FI83384   8.447   9.626  10.013
  119SBC   C0F383385   8.489   9.690  10.134
  119SBC   C0F283386   8.384   9.744  10.205
  119SBC   C0DW83387   8.260   9.772  10.150
  119SBC   C0FE83388   8.227   9.720  10.027
  119SBC   C0DV83389   8.179   9.870  10.208
  119SBC   C0DX83390   8.056   9.897  10.146
  119SBC   C0DK83391   7.980   9.998  10.203
  119SBC   C0DJ83392   8.020  10.065  10.316
  119SBC   C0DI83393   7.937  10.160  10.378
  119SBC   C0DH83394   7.808  10.179  10.328
  119SBC   C0DG83395   7.773  10.121  10.211
  119SBC   C0BV83396   7.651  10.148  10.156
  119SBC   C0BC83397   7.623  10.100  10.031
  119SBC   C0BA83398   7.556  10.222  10.229
  119SBC   C0B483399   7.433  10.249  10.173
  119SBC   C0B383400   7.404  10.212  10.041
  119SBC   C0B583401   7.346  10.335  10.237
  119SBC   C0BU83402   7.376  10.371  10.367
  119SBC   C0BT83403   7.505  10.355  10.421
  119SBC   C0BS83404   7.541  10.410  10.547
  119SBC   C0CC83405   7.671  10.408  10.587
  119SBC   C0CB83406   7.716  10.490  10.688
  119SBC   C0CH83407   7.856  10.528  10.677
  119SBC   C0DO83408   7.956  10.439  10.620
  119SBC   C0DP83409   8.091  10.431  10.653
  119SBC   C0EA83410   8.156  10.535  10.734
  119SBC   H01283411   8.092  10.616  10.763
  119SBC   O00983412   8.283  10.528  10.778
  119SBC   C0EH83413   8.358  10.426  10.726
  119SBC   C0EG83414   8.490  10.430  10.757
  119SBC   C0EJ83415   8.568  10.518  10.840
  119SBC   H01083416   8.525  10.591  10.906
  119SBC   C0EK83417   8.707  10.485  10.812
  119SBC   H00Z83418   8.791  10.531  10.862
  119SBC   C0EL83419   8.703  10.374  10.727
  119SBC   C0EM83420   8.808  10.285  10.681
  119SBC   C0EW83421   8.943  10.288  10.716
  119SBC   H01383422   8.974  10.351  10.798
  119SBC   C0EX83423   9.046  10.204  10.651
  119SBC   H01483424   9.149  10.206  10.682
  119SBC   C0F183425   8.994  10.112  10.548
  119SBC   C0EU83426   8.857  10.103  10.527
  119SBC   C0ET83427   8.791  10.009  10.441
  119SBC   C0ES83428   8.651  10.051  10.451
  119SBC   C0EE83429   8.636  10.159  10.543
  119SBC   C0ED83430   8.535  10.235  10.611
  119SBC   C0EC83431   8.395  10.224  10.588
  119SBC   C0EB83432   8.335  10.127  10.503
  119SBC   C0EN83433   8.414  10.006  10.449
  119SBC   C0ER83434   8.343   9.913  10.374
  119SBC   C0DS83435   8.199  10.136  10.466
  119SBC   C0DR83436   8.118  10.237  10.517
  119SBC   C0EY83437   8.552   9.960  10.434
  119SBC   C0EZ83438   8.564   9.850  10.344
  119SBC   C0F583439   8.673   9.790  10.265
  119SBC   C0F683440   8.811   9.813  10.289
  119SBC   N00883441   8.896   9.742  10.198
  119SBC   C0F783442   8.848   9.674  10.082
  119SBC   C0FQ83443   8.950   9.597  10.013
  119SBC   H01883444   8.920   9.542   9.926
  119SBC   C0FP83445   9.085   9.597  10.047
  119SBC   H01983446   9.159   9.542   9.990
  119SBC   C0FO83447   9.128   9.671  10.157
  119SBC   H01A83448   9.233   9.679  10.182
  119SBC   C0F883449   8.713   9.685  10.051
  119SBC   C0F983450   9.031   9.745  10.233
  119SBC   C0FA83451   9.090   9.830  10.328
  119SBC   H01583452   9.196   9.826  10.345
  119SBC   C0FB83453   9.008   9.915  10.396
  119SBC   C0FD83454   8.871   9.906  10.373
  119SBC   C0FC83455   9.074  10.014  10.485
  119SBC   O00A83456   9.196  10.009  10.505
  119SBC   C0EV83457   8.767  10.186  10.589
  119SBC   C0EF83458   8.573  10.339  10.698
  119SBC   C0EI83459   8.309  10.322  10.637
  119SBC   C0DQ83460   8.176  10.330  10.602
  119SBC   C0CE83461   7.901  10.338  10.537
  119SBC   H00U83462   7.884  10.600  10.753
  119SBC   C0CA83463   7.630  10.522  10.794
  119SBC   C0C983464   7.482  10.516  10.764
  119SBC   C0C883465   7.388  10.542  10.871
  119SBC   C0C783466   7.252  10.587  10.878
  119SBC   C0C683467   7.197  10.599  11.006
  119SBC   C0C583468   7.095  10.679  11.068
  119SBC   C0CQ83469   7.105  10.696  11.207
  119SBC   C0D183470   7.232  10.687  11.257
  119SBC   C0D883471   7.269  10.794  11.340
  119SBC   C0D783472   7.146  10.866  11.363
  119SBC   C0D683473   7.119  10.981  11.439
  119SBC   C0D583474   6.986  11.033  11.458
  119SBC   C0D483475   6.864  10.997  11.413
  119SBC   C0D383476   6.782  11.109  11.429
  119SBC   C0CX83477   6.672  11.100  11.329
  119SBC   C0CW83478   6.725  11.006  11.229
  119SBC   C0CV83479   6.678  10.952  11.097
  119SBC   C0D283480   6.557  11.004  11.044
  119SBC   C09D83481   6.455  11.082  11.107
  119SBC   C09C83482   6.337  11.129  11.044
  119SBC   C09B83483   6.224  11.185  11.110
  119SBC   C09A83484   6.235  11.214  11.252
  119SBC   C09983485   6.351  11.193  11.308
  119SBC   C09883486   6.335  11.182  11.446
  119SBC   C08Y83487   6.195  11.166  11.473
  119SBC   C08X83488   6.124  11.114  11.583
  119SBC   C08W83489   6.197  11.063  11.696
  119SBC   C08U83490   6.346  11.047  11.713
  119SBC   C08V83491   6.459  11.062  11.626
  119SBC   C0DC83492   6.574  11.014  11.696
  119SBC   H00W83493   6.670  11.027  11.649
  119SBC   C0DB83494   6.538  10.962  11.824
  119SBC   H00X83495   6.597  10.918  11.903
  119SBC   C08T83496   6.398  10.988  11.834
  119SBC   C08S83497   6.321  10.959  11.942
  119SBC   H00N83498   6.369  10.930  12.035
  119SBC   C08R83499   6.185  10.972  11.934
  119SBC   C08Q83500   6.096  10.934  12.040
  119SBC   H00O83501   6.149  10.899  12.127
  119SBC   C08P83502   5.954  10.933  12.042
  119SBC   C08O83503   5.867  10.879  12.142
  119SBC   H00P83504   5.906  10.848  12.237
  119SBC   C08N83505   5.724  10.863  12.129
  119SBC   C08M83506   5.642  10.812  12.239
  119SBC   O00883507   5.688  10.777  12.350
  119SBC   O00783508   5.508  10.805  12.213
  119SBC   C08H83509   5.453  10.832  12.093
  119SBC   C08G83510   5.313  10.821  12.071
  119SBC   C03V83511   5.209  10.784  12.155
  119SBC   H00983512   5.236  10.756  12.256
  119SBC   C03U83513   5.076  10.777  12.120
  119SBC   C03W83514   4.968  10.749  12.211
  119SBC   H00A83515   4.978  10.731  12.316
  119SBC   C03X83516   4.845  10.740  12.163
  119SBC   H00B83517   4.770  10.726  12.239
  119SBC   O00583518   4.808  10.751  12.031
  119SBC   C03O83519   4.910  10.781  11.946
  119SBC   C03N83520   4.879  10.797  11.811
  119SBC   O00083521   4.751  10.772  11.779
  119SBC   C01983522   4.707  10.795  11.651
  119SBC   C01883523   4.803  10.834  11.550
  119SBC   C01783524   4.935  10.850  11.584
  119SBC   C01683525   5.025  10.905  11.489
  119SBC   C01583526   4.974  10.920  11.361
  119SBC   C01483527   5.052  10.981  11.260
  119SBC   C01383528   5.190  11.003  11.286
  119SBC   C01283529   5.237  11.037  11.155
  119SBC   C01183530   5.124  11.046  11.069
  119SBC   C01083531   5.132  11.082  10.936
  119SBC   C00Z83532   5.039  11.058  10.843
  119SBC   C00Y83533   5.116  11.075  10.721
  119SBC   C01O83534   5.250  11.095  10.747
  119SBC   C01P83535   5.349  11.054  10.659
  119SBC   C02L83536   5.477  11.044  10.714
  119SBC   C02K83537   5.484  11.067  10.853
  119SBC   C01M83538   5.374  11.072  10.950
  119SBC   C02J83539   5.620  11.080  10.898
  119SBC   C02I83540   5.664  11.115  11.025
  119SBC   C02H83541   5.599  11.122  11.146
  119SBC   C01Q83542   5.464  11.090  11.179
  119SBC   C02G83543   5.456  11.091  11.320
  119SBC   C08983544   5.582  11.144  11.368
  119SBC   C08883545   5.611  11.087  11.492
  119SBC   C08783546   5.484  11.031  11.533
  119SBC   C08683547   5.459  10.970  11.659
  119SBC   C03S83548   5.328  10.928  11.715
  119SBC   N00683549   5.347  10.897  11.846
  119SBC   C08F83550   5.479  10.908  11.866
  119SBC   C01J83551   5.202  10.912  11.659
  119SBC   C03R83552   5.102  10.863  11.750
  119SBC   C03Q83553   5.136  10.834  11.888
  119SBC   C08E83554   5.550  10.963  11.766
  119SBC   C08D83555   5.692  10.990  11.779
  119SBC   C08K83556   5.754  10.960  11.904
  119SBC   C08C83557   5.781  11.048  11.680
  119SBC   C09183558   5.918  11.065  11.704
  119SBC   C09283559   5.983  11.019  11.818
  119SBC   C08B83560   5.746  11.100  11.553
  119SBC   C09083561   5.876  11.142  11.495
  119SBC   C09483562   5.894  11.199  11.364
  119SBC   C09583563   6.017  11.199  11.294
  119SBC   C09R83564   5.999  11.194  11.161
  119SBC   C09783565   5.866  11.169  11.137
  119SBC   C09683566   5.804  11.181  11.256
  119SBC   C01I83567   5.385  11.037  11.425
  119SBC   C08A83568   5.666  11.158  11.260
  119SBC   C09L83569   5.796  11.135  11.019
  119SBC   C09K83570   5.839  11.112  10.886
  119SBC   C09J83571   5.968  11.135  10.832
  119SBC   C09I83572   6.016  11.060  10.718
  119SBC   C09O83573   5.962  10.985  10.609
  119SBC   C09N83574   5.821  10.970  10.589
  119SBC   C09M83575   5.716  11.016  10.676
  119SBC   C06O83576   5.784  10.908  10.465
  119SBC   C05M83577   5.878  10.860  10.374
  119SBC   C06P83578   6.017  10.866  10.409
  119SBC   C04283579   5.842  10.786  10.263
  119SBC   C04183580   5.708  10.777  10.230
  119SBC   C04083581   5.669  10.715  10.110
  119SBC   C03Z83582   5.534  10.697  10.078
  119SBC   C03Y83583   5.439  10.758  10.156
  119SBC   C02783584   5.304  10.753  10.113
  119SBC   C02683585   5.206  10.804  10.198
  119SBC   C02883586   5.074  10.774  10.175
  119SBC   C02983587   5.035  10.697  10.067
  119SBC   C02B83588   4.904  10.673  10.042
  119SBC   C02C83589   4.866  10.592   9.939
  119SBC   C02X83590   4.733  10.568   9.913
  119SBC   C03E83591   4.703  10.480   9.811
  119SBC   C03G83592   4.796  10.409   9.733
  119SBC   C04Q83593   4.925  10.440   9.754
  119SBC   C04R83594   5.022  10.383   9.678
  119SBC   C04S83595   5.155  10.408   9.699
  119SBC   C04L83596   5.193  10.497   9.795
  119SBC   C04M83597   5.097  10.557   9.875
  119SBC   C04K83598   5.325  10.514   9.826
  119SBC   C04F83599   5.422  10.459   9.744
  119SBC   C04E83600   5.383  10.376   9.641
  119SBC   C04D83601   5.486  10.319   9.564
  119SBC   C05083602   5.450  10.230   9.463
  119SBC   C05183603   5.549  10.167   9.389
  119SBC   C05Q83604   5.513  10.085   9.284
  119SBC   C05V83605   5.616  10.022   9.214
  119SBC   N00583606   5.582   9.932   9.115
  119SBC   C07V83607   5.446   9.908   9.096
  119SBC   C08283608   5.413   9.827   8.984
  119SBC   C08183609   5.502   9.759   8.907
  119SBC   C07C83610   5.637   9.782   8.931
  119SBC   C07B83611   5.730   9.717   8.853
  119SBC   C08083612   5.691   9.637   8.744
  119SBC   C07Z83613   5.791   9.590   8.656
  119SBC   H00L83614   5.755   9.534   8.571
  119SBC   C07983615   5.927   9.608   8.681
  119SBC   C07883616   5.963   9.682   8.793
  119SBC   C07783617   6.100   9.712   8.819
  119SBC   C07X83618   6.201   9.644   8.747
  119SBC   H00I83619   6.305   9.648   8.776
  119SBC   C07Y83620   6.166   9.572   8.638
  119SBC   H00H83621   6.239   9.522   8.576
  119SBC   C07683622   6.136   9.799   8.919
  119SBC   C06C83623   6.270   9.854   8.921
  119SBC   H00C83624   6.338   9.839   8.839
  119SBC   C06F83625   6.041   9.865   8.997
  119SBC   C06E83626   6.072   9.958   9.095
  119SBC   C06G83627   5.986  10.020   9.182
  119SBC   C06H83628   5.847   9.989   9.156
  119SBC   C06I83629   5.812   9.896   9.057
  119SBC   C06L83630   6.035  10.119   9.273
  119SBC   C06M83631   6.176  10.153   9.293
  119SBC   C06K83632   5.931  10.176   9.351
  119SBC   C05S83633   5.792  10.142   9.332
  119SBC   C05U83634   5.964  10.263   9.456
  119SBC   C05X83635   6.107  10.299   9.477
  119SBC   C05G83636   6.117  10.382   9.599
  119SBC   C05F83637   6.004  10.418   9.670
  119SBC   C05E83638   6.043  10.485   9.786
  119SBC   C04883639   5.947  10.545   9.868
  119SBC   C05683640   5.994  10.612   9.982
  119SBC   C04583641   5.900  10.668  10.064
  119SBC   C04783642   5.817  10.526   9.836
  119SBC   C04983643   5.782  10.447   9.725
  119SBC   C04B83644   5.653  10.425   9.697
  119SBC   C04683645   5.722  10.580   9.920
  119SBC   C04H83646   5.591  10.560   9.889
  119SBC   C05D83647   6.178  10.498   9.797
  119SBC   C04A83648   5.875  10.388   9.646
  119SBC   C05T83649   5.856  10.308   9.537
  119SBC   C05583650   5.724  10.288   9.507
  119SBC   C06D83651   6.209  10.000   9.105
  119SBC   C07W83652   5.910   9.827   8.980
  119SBC   C08583653   6.033   9.555   8.606
  119SBC   H00M83654   6.008   9.487   8.526
  119SBC   C08483655   5.552   9.599   8.733
  119SBC   H00J83656   5.518   9.526   8.662
  119SBC   C07A83657   5.865   9.743   8.872
  119SBC   C08383658   5.465   9.669   8.813
  119SBC   H00K83659   5.361   9.657   8.784
  119SBC   O00K83660   5.280   9.807   8.953
  119SBC   C0GO83661   5.182   9.853   9.032
  119SBC   C0GN83662   5.053   9.805   9.018
  119SBC   H01L83663   5.035   9.728   8.945
  119SBC   C0GM83664   4.949   9.849   9.115
  119SBC   C0GL83665   4.830   9.788   9.116
  119SBC   H01M83666   4.817   9.703   9.051
  119SBC   O00J83667   4.727   9.829   9.192
  119SBC   C0GK83668   4.755   9.942   9.270
  119SBC   H01N83669   4.666   9.976   9.322
  119SBC   C05K83670   4.882   9.994   9.283
  119SBC   C05J83671   4.910  10.099   9.379
  119SBC   C04Y83672   4.809  10.162   9.461
  119SBC   C04X83673   4.845  10.259   9.552
  119SBC   O00683674   4.674  10.143   9.448
  119SBC   C05383675   4.577  10.181   9.535
  119SBC   C04O83676   4.616  10.277   9.630
  119SBC   C03C83677   4.525  10.344   9.723
  119SBC   C03B83678   4.391  10.327   9.766
  119SBC   C05483679   4.316  10.215   9.731
  119SBC   C0GR83680   4.190  10.176   9.789
  119SBC   C03M83681   4.109  10.222   9.907
  119SBC   C03I83682   4.149  10.331  10.000
  119SBC   C03J83683   4.058  10.362  10.104
  119SBC   N00283684   4.095  10.446  10.216
  119SBC   C02U83685   4.001  10.473  10.319
  119SBC   C02T83686   4.034  10.552  10.425
  119SBC   C02Z83687   3.951  10.576  10.529
  119SBC   N00183688   3.986  10.659  10.639
  119SBC   C02R83689   3.892  10.686  10.742
  119SBC   C03283690   3.763  10.632  10.733
  119SBC   C03183691   3.723  10.560  10.615
  119SBC   H00783692   3.620  10.526  10.612
  119SBC   C03383693   3.676  10.675  10.840
  119SBC   H00383694   3.573  10.644  10.831
  119SBC   O00483695   3.712  10.752  10.943
  119SBC   C03483696   3.835  10.804  10.947
  119SBC   C03583697   3.863  10.897  11.050
  119SBC   C03683698   3.990  10.963  11.045
  119SBC   H00583699   4.015  11.021  11.133
  119SBC   C03783700   4.088  10.927  10.956
  119SBC   H00683701   4.186  10.967  10.973
  119SBC   C00D83702   4.062  10.831  10.856
  119SBC   C00C83703   4.156  10.789  10.762
  119SBC   C00B83704   4.307  10.820  10.776
  119SBC   C00A83705   4.407  10.892  10.862
  119SBC   C00983706   4.513  10.921  10.770
  119SBC   C00883707   4.649  10.956  10.792
  119SBC   C00783708   4.691  10.957  10.925
  119SBC   C00683709   4.827  10.976  10.951
  119SBC   C00583710   4.873  10.960  11.084
  119SBC   C00483711   4.788  10.917  11.190
  119SBC   C00383712   4.651  10.892  11.157
  119SBC   C00283713   4.573  10.832  11.254
  119SBC   C01C83714   4.620  10.828  11.387
  119SBC   C01B83715   4.527  10.806  11.493
  119SBC   H00083716   4.421  10.808  11.471
  119SBC   C00183717   4.451  10.779  11.218
  119SBC   C00083718   4.406  10.789  11.089
  119SBC   C01U83719   4.296  10.704  11.086
  119SBC   H00283720   4.239  10.684  10.996
  119SBC   C01T83721   4.260  10.653  11.221
  119SBC   O00283722   4.171  10.576  11.256
  119SBC   O00183723   4.371  10.702  11.297
  119SBC   C01S83724   4.606  10.905  11.026
  119SBC   C00N83725   4.737  10.947  10.681
  119SBC   C00M83726   4.696  10.904  10.560
  119SBC   C00J83727   4.573  10.862  10.542
  119SBC   C00I83728   4.528  10.791  10.432
  119SBC   C00H83729   4.403  10.732  10.425
  119SBC   C00G83730   4.315  10.737  10.529
  119SBC   C00F83731   4.194  10.687  10.536
  119SBC   C01X83732   4.363  10.665  10.316
  119SBC   C01W83733   4.451  10.645  10.213
  119SBC   C01V83734   4.582  10.700  10.216
  119SBC   C02083735   4.676  10.673  10.116
  119SBC   C01Z83736   4.416  10.564  10.107
  119SBC   C02Y83737   4.508  10.551  10.005
  119SBC   C03983738   4.480  10.466   9.903
  119SBC   C02W83739   4.302  10.490  10.106
  119SBC   C01Y83740   4.246  10.593  10.323
  119SBC   C00U83741   4.622  10.775  10.330
  119SBC   C00S83742   4.749  10.815  10.340
  119SBC   C00T83743   4.842  10.792  10.241
  119SBC   C00R83744   4.787  10.881  10.459
  119SBC   C00Q83745   4.918  10.924  10.471
  119SBC   C00V83746   5.011  10.897  10.374
  119SBC   C02483747   5.144  10.927  10.398
  119SBC   C00X83748   5.185  10.991  10.509
  119SBC   C00P83749   4.954  10.976  10.594
  119SBC   C00O83750   4.871  10.977  10.702
  119SBC   C00K83751   4.483  10.869  10.648
  119SBC   N00083752   4.475  10.851  10.983
  119SBC   C00L83753   4.364  10.804  10.647
  119SBC   H00483754   3.793  10.927  11.127
  119SBC   C02Q83755   3.932  10.778  10.843
  119SBC   C00E83756   4.113  10.715  10.646
  119SBC   C03083757   3.819  10.531  10.519
  119SBC   O00383758   3.780  10.449  10.414
  119SBC   C02S83759   4.155  10.611  10.423
  119SBC   C03883760   3.871  10.421  10.311
  119SBC   C03L83761   3.842  10.329  10.209
  119SBC   H00883762   3.744  10.285  10.203
  119SBC   C02V83763   4.218  10.505  10.215
  119SBC   C03K83764   3.931  10.296  10.108
  119SBC   C0BK83765   3.901  10.195  10.024
  119SBC   H00T83766   3.805  10.150  10.045
  119SBC   C03H83767   4.270  10.403  10.000
  119SBC   C0BL83768   3.983  10.152   9.921
  119SBC   C0GU83769   3.938  10.047   9.835
  119SBC   H01O83770   3.845   9.998   9.859
  119SBC   C0GT83771   4.021  10.006   9.728
  119SBC   H01P83772   4.011   9.915   9.670
  119SBC   C0GS83773   4.141  10.070   9.708
  119SBC   C0GV83774   4.227  10.048   9.597
  119SBC   C0GW83775   4.223   9.958   9.485
  119SBC   H01Q83776   4.138   9.893   9.475
  119SBC   C0GX83777   4.328   9.963   9.403
  119SBC   H01R83778   4.336   9.896   9.319
  119SBC   O00L83779   4.440  10.040   9.416
  119SBC   C0GQ83780   4.340  10.137   9.616
  119SBC   C03A83781   4.364  10.394   9.890
  119SBC   C05L83782   4.450  10.120   9.526
  119SBC   C04W83783   5.044  10.137   9.395
  119SBC   C05I83784   5.145  10.078   9.323
  119SBC   C05O83785   5.112   9.989   9.222
  119SBC   C05283786   5.277  10.101   9.351
  119SBC   C04V83787   5.081  10.234   9.489
  119SBC   C04U83788   5.216  10.264   9.516
  119SBC   N00983789   4.982   9.951   9.200
  119SBC   C0GP83790   5.213   9.939   9.143
  119SBC   C05W83791   5.344   9.961   9.172
  119SBC   C07D83792   5.680   9.870   9.027
  119SBC   C06J83793   5.752  10.050   9.233
  119SBC   C05P83794   5.378  10.047   9.268
  119SBC   C05R83795   5.687  10.199   9.406
  119SBC   C04Z83796   5.316  10.192   9.449
  119SBC   C04C83797   5.623  10.342   9.588
  119SBC   C04G83798   5.553  10.481   9.777
  119SBC   C04J83799   5.361  10.599   9.937
  119SBC   C04T83800   5.250  10.350   9.621
  119SBC   N00383801   4.985  10.295   9.573
  119SBC   C04P83802   4.750  10.316   9.631
  119SBC   C03D83803   4.570  10.439   9.807
  119SBC   C02183804   4.641  10.599  10.010
  119SBC   C03F83805   4.961  10.529   9.855
  119SBC   C02283806   4.809  10.714  10.133
  119SBC   C02A83807   5.132  10.641   9.981
  119SBC   C02383808   4.979  10.825  10.261
  119SBC   C02583809   5.246  10.876  10.312
  119SBC   C02D83810   5.384  10.895  10.343
  119SBC   C02E83811   5.419  10.964  10.454
  119SBC   C02N83812   5.555  10.960  10.507
  119SBC   C04N83813   5.263  10.670  10.005
  119SBC   C02P83814   5.480  10.836  10.265
  119SBC   C04I83815   5.494  10.617   9.969
  119SBC   C04483816   5.763  10.656  10.030
  119SBC   C04383817   5.613  10.846  10.309
  119SBC   C05N83818   5.650  10.903  10.430
  119SBC   C09U83819   6.059  10.931  10.523
  119SBC   C09V83820   6.198  10.923  10.550
  119SBC   C09X83821   6.248  10.980  10.668
  119SBC   C09Y83822   6.375  10.964  10.722
  119SBC   C0A183823   6.455  10.880  10.653
  119SBC   C0A283824   6.417  10.832  10.526
  119SBC   C0A483825   6.505  10.755  10.453
  119SBC   C07183826   6.469  10.707  10.331
  119SBC   C0A583827   6.558  10.632  10.259
  119SBC   C0A983828   6.683  10.612  10.307
  119SBC   C0A883829   6.721  10.663  10.424
  119SBC   C0AP83830   6.846  10.636  10.472
  119SBC   C0BY83831   6.874  10.677  10.602
  119SBC   C0BX83832   6.793  10.749  10.684
  119SBC   C0C283833   6.829  10.779  10.814
  119SBC   C0C383834   6.739  10.848  10.893
  119SBC   C0CT83835   6.616  10.888  10.837
  119SBC   C0C183836   6.955  10.732  10.864
  119SBC   C0C083837   7.051  10.679  10.772
  119SBC   C0A783838   6.666  10.774  10.634
  119SBC   C0BZ83839   7.004  10.657  10.644
  119SBC   C0BO83840   7.100  10.599  10.561
  119SBC   C0BN83841   7.073  10.556  10.433
  119SBC   C0BM83842   7.167  10.482  10.374
  119SBC   C0B983843   7.132  10.439  10.246
  119SBC   C0B883844   7.005  10.469  10.197
  119SBC   C0AD83845   6.907  10.533  10.272
  119SBC   C0AF83846   6.972  10.423  10.071
  119SBC   C0AG83847   7.062  10.350   9.994
  119SBC   C0B783848   7.189  10.320  10.045
  119SBC   C0AE83849   6.844  10.447  10.030
  119SBC   C0AB83850   6.746  10.510  10.102
  119SBC   C0AA83851   6.619  10.524  10.050
  119SBC   C0AJ83852   6.815  10.402   9.902
  119SBC   C0AK83853   6.691  10.434   9.849
  119SBC   C06W83854   6.696  10.397   9.723
  119SBC   C0AI83855   6.901  10.339   9.808
  119SBC   C0BP83856   7.213  10.568  10.638
  119SBC   C0BQ83857   7.316  10.489  10.570
  119SBC   C0BW83858   6.944  10.578  10.396
  119SBC   C0AC83859   6.780  10.551  10.225
  119SBC   C0A683860   6.630  10.735  10.503
  119SBC   C0A383861   6.577  10.845  10.707
  119SBC   C09Z83862   6.412  11.018  10.847
  119SBC   C09W83863   6.289  10.855  10.477
  119SBC   C07283864   6.247  10.791  10.362
  119SBC   C09H83865   6.159  11.061  10.731
  119SBC   C09G83866   6.196  11.121  10.846
  119SBC   C09P83867   6.083  11.159  10.917
  119SBC   C02O83868   5.729  11.071  10.808
  119SBC   C02M83869   5.583  11.006  10.637
  119SBC   C02F83870   5.317  11.013  10.535
  119SBC   C00W83871   5.082  11.012  10.604
  119SBC   C01R83872   4.908  10.996  10.836
  119SBC   C01N83873   5.260  11.095  10.879
  119SBC   C01L83874   5.363  11.057  11.094
  119SBC   C01H83875   5.251  10.988  11.420
  119SBC   C01K83876   5.012  10.993  11.126
  119SBC   C01E83877   4.837  10.895  11.323
  119SBC   C01G83878   5.162  10.934  11.523
  119SBC   C01D83879   4.755  10.852  11.416
  119SBC   C01A83880   4.573  10.782  11.623
  119SBC   H00183881   4.503  10.772  11.706
  119SBC   C01F83882   4.976  10.835  11.715
  119SBC   C03P83883   5.044  10.796  11.987
  119SBC   C03T83884   5.263  10.845  11.938
  119SBC   C08I83885   5.533  10.877  11.987
  119SBC   C08J83886   5.671  10.901  12.008
  119SBC   C08L83887   5.895  10.974  11.920
  119SBC   C09383888   6.126  11.019  11.816
  119SBC   C08Z83889   5.981  11.105  11.588
  119SBC   C09T83890   6.449  11.112  11.489
  119SBC   C09S83891   6.141  11.199  11.347
  119SBC   C09Q83892   6.098  11.187  11.059
  119SBC   C09F83893   6.318  11.091  10.915
  119SBC   C09E83894   6.451  11.122  11.243
  119SBC   C0A083895   6.528  10.970  10.910
  119SBC   C0CU83896   6.775  10.875  11.022
  119SBC   C0CR83897   6.897  10.826  11.078
  119SBC   C0CZ83898   6.932  10.859  11.214
  119SBC   C0DA83899   6.529  11.097  11.361
  119SBC   C0D983900   6.862  11.226  11.463
  119SBC   H00V83901   6.845  11.330  11.440
  119SBC   C0CY83902   6.843  10.951  11.283
  119SBC   C0DF83903   6.996  11.169  11.484
  119SBC   C0DE83904   7.139  11.202  11.495
  119SBC   C0GI83905   7.206  11.322  11.518
  119SBC   H01K83906   7.160  11.419  11.534
  119SBC   C0GJ83907   7.338  11.313  11.522
  119SBC   H01J83908   7.389  11.405  11.544
  119SBC   O00I83909   7.420  11.197  11.490
  119SBC   C0GH83910   7.357  11.077  11.462
  119SBC   C0GG83911   7.437  10.965  11.427
  119SBC   O00G83912   7.563  10.978  11.462
  119SBC   C0G883913   7.658  10.900  11.407
  119SBC   C0G983914   7.787  10.919  11.463
  119SBC   H01G83915   7.807  10.999  11.534
  119SBC   C0GA83916   7.887  10.828  11.433
  119SBC   H01H83917   7.981  10.835  11.487
  119SBC   C0GB83918   7.873  10.736  11.331
  119SBC   C0EP83919   7.747  10.731  11.265
  119SBC   C0E883920   7.742  10.662  11.137
  119SBC   C0CK83921   7.644  10.632  11.035
  119SBC   C0CL83922   7.514  10.604  11.078
  119SBC   C0E983923   7.458  10.664  11.201
  119SBC   C0GE83924   7.499  10.766  11.298
  119SBC   C0E783925   7.848  10.579  11.089
  119SBC   C0CJ83926   7.825  10.511  10.969
  119SBC   C0E683927   7.926  10.422  10.930
  119SBC   H00Y83928   7.910  10.354  10.848
  119SBC   C0EO83929   8.046  10.427  11.005
  119SBC   H01183930   8.128  10.374  10.957
  119SBC   C0G683931   8.063  10.485  11.131
  119SBC   C0G583932   8.174  10.466  11.231
  119SBC   H01F83933   8.261  10.403  11.219
  119SBC   C0GD83934   8.169  10.529  11.348
  119SBC   H01I83935   8.248  10.512  11.420
  119SBC   O00H83936   8.082  10.631  11.377
  119SBC   C0EQ83937   7.962  10.574  11.172
  119SBC   C0GC83938   7.978  10.649  11.291
  119SBC   C0G783939   7.634  10.796  11.317
  119SBC   C0DD83940   7.215  11.080  11.470
  119SBC   C0GF83941   7.400  10.841  11.365
  119SBC   C0CO83942   7.328  10.614  11.195
  119SBC   C0D083943   7.061  10.820  11.260
  119SBC   C0C483944   6.985  10.743  11.001
  119SBC   C0CN83945   7.296  10.533  11.085
  119SBC   C0CP83946   7.188  10.628  10.765
  119SBC   C0CM83947   7.414  10.517  11.011
  119SBC   C0CI83948   7.694  10.554  10.921
  119SBC   C0CD83949   7.767  10.339  10.506
  119SBC   C0BR83950   7.447  10.476  10.631
  119SBC   C0CS83951   7.285  10.451  10.437
  119SBC   C0B683952   7.223  10.369  10.173
  119SBC   C0CG83953   7.595  10.275  10.348
  119SBC   C0CF83954   7.725  10.261  10.402
  119SBC   C0E583955   7.984  10.246  10.476
  119SBC   C0DT83956   8.149  10.051  10.369
  119SBC   C0DL83957   7.858  10.031  10.143
  119SBC   C0DM83958   7.825   9.978  10.020
  119SBC   C0DY83959   8.025   9.842  10.020
  119SBC   C0DU83960   8.220   9.944  10.317
  119SBC   C0F083961   8.430   9.830  10.306
  119SBC   C0F483962   8.623   9.715  10.153
  119SBC   C0FG83963   8.315   9.625   9.971
  119SBC   O00B83964   8.667   9.647   9.926
  119SBC   C0FN83965   8.310   9.587   9.840
  119SBC   C0DZ83966   8.114   9.757   9.952
  119SBC   O00C83967   7.970   9.775   9.612
  119SBC   C0FR83968   7.866   9.816   9.536
  119SBC   O00D83969   7.869   9.781   9.419
  119SBC   C0E083970   7.913   9.892   9.955
  119SBC   C0E383971   7.764   9.890   9.611
  119SBC   C0AW83972   7.644   9.941   9.554
  119SBC   C0AV83973   7.616   9.936   9.412
  119SBC   H00Q83974   7.698   9.913   9.346
  119SBC   C0AU83975   7.486   9.971   9.357
  119SBC   H00R83976   7.469   9.976   9.250
  119SBC   C0AT83977   7.392  10.017   9.444
  119SBC   C0AS83978   7.258  10.081   9.441
  119SBC   C0AR83979   7.194  10.107   9.321
  119SBC   C0BE83980   7.429  10.029   9.581
  119SBC   C0DN83981   7.708  10.013   9.962
  119SBC   C0AX83982   7.552  10.001   9.634
  119SBC   C0BB83983   7.500  10.134   9.974
  119SBC   C0BD83984   7.330  10.088   9.653
  119SBC   C0B283985   7.285  10.243   9.977
  119SBC   C0AH83986   7.032  10.304   9.859
  119SBC   C0BF83987   7.215  10.129   9.579
  119SBC   C0AL83988   6.820  10.326   9.696
  119SBC   C07U83989   6.955  10.149   9.417
  119SBC   C0AQ83990   7.051  10.103   9.323
  119SBC   C0BG83991   7.233  10.056   9.189
  119SBC   C0FY83992   7.037  10.069   8.901
  119SBC   C0BJ83993   7.325  10.109   9.089
  119SBC   H00S83994   7.418  10.156   9.117
  119SBC   C0FZ83995   7.105  10.134   8.797
  119SBC   C07S83996   6.899  10.079   8.917
  119SBC   C0G183997   6.843  10.155   8.555
  119SBC   C07K83998   6.489  10.092   8.652
  119SBC   C07H83999   6.613  10.093   8.920
  119SBC   C06B84000   6.299   9.955   9.009
  119SBC   C06N84001   6.258  10.096   9.190
  119SBC   C06684002   6.645  10.121   9.184
  119SBC   C06284003   6.597  10.267   9.454
  119SBC   C05Y84004   6.216  10.245   9.397
  119SBC   C06184005   6.549  10.383   9.517
  119SBC   C05H84006   6.231  10.432   9.680
  119SBC   C06V84007   6.577  10.409   9.656
  119SBC   C06Y84008   6.589  10.491   9.925
  119SBC   C05C84009   6.224  10.565   9.921
  119SBC   C06Z84010   6.525  10.587  10.129
  119SBC   C07084011   6.341  10.721  10.288
  119SBC   C05B84012   6.127  10.616  10.009
  119SBC   C05784013   5.938  10.730  10.179
  119SBC   C05984014   6.111  10.794  10.329
  120SBC   C05884015   5.221   2.538  11.246
  120SBC   C05A84016   5.145   2.417  11.254
  120SBC   C06Q84017   5.006   2.421  11.252
  120SBC   C06R84018   4.927   2.302  11.248
  120SBC   C06S84019   4.989   2.175  11.247
  120SBC   C06T84020   4.901   2.065  11.243
  120SBC   C06U84021   4.934   1.926  11.227
  120SBC   C06X84022   5.058   1.846  11.219
  120SBC   C06084023   5.032   1.705  11.235
  120SBC   C05Z84024   5.094   1.584  11.176
  120SBC   C06884025   4.975   1.494  11.149
  120SBC   C06784026   4.970   1.354  11.125
  120SBC   C06984027   5.089   1.272  11.147
  120SBC   C06A84028   5.096   1.126  11.179
  120SBC   C07384029   5.002   1.025  11.204
  120SBC   C07P84030   5.031   0.929  11.307
  120SBC   C07O84031   5.122   0.946  11.415
  120SBC   H00D84032   5.172   1.039  11.441
  120SBC   C07N84033   5.169   0.845  11.497
  120SBC   H00E84034   5.244   0.863  11.573
  120SBC   C07M84035   5.113   0.718  11.471
  120SBC   H00F84036   5.150   0.631  11.523
  120SBC   C07L84037   5.024   0.694  11.368
  120SBC   C07Q84038   4.967   0.567  11.330
  120SBC   H00G84039   5.001   0.482  11.388
  120SBC   O00F84040   4.863   0.542  11.241
  120SBC   C07J84041   4.825   0.650  11.170
  120SBC   C07I84042   4.875   0.784  11.195
  120SBC   N00484043   4.831   0.889  11.116
  120SBC   C07R84044   4.728   0.865  11.015
  120SBC   C07T84045   4.670   0.735  11.005
  120SBC   C0FX84046   4.549   0.717  10.938
  120SBC   C0FW84047   4.475   0.602  10.938
  120SBC   C0G084048   4.531   0.496  11.012
  120SBC   C0G284049   4.457   0.373  11.023
  120SBC   H01E84050   4.494   0.287  11.077
  120SBC   C0G384051   4.329   0.357  10.963
  120SBC   H01C84052   4.279   0.263  10.982
  120SBC   C0G484053   4.274   0.470  10.899
  120SBC   H01D84054   4.172   0.463  10.865
  120SBC   O00E84055   4.658   0.503  11.069
  120SBC   C0FV84056   4.342   0.594  10.882
  120SBC   C0FU84057   4.282   0.718  10.840
  120SBC   H01B84058   4.177   0.717  10.814
  120SBC   C0FT84059   4.366   0.827  10.815
  120SBC   C0FS84060   4.353   0.963  10.768
  120SBC   C0BI84061   4.483   1.023  10.769
  120SBC   C0BH84062   4.464   1.165  10.801
  120SBC   C07F84063   4.547   1.244  10.890
  120SBC   C07E84064   4.675   1.223  10.941
  120SBC   C07G84065   4.729   1.098  10.974
  120SBC   C07484066   4.841   1.123  11.049
  120SBC   C06584067   4.741   1.318  11.014
  120SBC   C06484068   4.667   1.434  11.055
  120SBC   C06384069   4.707   1.547  11.123
  120SBC   C07584070   4.585   1.628  11.145
  120SBC   C0AM84071   4.467   1.561  11.092
  120SBC   C0AN84072   4.323   1.610  11.086
  120SBC   C0AO84073   4.270   1.737  11.120
  120SBC   C0B184074   4.132   1.760  11.113
  120SBC   C0B084075   4.037   1.656  11.095
  120SBC   C0AZ84076   3.902   1.670  11.094
  120SBC   C0AY84077   3.818   1.555  11.095
  120SBC   N00784078   3.683   1.563  11.114
  120SBC   C0E284079   3.602   1.444  11.131
  120SBC   C0E184080   3.478   1.465  11.180
  120SBC   C0E484081   3.400   1.349  11.207
  120SBC   C0FF84082   3.276   1.366  11.275
  120SBC   C0FJ84083   3.170   1.274  11.326
  120SBC   C0FK84084   3.124   1.154  11.263
  120SBC   H01684085   3.169   1.089  11.189
  120SBC   C0FL84086   2.984   1.130  11.320
  120SBC   H01784087   2.916   1.048  11.304
  120SBC   C0FM84088   2.961   1.240  11.413
  120SBC   C0FH84089   2.859   1.324  11.474
  120SBC   C0FI84090   2.930   1.441  11.513
  120SBC   C0F384091   2.863   1.567  11.509
  120SBC   C0F284092   2.953   1.669  11.476
  120SBC   C0DW84093   3.081   1.653  11.413
  120SBC   C0FE84094   3.138   1.533  11.407
  120SBC   C0DV84095   3.136   1.756  11.340
  120SBC   C0DX84096   3.252   1.732  11.267
  120SBC   C0DK84097   3.314   1.841  11.209
  120SBC   C0DJ84098   3.253   1.965  11.207
  120SBC   C0DI84099   3.327   2.077  11.161
  120SBC   C0DH84100   3.457   2.066  11.124
  120SBC   C0DG84101   3.515   1.938  11.124
  120SBC   C0BV84102   3.653   1.927  11.102
  120SBC   C0BC84103   3.711   1.804  11.103
  120SBC   C0BA84104   3.730   2.042  11.092
  120SBC   C0B484105   3.873   2.029  11.104
  120SBC   C0B384106   3.931   1.905  11.107
  120SBC   C0B584107   3.947   2.142  11.115
  120SBC   C0BU84108   3.886   2.272  11.105
  120SBC   C0BT84109   3.746   2.285  11.089
  120SBC   C0BS84110   3.685   2.410  11.063
  120SBC   C0CC84111   3.547   2.419  11.063
  120SBC   C0CB84112   3.483   2.532  11.017
  120SBC   C0CH84113   3.341   2.538  11.034
  120SBC   C0DO84114   3.267   2.429  11.092
  120SBC   C0DP84115   3.128   2.431  11.111
  120SBC   C0EA84116   3.047   2.546  11.068
  120SBC   H01284117   3.094   2.629  11.016
  120SBC   O00984118   2.914   2.557  11.085
  120SBC   C0EH84119   2.848   2.449  11.138
  120SBC   C0EG84120   2.711   2.452  11.149
  120SBC   C0EJ84121   2.610   2.548  11.108
  120SBC   H01084122   2.640   2.636  11.054
  120SBC   C0EK84123   2.477   2.498  11.150
  120SBC   H00Z84124   2.384   2.554  11.147
  120SBC   C0EL84125   2.507   2.375  11.214
  120SBC   C0EM84126   2.416   2.283  11.274
  120SBC   C0EW84127   2.274   2.295  11.305
  120SBC   H01384128   2.210   2.374  11.268
  120SBC   C0EX84129   2.201   2.186  11.375
  120SBC   H01484130   2.095   2.189  11.398
  120SBC   C0F184131   2.274   2.070  11.415
  120SBC   C0EU84132   2.411   2.061  11.394
  120SBC   C0ET84133   2.495   1.953  11.420
  120SBC   C0ES84134   2.622   2.002  11.378
  120SBC   C0EE84135   2.615   2.134  11.327
  120SBC   C0ED84136   2.701   2.236  11.271
  120SBC   C0EC84137   2.845   2.222  11.247
  120SBC   C0EB84138   2.921   2.111  11.289
  120SBC   C0EN84139   2.865   2.001  11.363
  120SBC   C0ER84140   2.957   1.900  11.396
  120SBC   C0DS84141   3.055   2.104  11.254
  120SBC   C0DR84142   3.128   2.212  11.198
  120SBC   C0EY84143   2.741   1.948  11.410
  120SBC   C0EZ84144   2.749   1.817  11.458
  120SBC   C0F584145   2.664   1.705  11.501
  120SBC   C0F684146   2.527   1.720  11.514
  120SBC   N00884147   2.457   1.596  11.557
  120SBC   C0F784148   2.522   1.465  11.569
  120SBC   C0FQ84149   2.446   1.359  11.626
  120SBC   H01884150   2.489   1.260  11.630
  120SBC   C0FP84151   2.317   1.379  11.674
  120SBC   H01984152   2.266   1.300  11.727
  120SBC   C0FO84153   2.250   1.502  11.658
  120SBC   H01A84154   2.147   1.518  11.688
  120SBC   C0F884155   2.653   1.458  11.526
  120SBC   C0F984156   2.321   1.614  11.600
  120SBC   C0FA84157   2.245   1.732  11.575
  120SBC   H01584158   2.141   1.733  11.606
  120SBC   C0FB84159   2.304   1.842  11.515
  120SBC   C0FD84160   2.443   1.834  11.487
  120SBC   C0FC84161   2.217   1.956  11.481
  120SBC   O00A84162   2.098   1.953  11.508
  120SBC   C0EV84163   2.476   2.164  11.320
  120SBC   C0EF84164   2.644   2.349  11.211
  120SBC   C0EI84165   2.918   2.330  11.181
  120SBC   C0DQ84166   3.058   2.325  11.164
  120SBC   C0CE84167   3.332   2.312  11.115
  120SBC   H00U84168   3.287   2.625  11.000
  120SBC   C0CA84169   3.568   2.632  10.955
  120SBC   C0C984170   3.707   2.634  10.977
  120SBC   C0C884171   3.786   2.736  10.912
  120SBC   C0C784172   3.917   2.793  10.948
  120SBC   C0C684173   3.966   2.892  10.861
  120SBC   C0C584174   4.053   3.003  10.874
  120SBC   C0CQ84175   4.014   3.124  10.809
  120SBC   C0D184176   3.892   3.137  10.746
  120SBC   C0D884177   3.828   3.260  10.774
  120SBC   C0D784178   3.932   3.332  10.838
  120SBC   C0D684179   3.925   3.465  10.868
  120SBC   C0D584180   4.039   3.540  10.896
  120SBC   C0D484181   4.157   3.510  10.967
  120SBC   C0D384182   4.259   3.602  10.940
  120SBC   C0CX84183   4.391   3.526  10.946
  120SBC   C0CW84184   4.360   3.392  10.984
  120SBC   C0CV84185   4.434   3.277  11.019
  120SBC   C0D284186   4.570   3.282  11.064
  120SBC   C09D84187   4.652   3.398  11.068
  120SBC   C09C84188   4.780   3.396  11.125
  120SBC   C09B84189   4.877   3.499  11.121
  120SBC   C09A84190   4.833   3.620  11.066
  120SBC   C09984191   4.703   3.635  11.024
  120SBC   C09884192   4.693   3.740  10.936
  120SBC   C08Y84193   4.833   3.786  10.906
  120SBC   C08X84194   4.885   3.868  10.796
  120SBC   C08W84195   4.790   3.907  10.687
  120SBC   C08U84196   4.656   3.858  10.662
  120SBC   C08V84197   4.564   3.761  10.719
  120SBC   C0DC84198   4.444   3.767  10.647
  120SBC   H00W84199   4.366   3.696  10.670
  120SBC   C0DB84200   4.451   3.872  10.544
  120SBC   H00X84201   4.375   3.896  10.471
  120SBC   C08T84202   4.585   3.921  10.552
  120SBC   C08S84203   4.627   4.019  10.473
  120SBC   H00N84204   4.560   4.069  10.405
  120SBC   C08R84205   4.763   4.041  10.471
  120SBC   C08Q84206   4.832   4.126  10.377
  120SBC   H00O84207   4.767   4.171  10.304
  120SBC   C08P84208   4.965   4.156  10.372
  120SBC   C08O84209   5.031   4.243  10.280
  120SBC   H00P84210   4.975   4.303  10.209
  120SBC   C08N84211   5.170   4.257  10.279
  120SBC   C08M84212   5.234   4.342  10.174
  120SBC   O00884213   5.173   4.409  10.092
  120SBC   O00784214   5.371   4.336  10.165
  120SBC   C08H84215   5.446   4.270  10.253
  120SBC   C08G84216   5.589   4.278  10.254
  120SBC   C03V84217   5.667   4.352  10.162
  120SBC   H00984218   5.613   4.407  10.087
  120SBC   C03U84219   5.812   4.355  10.163
  120SBC   C03W84220   5.904   4.439  10.089
  120SBC   H00A84221   5.862   4.505  10.014
  120SBC   C03X84222   6.034   4.445  10.126
  120SBC   H00B84223   6.089   4.515  10.066
  120SBC   O00584224   6.088   4.362  10.222
  120SBC   C03O84225   6.005   4.293  10.296
  120SBC   C03N84226   6.064   4.224  10.401
  120SBC   O00084227   6.198   4.237  10.416
  120SBC   C01984228   6.267   4.154  10.496
  120SBC   C01884229   6.200   4.046  10.564
  120SBC   C01784230   6.061   4.048  10.560
  120SBC   C01684231   5.990   3.956  10.640
  120SBC   C01584232   6.074   3.860  10.702
  120SBC   C01484233   6.003   3.760  10.768
  120SBC   C01384234   5.860   3.765  10.797
  120SBC   C01284235   5.841   3.657  10.889
  120SBC   C01184236   5.970   3.601  10.905
  120SBC   C01084237   5.985   3.495  10.990
  120SBC   C00Z84238   6.093   3.410  10.994
  120SBC   C00Y84239   6.042   3.299  11.059
  120SBC   C01O84240   5.913   3.311  11.090
  120SBC   C01P84241   5.830   3.207  11.122
  120SBC   C02L84242   5.695   3.233  11.124
  120SBC   C02K84243   5.659   3.367  11.080
  120SBC   C01M84244   5.743   3.472  11.027
  120SBC   C02J84245   5.524   3.393  11.111
  120SBC   C02I84246   5.457   3.511  11.084
  120SBC   C02H84247   5.492   3.631  11.017
  120SBC   C01Q84248   5.607   3.666  10.951
  120SBC   C02G84249   5.585   3.785  10.879
  120SBC   C08984250   5.458   3.832  10.914
  120SBC   C08884251   5.404   3.913  10.815
  120SBC   C08784252   5.523   3.940  10.733
  120SBC   C08684253   5.528   4.014  10.613
  120SBC   C03S84254   5.642   4.067  10.548
  120SBC   N00684255   5.592   4.138  10.439
  120SBC   C08F84256   5.460   4.133  10.441
  120SBC   C01J84257   5.781   4.053  10.559
  120SBC   C03R84258   5.855   4.130  10.466
  120SBC   C03Q84259   5.794   4.209  10.362
  120SBC   C08E84260   5.406   4.053  10.548
  120SBC   C08D84261   5.268   4.046  10.569
  120SBC   C08K84262   5.188   4.115  10.471
  120SBC   C08C84263   5.205   3.986  10.677
  120SBC   C09184264   5.066   3.982  10.678
  120SBC   C09284265   4.981   4.023  10.570
  120SBC   C08B84266   5.257   3.929  10.793
  120SBC   C09084267   5.141   3.881  10.870
  120SBC   C09484268   5.148   3.785  10.983
  120SBC   C09584269   5.046   3.702  11.027
  120SBC   C09R84270   5.094   3.597  11.100
  120SBC   C09784271   5.235   3.597  11.092
  120SBC   C09684272   5.268   3.714  11.024
  120SBC   C01I84273   5.639   3.868  10.775
  120SBC   C08A84274   5.399   3.731  10.988
  120SBC   C09L84275   5.326   3.495  11.122
  120SBC   C09K84276   5.315   3.359  11.170
  120SBC   C09J84277   5.194   3.297  11.197
  120SBC   C09I84278   5.173   3.153  11.209
  120SBC   C09O84279   5.247   3.027  11.225
  120SBC   C09N84280   5.389   3.027  11.204
  120SBC   C09M84281   5.479   3.142  11.181
  120SBC   C06O84282   5.452   2.899  11.212
  120SBC   C05M84283   5.375   2.777  11.231
  120SBC   C06P84284   5.236   2.787  11.237
  120SBC   C04284285   5.433   2.655  11.236
  120SBC   C04184286   5.573   2.638  11.218
  120SBC   C04084287   5.635   2.509  11.201
  120SBC   C03Z84288   5.771   2.496  11.172
  120SBC   C03Y84289   5.848   2.607  11.154
  120SBC   C02784290   5.984   2.596  11.112
  120SBC   C02684291   6.058   2.711  11.089
  120SBC   C02884292   6.190   2.700  11.047
  120SBC   C02984293   6.242   2.575  11.015
  120SBC   C02B84294   6.372   2.564  10.964
  120SBC   C02C84295   6.426   2.439  10.930
  120SBC   C02X84296   6.548   2.432  10.871
  120SBC   C03E84297   6.594   2.309  10.835
  120SBC   C03G84298   6.523   2.191  10.843
  120SBC   C04Q84299   6.398   2.198  10.899
  120SBC   C04R84300   6.314   2.089  10.903
  120SBC   C04S84301   6.189   2.099  10.958
  120SBC   C04L84302   6.145   2.220  11.004
  120SBC   C04M84303   6.221   2.336  10.994
  120SBC   C04K84304   6.016   2.232  11.060
  120SBC   C04F84305   5.938   2.119  11.067
  120SBC   C04E84306   5.981   1.996  11.021
  120SBC   C04D84307   5.904   1.883  11.034
  120SBC   C05084308   5.954   1.762  10.993
  120SBC   C05184309   5.875   1.644  11.011
  120SBC   C05Q84310   5.922   1.523  10.971
  120SBC   C05V84311   5.844   1.409  10.996
  120SBC   N00584312   5.907   1.286  10.970
  120SBC   C07V84313   6.033   1.280  10.914
  120SBC   C08284314   6.097   1.153  10.907
  120SBC   C08184315   6.036   1.038  10.956
  120SBC   C07C84316   5.902   1.045  11.000
  120SBC   C07B84317   5.836   0.926  11.030
  120SBC   C08084318   5.906   0.806  11.031
  120SBC   C07Z84319   5.825   0.690  11.048
  120SBC   H00L84320   5.869   0.591  11.051
  120SBC   C07984321   5.683   0.691  11.065
  120SBC   C07884322   5.623   0.818  11.083
  120SBC   C07784323   5.486   0.828  11.105
  120SBC   C07X84324   5.403   0.711  11.091
  120SBC   H00I84325   5.295   0.710  11.093
  120SBC   C07Y84326   5.463   0.585  11.074
  120SBC   H00H84327   5.390   0.506  11.077
  120SBC   C07684328   5.432   0.951  11.130
  120SBC   C06C84329   5.293   0.958  11.166
  120SBC   H00C84330   5.239   0.866  11.181
  120SBC   C06F84331   5.503   1.068  11.118
  120SBC   C06E84332   5.441   1.196  11.109
  120SBC   C06G84333   5.507   1.311  11.094
  120SBC   C06H84334   5.643   1.300  11.065
  120SBC   C06I84335   5.707   1.177  11.051
  120SBC   C06L84336   5.441   1.435  11.110
  120SBC   C06M84337   5.297   1.442  11.129
  120SBC   C06K84338   5.523   1.552  11.107
  120SBC   C05S84339   5.661   1.539  11.074
  120SBC   C05U84340   5.471   1.675  11.142
  120SBC   C05X84341   5.329   1.686  11.166
  120SBC   C05G84342   5.293   1.827  11.202
  120SBC   C05F84343   5.391   1.929  11.208
  120SBC   C05E84344   5.334   2.055  11.235
  120SBC   C04884345   5.409   2.170  11.236
  120SBC   C05684346   5.348   2.294  11.246
  120SBC   C04584347   5.420   2.408  11.245
  120SBC   C04784348   5.543   2.159  11.206
  120SBC   C04984349   5.600   2.029  11.174
  120SBC   C04B84350   5.728   2.017  11.127
  120SBC   C04684351   5.623   2.269  11.205
  120SBC   C04H84352   5.754   2.258  11.160
  120SBC   C05D84353   5.201   2.044  11.246
  120SBC   C04A84354   5.527   1.917  11.178
  120SBC   C05T84355   5.562   1.786  11.141
  120SBC   C05584356   5.697   1.775  11.098
  120SBC   C06D84357   5.304   1.200  11.132
  120SBC   C07W84358   5.637   1.058  11.082
  120SBC   C08584359   5.603   0.576  11.082
  120SBC   H00M84360   5.651   0.479  11.084
  120SBC   C08484361   6.044   0.803  11.013
  120SBC   H00J84362   6.093   0.709  11.032
  120SBC   C07A84363   5.701   0.937  11.068
  120SBC   C08384364   6.104   0.918  10.964
  120SBC   H00K84365   6.209   0.921  10.935
  120SBC   O00K84366   6.232   1.151  10.870
  120SBC   C0GO84367   6.292   1.263  10.818
  120SBC   C0GN84368   6.423   1.244  10.770
  120SBC   H01L84369   6.467   1.147  10.760
  120SBC   C0GM84370   6.479   1.355  10.696
  120SBC   C0GL84371   6.570   1.341  10.601
  120SBC   H01M84372   6.599   1.239  10.578
  120SBC   O00J84373   6.638   1.449  10.547
  120SBC   C0GK84374   6.608   1.571  10.611
  120SBC   H01N84375   6.672   1.650  10.574
  120SBC   C05K84376   6.501   1.592  10.690
  120SBC   C05J84377   6.466   1.717  10.750
  120SBC   C04Y84378   6.550   1.832  10.750
  120SBC   C04X84379   6.500   1.958  10.794
  120SBC   O00684380   6.675   1.831  10.694
  120SBC   C05384381   6.752   1.947  10.674
  120SBC   C04O84382   6.707   2.073  10.727
  120SBC   C03C84383   6.784   2.193  10.723
  120SBC   C03B84384   6.908   2.243  10.670
  120SBC   C05484385   6.979   2.168  10.581
  120SBC   C0GR84386   7.096   2.227  10.513
  120SBC   C03M84387   7.155   2.360  10.490
  120SBC   C03I84388   7.096   2.481  10.535
  120SBC   C03J84389   7.144   2.606  10.481
  120SBC   N00284390   7.091   2.737  10.522
  120SBC   C02U84391   7.144   2.861  10.473
  120SBC   C02T84392   7.091   2.987  10.509
  120SBC   C02Z84393   7.148   3.101  10.460
  120SBC   N00184394   7.097   3.228  10.497
  120SBC   C02R84395   7.163   3.346  10.455
  120SBC   C03284396   7.273   3.338  10.368
  120SBC   C03184397   7.310   3.216  10.322
  120SBC   H00784398   7.403   3.207  10.268
  120SBC   C03384399   7.335   3.460  10.338
  120SBC   H00384400   7.403   3.460  10.255
  120SBC   O00484401   7.309   3.578  10.407
  120SBC   C03484402   7.210   3.580  10.496
  120SBC   C03584403   7.194   3.700  10.566
  120SBC   C03684404   7.080   3.714  10.652
  120SBC   H00584405   7.056   3.805  10.705
  120SBC   C03784406   6.993   3.604  10.659
  120SBC   H00684407   6.922   3.605  10.741
  120SBC   C00D84408   7.013   3.481  10.595
  120SBC   C00C84409   6.928   3.368  10.609
  120SBC   C00B84410   6.803   3.369  10.689
  120SBC   C00A84411   6.703   3.468  10.752
  120SBC   C00984412   6.621   3.381  10.834
  120SBC   C00884413   6.488   3.394  10.872
  120SBC   C00784414   6.415   3.504  10.829
  120SBC   C00684415   6.278   3.519  10.869
  120SBC   C00584416   6.214   3.634  10.819
  120SBC   C00484417   6.278   3.725  10.735
  120SBC   C00384418   6.414   3.712  10.702
  120SBC   C00284419   6.481   3.817  10.638
  120SBC   C01C84420   6.414   3.939  10.610
  120SBC   C01B84421   6.479   4.050  10.553
  120SBC   H00084422   6.587   4.056  10.554
  120SBC   C00184423   6.616   3.795  10.601
  120SBC   C00084424   6.656   3.662  10.611
  120SBC   C01U84425   6.754   3.650  10.519
  120SBC   H00284426   6.803   3.563  10.478
  120SBC   C01T84427   6.778   3.784  10.456
  120SBC   O00284428   6.868   3.812  10.376
  120SBC   O00184429   6.686   3.871  10.502
  120SBC   C01S84430   6.483   3.596  10.745
  120SBC   C00N84431   6.423   3.278  10.919
  120SBC   C00M84432   6.485   3.155  10.926
  120SBC   C00J84433   6.609   3.138  10.878
  120SBC   C00I84434   6.658   3.017  10.841
  120SBC   C00H84435   6.770   3.005  10.756
  120SBC   C00G84436   6.830   3.119  10.716
  120SBC   C00F84437   6.933   3.120  10.630
  120SBC   C01X84438   6.824   2.882  10.725
  120SBC   C01W84439   6.766   2.769  10.774
  120SBC   C01V84440   6.648   2.781  10.844
  120SBC   C02084441   6.569   2.670  10.875
  120SBC   C01Z84442   6.819   2.645  10.742
  120SBC   C02Y84443   6.746   2.535  10.779
  120SBC   C03984444   6.796   2.413  10.753
  120SBC   C02W84445   6.934   2.626  10.659
  120SBC   C01Y84446   6.933   2.873  10.637
  120SBC   C00U84447   6.590   2.902  10.877
  120SBC   C00S84448   6.469   2.916  10.938
  120SBC   C00T84449   6.394   2.801  10.968
  120SBC   C00R84450   6.415   3.041  10.960
  120SBC   C00Q84451   6.288   3.049  11.010
  120SBC   C00V84452   6.210   2.936  11.040
  120SBC   C02484453   6.078   2.947  11.085
  120SBC   C00X84454   6.023   3.068  11.089
  120SBC   C00P84455   6.233   3.177  11.012
  120SBC   C00O84456   6.293   3.289  10.957
  120SBC   C00K84457   6.676   3.252  10.833
  120SBC   N00084458   6.615   3.572  10.701
  120SBC   C00L84459   6.781   3.244  10.749
  120SBC   H00484460   7.249   3.791  10.547
  120SBC   C02Q84461   7.129   3.469  10.518
  120SBC   C00E84462   6.977   3.238  10.577
  120SBC   C03084463   7.257   3.094  10.372
  120SBC   O00384464   7.309   2.967  10.336
  120SBC   C02S84465   6.983   2.991  10.589
  120SBC   C03884466   7.255   2.853  10.386
  120SBC   C03L84467   7.310   2.730  10.356
  120SBC   H00884468   7.397   2.734  10.293
  120SBC   C02V84469   6.985   2.745  10.608
  120SBC   C03K84470   7.257   2.609  10.401
  120SBC   C0BK84471   7.313   2.483  10.368
  120SBC   H00T84472   7.403   2.488  10.309
  120SBC   C03H84473   6.989   2.500  10.623
  120SBC   C0BL84474   7.266   2.358  10.403
  120SBC   C0GU84475   7.325   2.235  10.358
  120SBC   H01O84476   7.411   2.241  10.292
  120SBC   C0GT84477   7.272   2.108  10.382
  120SBC   H01P84478   7.310   2.010  10.359
  120SBC   C0GS84479   7.153   2.109  10.452
  120SBC   C0GV84480   7.076   1.991  10.477
  120SBC   C0GW84481   7.097   1.854  10.436
  120SBC   H01Q84482   7.181   1.832  10.371
  120SBC   C0GX84483   7.009   1.763  10.485
  120SBC   H01R84484   7.012   1.660  10.452
  120SBC   O00L84485   6.895   1.796  10.564
  120SBC   C0GQ84486   6.966   2.030  10.554
  120SBC   C03A84487   6.913   2.386  10.679
  120SBC   C05L84488   6.869   1.929  10.596
  120SBC   C04W84489   6.337   1.733  10.811
  120SBC   C05I84490   6.252   1.623  10.825
  120SBC   C05O84491   6.301   1.498  10.785
  120SBC   C05284492   6.131   1.630  10.890
  120SBC   C04V84493   6.286   1.851  10.862
  120SBC   C04U84494   6.159   1.864  10.916
  120SBC   N00984495   6.427   1.484  10.729
  120SBC   C0GP84496   6.231   1.388  10.828
  120SBC   C05W84497   6.104   1.396  10.880
  120SBC   C07D84498   5.837   1.167  11.005
  120SBC   C06J84499   5.719   1.415  11.051
  120SBC   C05P84500   6.048   1.518  10.911
  120SBC   C05R84501   5.743   1.652  11.063
  120SBC   C04Z84502   6.081   1.749  10.934
  120SBC   C04C84503   5.776   1.888  11.088
  120SBC   C04G84504   5.806   2.131  11.119
  120SBC   C04J84505   5.960   2.356  11.101
  120SBC   C04T84506   6.110   1.989  10.958
  120SBC   N00384507   6.365   1.964  10.853
  120SBC   C04P84508   6.579   2.075  10.786
  120SBC   C03D84509   6.720   2.304  10.773
  120SBC   C02184510   6.620   2.545  10.840
  120SBC   C03F84511   6.350   2.325  10.947
  120SBC   C02284512   6.446   2.679  10.939
  120SBC   C02A84513   6.165   2.461  11.028
  120SBC   C02384514   6.267   2.812  11.022
  120SBC   C02584515   6.000   2.834  11.106
  120SBC   C02D84516   5.868   2.848  11.141
  120SBC   C02E84517   5.811   2.974  11.145
  120SBC   C02N84518   5.671   2.995  11.163
  120SBC   C04N84519   6.037   2.471  11.085
  120SBC   C02P84520   5.789   2.736  11.163
  120SBC   C04I84521   5.829   2.371  11.151
  120SBC   C04484522   5.558   2.395  11.224
  120SBC   C04384523   5.651   2.753  11.196
  120SBC   C05N84524   5.591   2.885  11.194
  120SBC   C09U84525   5.174   2.907  11.231
  120SBC   C09V84526   5.031   2.909  11.224
  120SBC   C09X84527   4.957   3.023  11.216
  120SBC   C09Y84528   4.824   3.033  11.190
  120SBC   C0A184529   4.748   2.919  11.191
  120SBC   C0A284530   4.814   2.799  11.214
  120SBC   C0A484531   4.739   2.680  11.219
  120SBC   C07184532   4.804   2.557  11.233
  120SBC   C0A584533   4.728   2.441  11.238
  120SBC   C0A984534   4.588   2.449  11.227
  120SBC   C0A884535   4.529   2.572  11.216
  120SBC   C0AP84536   4.394   2.578  11.200
  120SBC   C0BY84537   4.339   2.700  11.166
  120SBC   C0BX84538   4.409   2.814  11.147
  120SBC   C0C284539   4.342   2.927  11.097
  120SBC   C0C384540   4.419   3.042  11.079
  120SBC   C0CT84541   4.553   3.042  11.120
  120SBC   C0C184542   4.214   2.921  11.050
  120SBC   C0C084543   4.133   2.808  11.080
  120SBC   C0A784544   4.539   2.811  11.181
  120SBC   C0BZ84545   4.202   2.706  11.140
  120SBC   C0BO84546   4.123   2.592  11.137
  120SBC   C0BN84547   4.180   2.469  11.157
  120SBC   C0BM84548   4.099   2.368  11.146
  120SBC   C0B984549   4.154   2.241  11.154
  120SBC   C0B884550   4.290   2.228  11.187
  120SBC   C0AD84551   4.370   2.340  11.216
  120SBC   C0AF84552   4.350   2.106  11.189
  120SBC   C0AG84553   4.280   1.984  11.157
  120SBC   C0B784554   4.143   1.998  11.136
  120SBC   C0AE84555   4.485   2.104  11.212
  120SBC   C0AB84556   4.567   2.214  11.234
  120SBC   C0AA84557   4.708   2.206  11.249
  120SBC   C0AJ84558   4.550   1.987  11.194
  120SBC   C0AK84559   4.680   1.973  11.229
  120SBC   C06W84560   4.708   1.842  11.206
  120SBC   C0AI84561   4.486   1.863  11.174
  120SBC   C0BP84562   3.997   2.618  11.091
  120SBC   C0BQ84563   3.906   2.509  11.083
  120SBC   C0BW84564   4.313   2.462  11.198
  120SBC   C0AC84565   4.508   2.335  11.231
  120SBC   C0A684566   4.599   2.693  11.217
  120SBC   C0A384567   4.612   2.929  11.169
  120SBC   C09Z84568   4.759   3.154  11.161
  120SBC   C09W84569   4.953   2.792  11.227
  120SBC   C07284570   5.017   2.670  11.238
  120SBC   C09H84571   5.031   3.142  11.207
  120SBC   C09G84572   4.970   3.261  11.193
  120SBC   C09P84573   5.065   3.359  11.190
  120SBC   C02O84574   5.435   3.285  11.165
  120SBC   C02M84575   5.613   3.125  11.158
  120SBC   C02F84576   5.891   3.086  11.124
  120SBC   C00W84577   6.104   3.176  11.055
  120SBC   C01R84578   6.225   3.409  10.938
  120SBC   C01N84579   5.873   3.429  11.043
  120SBC   C01L84580   5.722   3.597  10.957
  120SBC   C01H84581   5.776   3.864  10.735
  120SBC   C01K84582   6.070   3.664  10.834
  120SBC   C01E84583   6.209   3.839  10.686
  120SBC   C01G84584   5.846   3.964  10.647
  120SBC   C01D84585   6.275   3.945  10.624
  120SBC   C01A84586   6.408   4.154  10.494
  120SBC   H00184587   6.455   4.237  10.442
  120SBC   C01F84588   5.991   4.134  10.478
  120SBC   C03P84589   5.867   4.287  10.272
  120SBC   C03T84590   5.661   4.210  10.351
  120SBC   C08I84591   5.382   4.194  10.350
  120SBC   C08J84592   5.247   4.185  10.369
  120SBC   C08L84593   5.044   4.097  10.469
  120SBC   C09384594   4.841   3.989  10.578
  120SBC   C08Z84595   5.022   3.903  10.786
  120SBC   C09T84596   4.587   3.696  10.844
  120SBC   C09S84597   4.913   3.717  11.001
  120SBC   C09Q84598   5.017   3.484  11.142
  120SBC   C09F84599   4.829   3.270  11.158
  120SBC   C09E84600   4.624   3.524  10.999
  120SBC   C0A084601   4.628   3.162  11.109
  120SBC   C0CU84602   4.359   3.157  11.029
  120SBC   C0CR84603   4.227   3.148  10.975
  120SBC   C0CZ84604   4.167   3.266  10.936
  120SBC   C0DA84605   4.522   3.572  10.913
  120SBC   C0D984606   4.200   3.696  10.843
  120SBC   H00V84607   4.247   3.790  10.819
  120SBC   C0CY84608   4.220   3.386  10.981
  120SBC   C0DF84609   4.060   3.650  10.818
  120SBC   C0DE84610   3.926   3.672  10.756
  120SBC   C0GI84611   3.873   3.775  10.671
  120SBC   H01K84612   3.929   3.863  10.646
  120SBC   C0GJ84613   3.743   3.763  10.637
  120SBC   H01J84614   3.688   3.843  10.589
  120SBC   O00I84615   3.663   3.650  10.662
  120SBC   C0GH84616   3.715   3.536  10.727
  120SBC   C0GG84617   3.638   3.412  10.734
  120SBC   O00G84618   3.507   3.420  10.715
  120SBC   C0G884619   3.425   3.305  10.707
  120SBC   C0G984620   3.295   3.335  10.655
  120SBC   H01G84621   3.261   3.437  10.638
  120SBC   C0GA84622   3.213   3.224  10.636
  120SBC   H01H84623   3.123   3.238  10.579
  120SBC   C0GB84624   3.251   3.089  10.674
  120SBC   C0EP84625   3.382   3.070  10.728
  120SBC   C0E884626   3.408   2.942  10.790
  120SBC   C0CK84627   3.516   2.875  10.857
  120SBC   C0CL84628   3.643   2.907  10.805
  120SBC   C0E984629   3.678   3.037  10.755
  120SBC   C0GE84630   3.614   3.170  10.744
  120SBC   C0E784631   3.326   2.830  10.751
  120SBC   C0CJ84632   3.370   2.705  10.802
  120SBC   C0E684633   3.299   2.588  10.760
  120SBC   H00Y84634   3.321   2.485  10.786
  120SBC   C0EO84635   3.176   2.611  10.687
  120SBC   H01184636   3.123   2.521  10.661
  120SBC   C0G684637   3.130   2.739  10.650
  120SBC   C0G584638   3.008   2.761  10.567
  120SBC   H01F84639   2.943   2.679  10.539
  120SBC   C0GD84640   2.972   2.889  10.538
  120SBC   H01I84641   2.882   2.901  10.481
  120SBC   O00H84642   3.044   3.007  10.581
  120SBC   C0EQ84643   3.207   2.854  10.681
  120SBC   C0GC84644   3.165   2.981  10.641
  120SBC   C0G784645   3.474   3.176  10.733
  120SBC   C0DD84646   3.848   3.555  10.786
  120SBC   C0GF84647   3.695   3.288  10.746
  120SBC   C0CO84648   3.814   3.024  10.734
  120SBC   C0D084649   4.041   3.248  10.870
  120SBC   C0C484650   4.160   3.020  10.969
  120SBC   C0CN84651   3.863   2.895  10.759
  120SBC   C0CP84652   4.001   2.753  11.053
  120SBC   C0CM84653   3.751   2.812  10.795
  120SBC   C0CI84654   3.487   2.731  10.883
  120SBC   C0CD84655   3.473   2.304  11.094
  120SBC   C0BR84656   3.770   2.522  11.042
  120SBC   C0CS84657   3.961   2.385  11.117
  120SBC   C0B684658   4.080   2.126  11.140
  120SBC   C0CG84659   3.671   2.171  11.093
  120SBC   C0CF84660   3.532   2.177  11.098
  120SBC   C0E584661   3.259   2.197  11.150
  120SBC   C0DT84662   3.127   1.986  11.262
  120SBC   C0DL84663   3.442   1.830  11.164
  120SBC   C0DM84664   3.500   1.705  11.159
  120SBC   C0DY84665   3.305   1.606  11.261
  120SBC   C0DU84666   3.077   1.880  11.332
  120SBC   C0F084667   2.890   1.794  11.453
  120SBC   C0F484668   2.725   1.580  11.516
  120SBC   C0FG84669   3.067   1.433  11.469
  120SBC   O00B84670   2.721   1.330  11.492
  120SBC   C0FN84671   3.084   1.305  11.422
  120SBC   C0DZ84672   3.240   1.497  11.318
  120SBC   O00C84673   3.447   1.229  11.184
  120SBC   C0FR84674   3.578   1.203  11.142
  120SBC   O00D84675   3.612   1.083  11.139
  120SBC   C0E084676   3.429   1.590  11.197
  120SBC   C0E384677   3.659   1.320  11.116
  120SBC   C0AW84678   3.794   1.309  11.075
  120SBC   C0AV84679   3.873   1.194  11.049
  120SBC   H00Q84680   3.825   1.097  11.044
  120SBC   C0AU84681   4.010   1.191  11.018
  120SBC   H00R84682   4.071   1.103  11.005
  120SBC   C0AT84683   4.081   1.311  11.036
  120SBC   C0AS84684   4.220   1.358  11.014
  120SBC   C0AR84685   4.326   1.295  10.935
  120SBC   C0BE84686   4.007   1.424  11.070
  120SBC   C0DN84687   3.630   1.693  11.125
  120SBC   C0AX84688   3.867   1.425  11.085
  120SBC   C0BB84689   3.845   1.792  11.100
  120SBC   C0BD84690   4.090   1.533  11.073
  120SBC   C0B284691   4.069   1.886  11.112
  120SBC   C0AH84692   4.343   1.856  11.145
  120SBC   C0BF84693   4.226   1.504  11.060
  120SBC   C0AL84694   4.588   1.767  11.177
  120SBC   C07U84695   4.523   1.440  11.040
  120SBC   C0AQ84696   4.463   1.336  10.959
  120SBC   C0BG84697   4.330   1.188  10.834
  120SBC   C0FY84698   4.569   0.944  10.848
  120SBC   C0BJ84699   4.258   1.063  10.820
  120SBC   H00S84700   4.155   1.040  10.840
  120SBC   C0FZ84701   4.498   0.825  10.864
  120SBC   C07S84702   4.677   0.972  10.938
  120SBC   C0G184703   4.725   0.627  11.074
  120SBC   C07K84704   4.977   0.802  11.294
  120SBC   C07H84705   4.896   1.017  11.125
  120SBC   C06B84706   5.231   1.085  11.164
  120SBC   C06N84707   5.230   1.311  11.136
  120SBC   C06684708   4.859   1.273  11.067
  120SBC   C06284709   4.852   1.569  11.159
  120SBC   C05Y84710   5.239   1.573  11.153
  120SBC   C06184711   4.894   1.688  11.224
  120SBC   C05H84712   5.179   1.902  11.235
  120SBC   C06V84713   4.841   1.821  11.215
  120SBC   C06Y84714   4.770   2.085  11.241
  120SBC   C05C84715   5.127   2.172  11.252
  120SBC   C06Z84716   4.785   2.318  11.252
  120SBC   C07084717   4.942   2.550  11.245
  120SBC   C05B84718   5.206   2.294  11.255
  120SBC   C05784719   5.358   2.533  11.250
  120SBC   C05984720   5.158   2.665  11.245
  121SBC   C05884721   0.520   9.068  11.741
  121SBC   C05A84722   0.607   8.953  11.756
  121SBC   C06Q84723   0.731   8.947  11.695
  121SBC   C06R84724   0.823   8.844  11.724
  121SBC   C06S84725   0.795   8.743  11.814
  121SBC   C06T84726   0.889   8.642  11.838
  121SBC   C06U84727   0.882   8.518  11.918
  121SBC   C06X84728   0.780   8.458  11.994
  121SBC   C06084729   0.825   8.325  12.032
  121SBC   C05Z84730   0.808   8.269  12.165
  121SBC   C06884731   0.927   8.178  12.161
  121SBC   C06784732   0.950   8.050  12.226
  121SBC   C06984733   0.848   8.003  12.319
  121SBC   C06A84734   0.811   7.860  12.345
  121SBC   C07384735   0.839   7.738  12.279
  121SBC   C07P84736   0.729   7.647  12.261
  121SBC   C07O84737   0.591   7.672  12.283
  121SBC   H00D84738   0.551   7.771  12.300
  121SBC   C07N84739   0.498   7.567  12.290
  121SBC   H00E84740   0.394   7.581  12.317
  121SBC   C07M84741   0.542   7.440  12.272
  121SBC   H00F84742   0.472   7.358  12.260
  121SBC   C07L84743   0.670   7.415  12.224
  121SBC   C07Q84744   0.707   7.288  12.173
  121SBC   H00G84745   0.644   7.200  12.168
  121SBC   O00F84746   0.828   7.268  12.114
  121SBC   C07J84747   0.922   7.360  12.128
  121SBC   C07I84748   0.895   7.489  12.184
  121SBC   N00484749   1.002   7.582  12.194
  121SBC   C07R84750   1.133   7.546  12.154
  121SBC   C07T84751   1.156   7.419  12.091
  121SBC   C0FX84752   1.277   7.379  12.042
  121SBC   C0FW84753   1.301   7.265  11.966
  121SBC   C0G084754   1.188   7.178  11.943
  121SBC   C0G284755   1.208   7.063  11.868
  121SBC   H01E84756   1.136   6.984  11.850
  121SBC   C0G384757   1.331   7.048  11.801
  121SBC   H01C84758   1.357   6.958  11.747
  121SBC   C0G484759   1.438   7.143  11.816
  121SBC   H01D84760   1.528   7.115  11.764
  121SBC   O00E84761   1.067   7.207  12.009
  121SBC   C0FV84762   1.429   7.251  11.904
  121SBC   C0FU84763   1.529   7.348  11.931
  121SBC   H01B84764   1.623   7.329  11.883
  121SBC   C0FT84765   1.508   7.454  12.020
  121SBC   C0FS84766   1.567   7.578  12.061
  121SBC   C0BI84767   1.493   7.646  12.166
  121SBC   C0BH84768   1.521   7.788  12.169
  121SBC   C07F84769   1.420   7.885  12.162
  121SBC   C07E84770   1.286   7.881  12.190
  121SBC   C07G84771   1.208   7.769  12.214
  121SBC   C07484772   1.077   7.813  12.225
  121SBC   C06584773   1.200   7.993  12.180
  121SBC   C06484774   1.251   8.097  12.099
  121SBC   C06384775   1.177   8.203  12.047
  121SBC   C07584776   1.278   8.274  11.957
  121SBC   C0AM84777   1.407   8.208  11.956
  121SBC   C0AN84778   1.529   8.246  11.878
  121SBC   C0AO84779   1.551   8.360  11.778
  121SBC   C0B184780   1.675   8.378  11.709
  121SBC   C0B084781   1.777   8.293  11.732
  121SBC   C0AZ84782   1.885   8.274  11.646
  121SBC   C0AY84783   1.982   8.170  11.673
  121SBC   N00784784   2.087   8.141  11.582
  121SBC   C0E284785   2.168   8.022  11.597
  121SBC   C0E184786   2.260   7.998  11.497
  121SBC   C0E484787   2.327   7.872  11.497
  121SBC   C0FF84788   2.410   7.821  11.396
  121SBC   C0FJ84789   2.474   7.690  11.365
  121SBC   C0FK84790   2.437   7.555  11.400
  121SBC   H01684791   2.371   7.510  11.473
  121SBC   C0FL84792   2.507   7.473  11.299
  121SBC   H01784793   2.505   7.366  11.281
  121SBC   C0FM84794   2.585   7.555  11.210
  121SBC   C0FH84795   2.661   7.577  11.082
  121SBC   C0FI84796   2.650   7.721  11.071
  121SBC   C0F384797   2.640   7.794  10.949
  121SBC   C0F284798   2.599   7.926  10.962
  121SBC   C0DW84799   2.535   7.980  11.072
  121SBC   C0FE84800   2.518   7.901  11.180
  121SBC   C0DV84801   2.463   8.097  11.073
  121SBC   C0DX84802   2.371   8.122  11.173
  121SBC   C0DK84803   2.284   8.229  11.156
  121SBC   C0DJ84804   2.280   8.301  11.037
  121SBC   C0DI84805   2.199   8.413  11.025
  121SBC   C0DH84806   2.122   8.455  11.130
  121SBC   C0DG84807   2.126   8.384  11.247
  121SBC   C0BV84808   2.035   8.416  11.346
  121SBC   C0BC84809   2.014   8.334  11.455
  121SBC   C0BA84810   1.956   8.528  11.334
  121SBC   C0B484811   1.840   8.545  11.414
  121SBC   C0B384812   1.814   8.453  11.520
  121SBC   C0B584813   1.747   8.649  11.396
  121SBC   C0BU84814   1.767   8.745  11.293
  121SBC   C0BT84815   1.871   8.722  11.201
  121SBC   C0BS84816   1.884   8.804  11.086
  121SBC   C0CC84817   1.970   8.758  10.982
  121SBC   C0CB84818   1.970   8.829  10.859
  121SBC   C0CH84819   1.994   8.743  10.750
  121SBC   C0DO84820   2.074   8.626  10.758
  121SBC   C0DP84821   2.134   8.570  10.645
  121SBC   C0EA84822   2.116   8.629  10.516
  121SBC   H01284823   2.037   8.699  10.492
  121SBC   O00984824   2.187   8.593  10.403
  121SBC   C0EH84825   2.271   8.482  10.416
  121SBC   C0EG84826   2.318   8.426  10.302
  121SBC   C0EJ84827   2.300   8.450  10.165
  121SBC   H01084828   2.236   8.524  10.120
  121SBC   C0EK84829   2.375   8.347  10.091
  121SBC   H00Z84830   2.375   8.329   9.985
  121SBC   C0EL84831   2.449   8.270  10.187
  121SBC   C0EM84832   2.513   8.144  10.166
  121SBC   C0EW84833   2.537   8.073  10.046
  121SBC   H01384834   2.512   8.123   9.953
  121SBC   C0EX84835   2.587   7.934  10.046
  121SBC   H01484836   2.609   7.877   9.957
  121SBC   C0F184837   2.607   7.874  10.179
  121SBC   C0EU84838   2.588   7.946  10.296
  121SBC   C0ET84839   2.592   7.900  10.430
  121SBC   C0ES84840   2.536   8.006  10.501
  121SBC   C0EE84841   2.494   8.112  10.419
  121SBC   C0ED84842   2.429   8.243  10.425
  121SBC   C0EC84843   2.369   8.296  10.547
  121SBC   C0EB84844   2.399   8.251  10.676
  121SBC   C0EN84845   2.478   8.135  10.704
  121SBC   C0ER84846   2.510   8.109  10.839
  121SBC   C0DS84847   2.337   8.303  10.792
  121SBC   C0DR84848   2.253   8.416  10.782
  121SBC   C0EY84849   2.548   8.026  10.632
  121SBC   C0EZ84850   2.607   7.928  10.721
  121SBC   C0F584851   2.645   7.786  10.712
  121SBC   C0F684852   2.663   7.719  10.586
  121SBC   N00884853   2.687   7.576  10.600
  121SBC   C0F784854   2.694   7.508  10.723
  121SBC   C0FQ84855   2.708   7.367  10.719
  121SBC   H01884856   2.690   7.306  10.807
  121SBC   C0FP84857   2.743   7.287  10.601
  121SBC   H01984858   2.753   7.179  10.603
  121SBC   C0FO84859   2.724   7.363  10.481
  121SBC   H01A84860   2.734   7.305  10.390
  121SBC   C0F884861   2.671   7.581  10.842
  121SBC   C0F984862   2.703   7.506  10.480
  121SBC   C0FA84863   2.703   7.563  10.352
  121SBC   H01584864   2.711   7.501  10.264
  121SBC   C0FB84865   2.681   7.700  10.342
  121SBC   C0FD84866   2.646   7.770  10.455
  121SBC   C0FC84867   2.665   7.746  10.206
  121SBC   O00A84868   2.682   7.669  10.111
  121SBC   C0EV84869   2.540   8.077  10.288
  121SBC   C0EF84870   2.405   8.317  10.312
  121SBC   C0EI84871   2.291   8.416  10.543
  121SBC   C0DQ84872   2.228   8.466  10.657
  121SBC   C0CE84873   2.105   8.575  10.880
  121SBC   H00U84874   1.972   8.770  10.648
  121SBC   C0CA84875   1.935   8.969  10.853
  121SBC   C0C984876   1.839   9.013  10.959
  121SBC   C0C884877   1.788   9.150  10.949
  121SBC   C0C784878   1.667   9.211  11.001
  121SBC   C0C684879   1.641   9.339  10.955
  121SBC   C0C584880   1.523   9.421  10.926
  121SBC   C0CQ84881   1.520   9.478  10.801
  121SBC   C0D184882   1.624   9.474  10.723
  121SBC   C0D884883   1.604   9.535  10.602
  121SBC   C0D784884   1.472   9.584  10.609
  121SBC   C0D684885   1.440   9.706  10.544
  121SBC   C0D584886   1.337   9.793  10.593
  121SBC   C0D484887   1.227   9.781  10.678
  121SBC   C0D384888   1.191   9.914  10.735
  121SBC   C0CX84889   1.121   9.896  10.870
  121SBC   C0CW84890   1.138   9.745  10.893
  121SBC   C0CV84891   1.087   9.641  10.979
  121SBC   C0D284892   0.961   9.647  11.044
  121SBC   C09D84893   0.859   9.736  11.016
  121SBC   C09C84894   0.721   9.720  11.063
  121SBC   C09B84895   0.614   9.814  11.055
  121SBC   C09A84896   0.648   9.928  10.981
  121SBC   C09984897   0.767   9.943  10.919
  121SBC   C09884898   0.776  10.079  10.873
  121SBC   C08Y84899   0.665  10.145  10.941
  121SBC   C08X84900   0.646  10.286  10.962
  121SBC   C08W84901   0.758  10.378  10.929
  121SBC   C08U84902   0.898  10.345  10.906
  121SBC   C08V84903   0.974  10.225  10.919
  121SBC   C0DC84904   1.101  10.258  10.864
  121SBC   H00W84905   1.178  10.183  10.860
  121SBC   C0DB84906   1.105  10.389  10.816
  121SBC   H00X84907   1.190  10.438  10.771
  121SBC   C08T84908   0.980  10.446  10.848
  121SBC   C08S84909   0.934  10.574  10.829
  121SBC   H00N84910   1.000  10.633  10.766
  121SBC   C08R84911   0.819  10.615  10.888
  121SBC   C08Q84912   0.783  10.751  10.907
  121SBC   H00O84913   0.841  10.827  10.858
  121SBC   C08P84914   0.675  10.803  10.980
  121SBC   C08O84915   0.658  10.936  11.011
  121SBC   H00P84916   0.723  11.007  10.960
  121SBC   C08N84917   0.553  10.975  11.092
  121SBC   C08M84918   0.548  11.115  11.129
  121SBC   O00884919   0.623  11.196  11.079
  121SBC   O00784920   0.445  11.153  11.216
  121SBC   C08H84921   0.356  11.060  11.265
  121SBC   C08G84922   0.249  11.094  11.351
  121SBC   C03V84923   0.215  11.217  11.402
  121SBC   H00984924   0.265  11.301  11.357
  121SBC   C03U84925   0.116  11.249  11.492
  121SBC   C03W84926   0.062  11.377  11.530
  121SBC   H00A84927   0.109  11.464  11.486
  121SBC   C03X84928  -0.036  11.388  11.623
  121SBC   H00B84929  -0.073  11.485  11.654
  121SBC   O00584930  -0.096  11.279  11.682
  121SBC   C03O84931  -0.044  11.155  11.646
  121SBC   C03N84932  -0.095  11.041  11.712
  121SBC   O00084933  -0.187  11.073  11.807
  121SBC   C01984934  -0.233  10.969  11.886
  121SBC   C01884935  -0.196  10.831  11.863
  121SBC   C01784936  -0.112  10.801  11.753
  121SBC   C01684937  -0.085  10.673  11.714
  121SBC   C01584938  -0.152  10.573  11.792
  121SBC   C01484939  -0.124  10.439  11.763
  121SBC   C01384940  -0.044  10.394  11.656
  121SBC   C01284941  -0.051  10.246  11.656
  121SBC   C01184942  -0.141  10.225  11.766
  121SBC   C01084943  -0.181  10.100  11.791
  121SBC   C00Z84944  -0.251  10.058  11.904
  121SBC   C00Y84945  -0.209   9.921  11.911
  121SBC   C01O84946  -0.141   9.882  11.799
  121SBC   C01P84947  -0.057   9.769  11.791
  121SBC   C02L84948   0.025   9.755  11.679
  121SBC   C02K84949   0.043   9.872  11.604
  121SBC   C01M84950  -0.017  10.000  11.633
  121SBC   C02J84951   0.127   9.844  11.491
  121SBC   C02I84952   0.164   9.936  11.395
  121SBC   C02H84953   0.133  10.069  11.377
  121SBC   C01Q84954   0.074  10.159  11.468
  121SBC   C02G84955   0.099  10.293  11.420
  121SBC   C08984956   0.152  10.278  11.291
  121SBC   C08884957   0.222  10.392  11.249
  121SBC   C08784958   0.176  10.491  11.354
  121SBC   C08684959   0.202  10.634  11.344
  121SBC   C03S84960   0.146  10.743  11.421
  121SBC   N00684961   0.198  10.863  11.370
  121SBC   C08F84962   0.291  10.835  11.281
  121SBC   C01J84963   0.055  10.758  11.533
  121SBC   C03R84964   0.034  10.891  11.586
  121SBC   C03Q84965   0.092  11.005  11.519
  121SBC   C08E84966   0.295  10.699  11.258
  121SBC   C08D84967   0.390  10.649  11.162
  121SBC   C08K84968   0.483  10.738  11.109
  121SBC   C08C84969   0.405  10.514  11.116
  121SBC   C09184970   0.518  10.476  11.042
  121SBC   C09284971   0.614  10.563  10.998
  121SBC   C08B84972   0.338  10.396  11.156
  121SBC   C09084973   0.407  10.286  11.091
  121SBC   C09484974   0.373  10.147  11.100
  121SBC   C09584975   0.458  10.043  11.053
  121SBC   C09R84976   0.414   9.923  11.115
  121SBC   C09784977   0.307   9.949  11.205
  121SBC   C09684978   0.284  10.086  11.191
  121SBC   C01I84979   0.087  10.432  11.455
  121SBC   C08A84980   0.191  10.144  11.273
  121SBC   C09L84981   0.247   9.868  11.307
  121SBC   C09K84982   0.268   9.737  11.350
  121SBC   C09J84983   0.364   9.648  11.294
  121SBC   C09I84984   0.412   9.536  11.364
  121SBC   C09O84985   0.387   9.457  11.486
  121SBC   C09N84986   0.284   9.496  11.577
  121SBC   C09M84987   0.201   9.612  11.579
  121SBC   C06O84988   0.268   9.407  11.693
  121SBC   C05M84989   0.353   9.293  11.710
  121SBC   C06P84990   0.460   9.275  11.627
  121SBC   C04284991   0.329   9.201  11.813
  121SBC   C04184992   0.231   9.226  11.907
  121SBC   C04084993   0.215   9.139  12.017
  121SBC   C03Z84994   0.132   9.173  12.125
  121SBC   C03Y84995   0.054   9.283  12.118
  121SBC   C02784996  -0.023   9.320  12.227
  121SBC   C02684997  -0.101   9.436  12.221
  121SBC   C02884998  -0.163   9.478  12.338
  121SBC   C02984999  -0.160   9.402  12.455
  121SBC   C02B85000  -0.229   9.446  12.565
  121SBC   C02C85001  -0.224   9.368  12.684
  121SBC   C02X85002  -0.276   9.424  12.796
  121SBC   C03E85003  -0.255   9.354  12.915
  121SBC   C03G85004  -0.189   9.236  12.928
  121SBC   C04Q85005  -0.129   9.186  12.814
  121SBC   C04R85006  -0.049   9.076  12.817
  121SBC   C04S85007   0.007   9.027  12.703
  121SBC   C04L85008  -0.014   9.093  12.581
  121SBC   C04M85009  -0.089   9.209  12.576
  121SBC   C04K85010   0.056   9.048  12.466
  121SBC   C04F85011   0.137   8.940  12.475
  121SBC   C04E85012   0.151   8.869  12.595
  121SBC   C04D85013   0.238   8.758  12.604
  121SBC   C05085014   0.255   8.692  12.721
  121SBC   C05185015   0.339   8.579  12.723
  121SBC   C05Q85016   0.344   8.503  12.840
  121SBC   C05V85017   0.406   8.381  12.838
  121SBC   N00585018   0.380   8.287  12.937
  121SBC   C07V85019   0.314   8.327  13.053
  121SBC   C08285020   0.283   8.232  13.151
  121SBC   C08185021   0.303   8.092  13.132
  121SBC   C07C85022   0.369   8.053  13.015
  121SBC   C07B85023   0.386   7.913  12.989
  121SBC   C08085024   0.347   7.814  13.079
  121SBC   C07Z85025   0.360   7.682  13.049
  121SBC   H00L85026   0.321   7.610  13.121
  121SBC   C07985027   0.407   7.639  12.927
  121SBC   C07885028   0.457   7.739  12.842
  121SBC   C07785029   0.523   7.696  12.726
  121SBC   C07X85030   0.504   7.560  12.678
  121SBC   H00I85031   0.550   7.519  12.589
  121SBC   C07Y85032   0.433   7.469  12.757
  121SBC   H00H85033   0.406   7.372  12.717
  121SBC   C07685034   0.597   7.791  12.660
  121SBC   C06C85035   0.685   7.753  12.552
  121SBC   H00C85036   0.707   7.649  12.530
  121SBC   C06F85037   0.577   7.927  12.687
  121SBC   C06E85038   0.630   8.028  12.603
  121SBC   C06G85039   0.593   8.159  12.603
  121SBC   C06H85040   0.522   8.204  12.715
  121SBC   C06I85041   0.484   8.107  12.814
  121SBC   C06L85042   0.619   8.248  12.495
  121SBC   C06M85043   0.701   8.209  12.382
  121SBC   C06K85044   0.550   8.371  12.495
  121SBC   C05S85045   0.483   8.414  12.616
  121SBC   C05U85046   0.540   8.440  12.374
  121SBC   C05X85047   0.619   8.402  12.259
  121SBC   C05G85048   0.593   8.491  12.144
  121SBC   C05F85049   0.508   8.603  12.161
  121SBC   C05E85050   0.530   8.690  12.055
  121SBC   C04885051   0.450   8.803  12.046
  121SBC   C05685052   0.476   8.888  11.939
  121SBC   C04585053   0.397   9.005  11.936
  121SBC   C04785054   0.364   8.829  12.150
  121SBC   C04985055   0.357   8.747  12.262
  121SBC   C04B85056   0.285   8.787  12.372
  121SBC   C04685057   0.285   8.943  12.146
  121SBC   C04H85058   0.202   8.972  12.251
  121SBC   C05D85059   0.629   8.653  11.972
  121SBC   C04A85060   0.427   8.632  12.267
  121SBC   C05T85061   0.450   8.550  12.377
  121SBC   C05585062   0.385   8.603  12.493
  121SBC   C06D85063   0.704   7.989  12.491
  121SBC   C07W85064   0.508   7.973  12.794
  121SBC   C08585065   0.391   7.511  12.879
  121SBC   H00M85066   0.355   7.436  12.947
  121SBC   C08485067   0.294   7.858  13.201
  121SBC   H00J85068   0.266   7.786  13.276
  121SBC   C07A85069   0.454   7.876  12.872
  121SBC   C08385070   0.269   7.992  13.224
  121SBC   H00K85071   0.205   8.026  13.305
  121SBC   O00K85072   0.220   8.273  13.259
  121SBC   C0GO85073   0.170   8.402  13.274
  121SBC   C0GN85074   0.086   8.430  13.385
  121SBC   H01L85075   0.091   8.356  13.464
  121SBC   C0GM85076   0.029   8.558  13.393
  121SBC   C0GL85077  -0.038   8.583  13.507
  121SBC   H01M85078  -0.054   8.506  13.581
  121SBC   O00J85079  -0.092   8.713  13.522
  121SBC   C0GK85080  -0.072   8.802  13.420
  121SBC   H01N85081  -0.103   8.902  13.447
  121SBC   C05K85082  -0.010   8.771  13.302
  121SBC   C05J85083  -0.018   8.862  13.190
  121SBC   C04Y85084  -0.086   8.987  13.179
  121SBC   C04X85085  -0.102   9.059  13.058
  121SBC   O00685086  -0.146   9.037  13.294
  121SBC   C05385087  -0.203   9.162  13.298
  121SBC   C04O85088  -0.220   9.236  13.174
  121SBC   C03C85089  -0.285   9.362  13.155
  121SBC   C03B85090  -0.337   9.471  13.234
  121SBC   C05485091  -0.342   9.463  13.373
  121SBC   C0GR85092  -0.371   9.575  13.453
  121SBC   C03M85093  -0.418   9.719  13.429
  121SBC   C03I85094  -0.450   9.777  13.295
  121SBC   C03J85095  -0.492   9.916  13.297
  121SBC   N00285096  -0.514   9.983  13.173
  121SBC   C02U85097  -0.563  10.115  13.171
  121SBC   C02T85098  -0.568  10.188  13.051
  121SBC   C02Z85099  -0.622  10.318  13.050
  121SBC   N00185100  -0.642  10.388  12.928
  121SBC   C02R85101  -0.709  10.514  12.932
  121SBC   C03285102  -0.754  10.571  13.055
  121SBC   C03185103  -0.720  10.505  13.176
  121SBC   H00785104  -0.737  10.551  13.272
  121SBC   C03385105  -0.817  10.698  13.037
  121SBC   H00385106  -0.844  10.760  13.121
  121SBC   O00485107  -0.850  10.746  12.911
  121SBC   C03485108  -0.797  10.690  12.803
  121SBC   C03585109  -0.826  10.758  12.683
  121SBC   C03685110  -0.792  10.694  12.565
  121SBC   H00585111  -0.802  10.743  12.469
  121SBC   C03785112  -0.723  10.568  12.567
  121SBC   H00685113  -0.710  10.521  12.470
  121SBC   C00D85114  -0.681  10.517  12.691
  121SBC   C00C85115  -0.593  10.411  12.687
  121SBC   C00B85116  -0.529  10.354  12.564
  121SBC   C00A85117  -0.524  10.369  12.412
  121SBC   C00985118  -0.502  10.235  12.362
  121SBC   C00885119  -0.431  10.194  12.241
  121SBC   C00785120  -0.394  10.293  12.156
  121SBC   C00685121  -0.330  10.258  12.038
  121SBC   C00585122  -0.278  10.358  11.955
  121SBC   C00485123  -0.297  10.494  11.982
  121SBC   C00385124  -0.368  10.530  12.099
  121SBC   C00285125  -0.382  10.667  12.136
  121SBC   C01C85126  -0.334  10.763  12.048
  121SBC   C01B85127  -0.373  10.903  12.066
  121SBC   H00085128  -0.458  10.925  12.129
  121SBC   C00185129  -0.432  10.700  12.265
  121SBC   C00085130  -0.458  10.597  12.355
  121SBC   C01U85131  -0.480  10.669  12.478
  121SBC   H00285132  -0.487  10.638  12.581
  121SBC   C01T85133  -0.478  10.817  12.450
  121SBC   O00285134  -0.484  10.917  12.525
  121SBC   O00185135  -0.441  10.824  12.327
  121SBC   C01S85136  -0.413  10.427  12.189
  121SBC   C00N85137  -0.394  10.063  12.237
  121SBC   C00M85138  -0.404   9.976  12.342
  121SBC   C00J85139  -0.443  10.025  12.463
  121SBC   C00I85140  -0.444   9.955  12.575
  121SBC   C00H85141  -0.478  10.013  12.697
  121SBC   C00G85142  -0.504  10.150  12.702
  121SBC   C00F85143  -0.539  10.204  12.817
  121SBC   C01X85144  -0.467   9.938  12.811
  121SBC   C01W85145  -0.430   9.809  12.806
  121SBC   C01V85146  -0.397   9.748  12.682
  121SBC   C02085147  -0.354   9.617  12.676
  121SBC   C01Z85148  -0.417   9.737  12.927
  121SBC   C02Y85149  -0.371   9.608  12.911
  121SBC   C03985150  -0.357   9.534  13.028
  121SBC   C02W85151  -0.440   9.791  13.049
  121SBC   C01Y85152  -0.487   9.999  12.933
  121SBC   C00U85153  -0.408   9.823  12.564
  121SBC   C00S85154  -0.362   9.770  12.448
  121SBC   C00T85155  -0.307   9.640  12.445
  121SBC   C00R85156  -0.354   9.850  12.338
  121SBC   C00Q85157  -0.294   9.799  12.226
  121SBC   C00V85158  -0.223   9.683  12.229
  121SBC   C02485159  -0.159   9.642  12.115
  121SBC   C00X85160  -0.155   9.715  12.009
  121SBC   C00P85161  -0.285   9.887  12.121
  121SBC   C00O85162  -0.336  10.020  12.123
  121SBC   C00K85163  -0.491  10.152  12.470
  121SBC   N00085164  -0.469  10.462  12.324
  121SBC   C00L85165  -0.507  10.220  12.587
  121SBC   H00485166  -0.862  10.859  12.699
  121SBC   C02Q85167  -0.730  10.569  12.807
  121SBC   C00E85168  -0.591  10.335  12.809
  121SBC   C03085169  -0.664  10.375  13.172
  121SBC   O00385170  -0.639  10.308  13.291
  121SBC   C02S85171  -0.523  10.137  12.935
  121SBC   C03885172  -0.602  10.180  13.289
  121SBC   C03L85173  -0.583  10.116  13.405
  121SBC   H00885174  -0.614  10.167  13.495
  121SBC   C02V85175  -0.482   9.925  13.050
  121SBC   C03K85176  -0.525   9.985  13.413
  121SBC   C0BK85177  -0.501   9.919  13.529
  121SBC   H00T85178  -0.531   9.977  13.616
  121SBC   C03H85179  -0.422   9.718  13.170
  121SBC   C0BL85180  -0.447   9.793  13.548
  121SBC   C0GU85181  -0.435   9.738  13.673
  121SBC   H01O85182  -0.472   9.801  13.752
  121SBC   C0GT85183  -0.398   9.603  13.695
  121SBC   H01P85184  -0.400   9.559  13.794
  121SBC   C0GS85185  -0.366   9.527  13.583
  121SBC   C0GV85186  -0.325   9.386  13.585
  121SBC   C0GW85187  -0.312   9.292  13.686
  121SBC   H01Q85188  -0.341   9.321  13.786
  121SBC   C0GX85189  -0.261   9.172  13.653
  121SBC   H01R85190  -0.243   9.103  13.734
  121SBC   O00L85191  -0.231   9.129  13.524
  121SBC   C0GQ85192  -0.294   9.349  13.453
  121SBC   C03A85193  -0.373   9.585  13.155
  121SBC   C05L85194  -0.241   9.219  13.423
  121SBC   C04W85195   0.045   8.817  13.070
  121SBC   C05I85196   0.121   8.696  13.068
  121SBC   C05O85197   0.114   8.605  13.171
  121SBC   C05285198   0.200   8.659  12.958
  121SBC   C04V85199   0.037   8.886  12.949
  121SBC   C04U85200   0.108   8.853  12.833
  121SBC   N00985201   0.037   8.642  13.282
  121SBC   C0GP85202   0.177   8.485  13.165
  121SBC   C05W85203   0.259   8.453  13.061
  121SBC   C07D85204   0.415   8.150  12.926
  121SBC   C06J85205   0.477   8.336  12.725
  121SBC   C05P85206   0.269   8.537  12.953
  121SBC   C05R85207   0.401   8.532  12.612
  121SBC   C04Z85208   0.187   8.735  12.838
  121SBC   C04C85209   0.308   8.720  12.489
  121SBC   C04G85210   0.206   8.899  12.369
  121SBC   C04J85211   0.044   9.123  12.351
  121SBC   C04T85212   0.091   8.915  12.707
  121SBC   N00385213  -0.040   9.006  12.939
  121SBC   C04P85214  -0.178   9.175  13.055
  121SBC   C03D85215  -0.311   9.405  13.029
  121SBC   C02185216  -0.342   9.550  12.794
  121SBC   C03F85217  -0.156   9.249  12.691
  121SBC   C02285218  -0.304   9.564  12.561
  121SBC   C02A85219  -0.093   9.282  12.455
  121SBC   C02385220  -0.234   9.600  12.332
  121SBC   C02585221  -0.096   9.516  12.109
  121SBC   C02D85222  -0.018   9.480  11.999
  121SBC   C02E85223   0.001   9.572  11.893
  121SBC   C02N85224   0.093   9.551  11.785
  121SBC   C04N85225  -0.029   9.238  12.341
  121SBC   C02P85226   0.060   9.366  12.004
  121SBC   C04I85227   0.122   9.090  12.241
  121SBC   C04485228   0.301   9.031  12.034
  121SBC   C04385229   0.146   9.336  11.894
  121SBC   C05N85230   0.167   9.432  11.790
  121SBC   C09U85231   0.480   9.354  11.516
  121SBC   C09V85232   0.590   9.332  11.435
  121SBC   C09X85233   0.626   9.416  11.332
  121SBC   C09Y85234   0.753   9.423  11.271
  121SBC   C0A185235   0.848   9.332  11.304
  121SBC   C0A285236   0.817   9.235  11.404
  121SBC   C0A485237   0.910   9.142  11.440
  121SBC   C07185238   0.883   9.046  11.537
  121SBC   C0A585239   0.974   8.951  11.571
  121SBC   C0A985240   1.098   8.957  11.515
  121SBC   C0A885241   1.125   9.047  11.416
  121SBC   C0AP85242   1.251   9.049  11.360
  121SBC   C0BY85243   1.280   9.148  11.273
  121SBC   C0BX85244   1.192   9.244  11.230
  121SBC   C0C285245   1.233   9.334  11.134
  121SBC   C0C385246   1.143   9.437  11.100
  121SBC   C0CT85247   1.016   9.439  11.160
  121SBC   C0C185248   1.354   9.327  11.072
  121SBC   C0C085249   1.444   9.215  11.107
  121SBC   C0A785250   1.064   9.241  11.282
  121SBC   C0BZ85251   1.400   9.138  11.206
  121SBC   C0BO85252   1.493   9.037  11.231
  121SBC   C0BN85253   1.470   8.947  11.339
  121SBC   C0BM85254   1.561   8.849  11.346
  121SBC   C0B985255   1.542   8.756  11.452
  121SBC   C0B885256   1.421   8.763  11.518
  121SBC   C0AD85257   1.320   8.859  11.486
  121SBC   C0AF85258   1.396   8.669  11.611
  121SBC   C0AG85259   1.490   8.564  11.647
  121SBC   C0B785260   1.613   8.562  11.574
  121SBC   C0AE85261   1.270   8.674  11.663
  121SBC   C0AB85262   1.170   8.763  11.630
  121SBC   C0AA85263   1.047   8.758  11.691
  121SBC   C0AJ85264   1.244   8.586  11.768
  121SBC   C0AK85265   1.118   8.580  11.821
  121SBC   C06W85266   1.117   8.465  11.892
  121SBC   C0AI85267   1.330   8.479  11.805
  121SBC   C0BP85268   1.605   9.042  11.152
  121SBC   C0BQ85269   1.700   8.933  11.159
  121SBC   C0BW85270   1.348   8.952  11.396
  121SBC   C0AC85271   1.198   8.861  11.550
  121SBC   C0A685272   1.034   9.142  11.378
  121SBC   C0A385273   0.973   9.339  11.242
  121SBC   C09Z85274   0.797   9.524  11.184
  121SBC   C09W85275   0.689   9.241  11.471
  121SBC   C07285276   0.669   9.152  11.572
  121SBC   C09H85277   0.533   9.510  11.298
  121SBC   C09G85278   0.566   9.599  11.193
  121SBC   C09P85279   0.464   9.688  11.188
  121SBC   C02O85280   0.197   9.717  11.472
  121SBC   C02M85281   0.106   9.638  11.680
  121SBC   C02F85282  -0.076   9.683  11.896
  121SBC   C00W85283  -0.229   9.831  12.015
  121SBC   C01R85284  -0.316  10.115  12.018
  121SBC   C01N85285  -0.115   9.992  11.732
  121SBC   C01L85286   0.014  10.134  11.588
  121SBC   C01H85287   0.016  10.494  11.569
  121SBC   C01K85288  -0.188  10.335  11.841
  121SBC   C01E85289  -0.232  10.597  11.906
  121SBC   C01G85290  -0.003  10.640  11.603
  121SBC   C01D85291  -0.250  10.727  11.941
  121SBC   C01A85292  -0.326  11.004  11.987
  121SBC   H00185293  -0.367  11.101  12.010
  121SBC   C01F85294  -0.058  10.909  11.685
  121SBC   C03P85295   0.057  11.138  11.551
  121SBC   C03T85296   0.182  10.989  11.415
  121SBC   C08I85297   0.374  10.925  11.229
  121SBC   C08J85298   0.470  10.879  11.143
  121SBC   C08L85299   0.586  10.702  11.027
  121SBC   C09385300   0.736  10.518  10.940
  121SBC   C08Z85301   0.526  10.339  11.028
  121SBC   C09T85302   0.919  10.091  10.887
  121SBC   C09S85303   0.577  10.042  10.980
  121SBC   C09Q85304   0.491   9.806  11.120
  121SBC   C09F85305   0.697   9.609  11.140
  121SBC   C09E85306   0.879   9.865  10.950
  121SBC   C0A085307   0.927   9.542  11.130
  121SBC   C0CU85308   1.172   9.533  11.002
  121SBC   C0CR85309   1.295   9.517  10.936
  121SBC   C0CZ85310   1.310   9.590  10.816
  121SBC   C0DA85311   0.988   9.953  10.903
  121SBC   C0D985312   1.299  10.003  10.699
  121SBC   H00V85313   1.322  10.105  10.727
  121SBC   C0CY85314   1.225   9.698  10.787
  121SBC   C0DF85315   1.389   9.924  10.609
  121SBC   C0DE85316   1.513   9.927  10.541
  121SBC   C0GI85317   1.601  10.035  10.498
  121SBC   H01K85318   1.581  10.136  10.530
  121SBC   C0GJ85319   1.711   9.998  10.425
  121SBC   H01J85320   1.777  10.081  10.403
  121SBC   O00I85321   1.743   9.869  10.390
  121SBC   C0GH85322   1.674   9.761  10.434
  121SBC   C0GG85323   1.735   9.631  10.416
  121SBC   O00G85324   1.844   9.611  10.328
  121SBC   C0G885325   1.917   9.496  10.325
  121SBC   C0G985326   2.004   9.478  10.215
  121SBC   H01G85327   2.011   9.562  10.148
  121SBC   C0GA85328   2.074   9.357  10.204
  121SBC   H01H85329   2.142   9.345  10.120
  121SBC   C0GB85330   2.079   9.262  10.311
  121SBC   C0EP85331   1.996   9.284  10.426
  121SBC   C0E885332   2.002   9.183  10.540
  121SBC   C0CK85333   1.945   9.166  10.670
  121SBC   C0CL85334   1.865   9.256  10.725
  121SBC   C0E985335   1.813   9.370  10.661
  121SBC   C0GE85336   1.812   9.436  10.532
  121SBC   C0E785337   2.095   9.084  10.537
  121SBC   C0CJ85338   2.099   9.009  10.654
  121SBC   C0E685339   2.205   8.923  10.674
  121SBC   H00Y85340   2.221   8.871  10.768
  121SBC   C0EO85341   2.282   8.895  10.555
  121SBC   H01185342   2.353   8.815  10.542
  121SBC   C0G685343   2.278   8.970  10.435
  121SBC   C0G585344   2.350   8.941  10.313
  121SBC   H01F85345   2.426   8.864  10.317
  121SBC   C0GD85346   2.317   8.995  10.198
  121SBC   H01I85347   2.361   8.958  10.107
  121SBC   O00H85348   2.232   9.106  10.194
  121SBC   C0EQ85349   2.182   9.075  10.428
  121SBC   C0GC85350   2.167   9.149  10.312
  121SBC   C0G785351   1.907   9.402  10.433
  121SBC   C0DD85352   1.548   9.789  10.498
  121SBC   C0GF85353   1.715   9.540  10.508
  121SBC   C0CO85354   1.732   9.419  10.757
  121SBC   C0D085355   1.419   9.548  10.738
  121SBC   C0C485356   1.390   9.415  10.978
  121SBC   C0CN85357   1.757   9.369  10.884
  121SBC   C0CP85358   1.567   9.152  11.072
  121SBC   C0CM85359   1.837   9.256  10.870
  121SBC   C0CI85360   1.987   9.041  10.738
  121SBC   C0CD85361   2.033   8.629  10.991
  121SBC   C0BR85362   1.808   8.923  11.068
  121SBC   C0CS85363   1.674   8.840  11.264
  121SBC   C0B685364   1.630   8.654  11.473
  121SBC   C0CG85365   1.961   8.608  11.223
  121SBC   C0CF85366   2.044   8.568  11.120
  121SBC   C0E585367   2.188   8.467  10.895
  121SBC   C0DT85368   2.360   8.261  10.926
  121SBC   C0DL85369   2.204   8.269  11.258
  121SBC   C0DM85370   2.198   8.195  11.375
  121SBC   C0DY85371   2.362   8.037  11.287
  121SBC   C0DU85372   2.453   8.164  10.952
  121SBC   C0F085373   2.583   7.989  10.846
  121SBC   C0F485374   2.652   7.723  10.833
  121SBC   C0FG85375   2.583   7.779  11.182
  121SBC   O00B85376   2.654   7.509  10.960
  121SBC   C0FN85377   2.573   7.681  11.270
  121SBC   C0DZ85378   2.434   7.923  11.292
  121SBC   O00C85379   2.308   7.779  11.596
  121SBC   C0FR85380   2.216   7.795  11.693
  121SBC   O00D85381   2.207   7.704  11.772
  121SBC   C0E085382   2.276   8.083  11.387
  121SBC   C0E385383   2.145   7.926  11.697
  121SBC   C0AW85384   2.050   7.955  11.797
  121SBC   C0AV85385   2.009   7.872  11.906
  121SBC   H00Q85386   2.055   7.775  11.919
  121SBC   C0AU85387   1.896   7.912  11.987
  121SBC   H00R85388   1.874   7.841  12.065
  121SBC   C0AT85389   1.817   8.015  11.952
  121SBC   C0AS85390   1.683   8.049  11.978
  121SBC   C0AR85391   1.588   7.948  12.019
  121SBC   C0BE85392   1.865   8.099  11.856
  121SBC   C0DN85393   2.102   8.226  11.472
  121SBC   C0AX85394   1.977   8.072  11.775
  121SBC   C0BB85395   1.904   8.354  11.541
  121SBC   C0BD85396   1.763   8.195  11.831
  121SBC   C0B285397   1.702   8.465  11.599
  121SBC   C0AH85398   1.459   8.463  11.744
  121SBC   C0BF85399   1.647   8.169  11.904
  121SBC   C0AL85400   1.248   8.401  11.893
  121SBC   C07U85401   1.388   8.099  12.052
  121SBC   C0AQ85402   1.471   7.989  12.084
  121SBC   C0BG85403   1.617   7.814  12.067
  121SBC   C0FY85404   1.369   7.585  12.154
  121SBC   C0BJ85405   1.637   7.686  11.988
  121SBC   H00S85406   1.680   7.677  11.889
  121SBC   C0FZ85407   1.380   7.464  12.076
  121SBC   C07S85408   1.241   7.639  12.180
  121SBC   C0G185409   1.050   7.328  12.079
  121SBC   C07K85410   0.764   7.521  12.225
  121SBC   C07H85411   0.971   7.719  12.234
  121SBC   C06B85412   0.737   7.857  12.472
  121SBC   C06N85413   0.755   8.077  12.395
  121SBC   C06685414   1.067   7.961  12.221
  121SBC   C06285415   1.030   8.224  12.073
  121SBC   C05Y85416   0.714   8.293  12.269
  121SBC   C06185417   0.954   8.306  11.983
  121SBC   C05H85418   0.664   8.521  12.025
  121SBC   C06V85419   0.990   8.430  11.931
  121SBC   C06Y85420   1.012   8.660  11.780
  121SBC   C05C85421   0.671   8.749  11.878
  121SBC   C06Z85422   0.944   8.852  11.661
  121SBC   C07085423   0.762   9.055  11.606
  121SBC   C05B85424   0.580   8.859  11.854
  121SBC   C05785425   0.415   9.092  11.828
  121SBC   C05985426   0.551   9.163  11.649
  122SBC   C05885427   8.073   2.261   5.162
  122SBC   C05A85428   8.166   2.154   5.153
  122SBC   C06Q85429   8.244   2.123   5.261
  122SBC   C06R85430   8.330   2.009   5.257
  122SBC   C06S85431   8.343   1.930   5.135
  122SBC   C06T85432   8.439   1.825   5.137
  122SBC   C06U85433   8.465   1.731   5.026
  122SBC   C06X85434   8.413   1.701   4.899
  122SBC   C06085435   8.502   1.616   4.821
  122SBC   C05Z85436   8.460   1.501   4.739
  122SBC   C06885437   8.561   1.397   4.768
  122SBC   C06785438   8.618   1.301   4.679
  122SBC   C06985439   8.556   1.268   4.549
  122SBC   C06A85440   8.615   1.206   4.433
  122SBC   C07385441   8.746   1.199   4.384
  122SBC   C07P85442   8.781   1.247   4.254
  122SBC   C07O85443   8.691   1.297   4.152
  122SBC   H00D85444   8.585   1.306   4.171
  122SBC   C07N85445   8.728   1.342   4.024
  122SBC   H00E85446   8.653   1.379   3.956
  122SBC   C07M85447   8.861   1.319   3.990
  122SBC   H00F85448   8.885   1.341   3.888
  122SBC   C07L85449   8.958   1.265   4.082
  122SBC   C07Q85450   9.098   1.242   4.045
  122SBC   H00G85451   9.128   1.268   3.944
  122SBC   O00F85452   9.193   1.200   4.134
  122SBC   C07J85453   9.150   1.169   4.259
  122SBC   C07I85454   9.015   1.182   4.299
  122SBC   N00485455   8.974   1.145   4.428
  122SBC   C07R85456   9.076   1.079   4.513
  122SBC   C07T85457   9.206   1.064   4.461
  122SBC   C0FX85458   9.313   1.027   4.540
  122SBC   C0FW85459   9.450   1.045   4.517
  122SBC   C0G085460   9.483   1.082   4.388
  122SBC   C0G285461   9.617   1.094   4.351
  122SBC   H01E85462   9.637   1.131   4.251
  122SBC   C0G385463   9.723   1.068   4.442
  122SBC   H01C85464   9.826   1.078   4.411
  122SBC   C0G485465   9.690   1.034   4.575
  122SBC   H01D85466   9.771   1.011   4.642
  122SBC   O00E85467   9.379   1.118   4.297
  122SBC   C0FV85468   9.550   1.021   4.615
  122SBC   C0FU85469   9.502   0.989   4.750
  122SBC   H01B85470   9.564   0.992   4.838
  122SBC   C0FT85471   9.363   0.960   4.770
  122SBC   C0FS85472   9.279   0.923   4.877
  122SBC   C0BI85473   9.150   0.907   4.832
  122SBC   C0BH85474   9.063   0.934   4.935
  122SBC   C07F85475   8.965   1.033   4.933
  122SBC   C07E85476   8.887   1.077   4.824
  122SBC   C07G85477   8.915   1.071   4.692
  122SBC   C07485478   8.824   1.147   4.616
  122SBC   C06585479   8.791   1.183   4.836
  122SBC   C06485480   8.789   1.245   4.962
  122SBC   C06385481   8.706   1.354   5.004
  122SBC   C07585482   8.746   1.380   5.146
  122SBC   C0AM85483   8.845   1.285   5.191
  122SBC   C0AN85484   8.907   1.279   5.330
  122SBC   C0AO85485   8.889   1.365   5.454
  122SBC   C0B185486   8.957   1.332   5.576
  122SBC   C0B085487   9.043   1.220   5.595
  122SBC   C0AZ85488   9.117   1.186   5.711
  122SBC   C0AY85489   9.197   1.073   5.707
  122SBC   N00785490   9.262   1.034   5.822
  122SBC   C0E285491   9.342   0.922   5.816
  122SBC   C0E185492   9.404   0.877   5.937
  122SBC   C0E485493   9.492   0.767   5.942
  122SBC   C0FF85494   9.564   0.726   6.055
  122SBC   C0FJ85495   9.668   0.632   6.084
  122SBC   C0FK85496   9.770   0.583   5.992
  122SBC   H01685497   9.780   0.577   5.884
  122SBC   C0FL85498   9.881   0.542   6.078
  122SBC   H01785499   9.980   0.513   6.047
  122SBC   C0FM85500   9.849   0.569   6.214
  122SBC   C0FH85501   9.900   0.599   6.349
  122SBC   C0FI85502   9.791   0.660   6.404
  122SBC   C0F385503   9.812   0.761   6.495
  122SBC   C0F285504   9.718   0.860   6.490
  122SBC   C0DW85505   9.617   0.874   6.397
  122SBC   C0FE85506   9.601   0.786   6.296
  122SBC   C0DV85507   9.540   0.989   6.389
  122SBC   C0DX85508   9.462   1.013   6.274
  122SBC   C0DK85509   9.392   1.135   6.273
  122SBC   C0DJ85510   9.407   1.230   6.376
  122SBC   C0DI85511   9.324   1.345   6.377
  122SBC   C0DH85512   9.235   1.366   6.269
  122SBC   C0DG85513   9.233   1.282   6.158
  122SBC   C0BV85514   9.156   1.311   6.049
  122SBC   C0BC85515   9.164   1.228   5.938
  122SBC   C0BA85516   9.077   1.422   6.048
  122SBC   C0B485517   9.010   1.459   5.930
  122SBC   C0B385518   9.018   1.377   5.817
  122SBC   C0B585519   8.922   1.569   5.937
  122SBC   C0BU85520   8.906   1.644   6.057
  122SBC   C0BT85521   8.983   1.612   6.169
  122SBC   C0BS85522   8.973   1.696   6.288
  122SBC   C0CC85523   9.067   1.674   6.387
  122SBC   C0CB85524   9.075   1.765   6.492
  122SBC   C0CH85525   9.187   1.755   6.574
  122SBC   C0DO85526   9.269   1.643   6.582
  122SBC   C0DP85527   9.380   1.633   6.672
  122SBC   C0EA85528   9.409   1.733   6.778
  122SBC   H01285529   9.350   1.823   6.781
  122SBC   O00985530   9.508   1.720   6.868
  122SBC   C0EH85531   9.596   1.619   6.849
  122SBC   C0EG85532   9.711   1.620   6.928
  122SBC   C0EJ85533   9.763   1.720   7.022
  122SBC   H01085534   9.720   1.816   7.046
  122SBC   C0EK85535   9.885   1.660   7.090
  122SBC   H00Z85536   9.937   1.710   7.170
  122SBC   C0EL85537   9.900   1.535   7.022
  122SBC   C0EM85538  10.006   1.437   7.026
  122SBC   C0EW85539  10.127   1.439   7.097
  122SBC   H01385540  10.154   1.524   7.157
  122SBC   C0EX85541  10.223   1.329   7.078
  122SBC   H01485542  10.311   1.325   7.141
  122SBC   C0F185543  10.193   1.218   6.992
  122SBC   C0EU85544  10.078   1.222   6.922
  122SBC   C0ET85545  10.039   1.126   6.825
  122SBC   C0ES85546   9.912   1.183   6.783
  122SBC   C0EE85547   9.881   1.309   6.844
  122SBC   C0ED85548   9.782   1.407   6.843
  122SBC   C0EC85549   9.670   1.406   6.753
  122SBC   C0EB85550   9.633   1.305   6.667
  122SBC   C0EN85551   9.697   1.175   6.664
  122SBC   C0ER85552   9.657   1.072   6.575
  122SBC   C0DS85553   9.528   1.311   6.571
  122SBC   C0DR85554   9.449   1.425   6.570
  122SBC   C0EY85555   9.818   1.112   6.715
  122SBC   C0EZ85556   9.844   0.983   6.664
  122SBC   C0F585557   9.955   0.886   6.650
  122SBC   C0F685558  10.082   0.899   6.712
  122SBC   N00885559  10.181   0.800   6.685
  122SBC   C0F785560  10.165   0.699   6.578
  122SBC   C0FQ85561  10.268   0.605   6.563
  122SBC   H01885562  10.258   0.524   6.492
  122SBC   C0FP85563  10.385   0.609   6.641
  122SBC   H01985564  10.456   0.530   6.624
  122SBC   C0FO85565  10.406   0.708   6.735
  122SBC   H01A85566  10.494   0.720   6.795
  122SBC   C0F885567  10.039   0.692   6.513
  122SBC   C0F985568  10.300   0.806   6.757
  122SBC   C0FA85569  10.338   0.908   6.846
  122SBC   H01585570  10.435   0.911   6.893
  122SBC   C0FB85571  10.245   1.011   6.869
  122SBC   C0FD85572  10.123   1.006   6.805
  122SBC   C0FC85573  10.285   1.108   6.967
  122SBC   O00A85574  10.384   1.094   7.037
  122SBC   C0EV85575   9.991   1.332   6.933
  122SBC   C0EF85576   9.797   1.517   6.925
  122SBC   C0EI85577   9.576   1.514   6.756
  122SBC   C0DQ85578   9.468   1.525   6.664
  122SBC   C0CE85579   9.258   1.548   6.483
  122SBC   H00U85580   9.209   1.842   6.633
  122SBC   C0CA85581   8.962   1.846   6.527
  122SBC   C0C985582   8.858   1.866   6.424
  122SBC   C0C885583   8.739   1.941   6.475
  122SBC   C0C785584   8.638   2.015   6.397
  122SBC   C0C685585   8.542   2.088   6.470
  122SBC   C0C585586   8.441   2.198   6.457
  122SBC   C0CQ85587   8.409   2.266   6.572
  122SBC   C0D185588   8.498   2.248   6.679
  122SBC   C0D885589   8.524   2.367   6.743
  122SBC   C0D785590   8.420   2.457   6.702
  122SBC   C0D685591   8.413   2.595   6.732
  122SBC   C0D585592   8.305   2.674   6.688
  122SBC   C0D485593   8.201   2.651   6.588
  122SBC   C0D385594   8.159   2.776   6.538
  122SBC   C0CX85595   8.122   2.759   6.399
  122SBC   C0CW85596   8.183   2.636   6.349
  122SBC   C0CV85597   8.210   2.576   6.214
  122SBC   C0D285598   8.169   2.641   6.096
  122SBC   C09D85599   8.103   2.768   6.078
  122SBC   C09C85600   8.059   2.819   5.953
  122SBC   C09B85601   7.979   2.935   5.931
  122SBC   C09A85602   7.926   2.997   6.045
  122SBC   C09985603   7.979   2.968   6.160
  122SBC   C09885604   7.894   3.017   6.262
  122SBC   C08Y85605   7.774   3.060   6.192
  122SBC   C08X85606   7.645   3.102   6.241
  122SBC   C08W85607   7.617   3.088   6.381
  122SBC   C08U85608   7.703   3.021   6.486
  122SBC   C08V85609   7.822   2.940   6.488
  122SBC   C0DC85610   7.851   2.907   6.623
  122SBC   H00W85611   7.943   2.853   6.641
  122SBC   C0DB85612   7.750   2.957   6.707
  122SBC   H00X85613   7.751   2.941   6.814
  122SBC   C08T85614   7.665   3.030   6.620
  122SBC   C08S85615   7.554   3.098   6.663
  122SBC   H00N85616   7.529   3.096   6.768
  122SBC   C08R85617   7.458   3.155   6.576
  122SBC   C08Q85618   7.338   3.213   6.610
  122SBC   H00O85619   7.306   3.228   6.712
  122SBC   C08P85620   7.239   3.262   6.521
  122SBC   C08O85621   7.118   3.324   6.559
  122SBC   H00P85622   7.086   3.349   6.659
  122SBC   C08N85623   7.024   3.353   6.457
  122SBC   C08M85624   6.898   3.423   6.503
  122SBC   O00885625   6.876   3.467   6.621
  122SBC   O00785626   6.799   3.443   6.407
  122SBC   C08H85627   6.825   3.411   6.277
  122SBC   C08G85628   6.725   3.419   6.172
  122SBC   C03V85629   6.590   3.459   6.191
  122SBC   H00985630   6.563   3.490   6.291
  122SBC   C03U85631   6.493   3.467   6.085
  122SBC   C03W85632   6.354   3.512   6.102
  122SBC   H00A85633   6.317   3.527   6.202
  122SBC   C03X85634   6.282   3.524   5.988
  122SBC   H00B85635   6.178   3.554   5.998
  122SBC   O00585636   6.324   3.518   5.859
  122SBC   C03O85637   6.447   3.456   5.843
  122SBC   C03N85638   6.493   3.421   5.717
  122SBC   O00085639   6.409   3.430   5.608
  122SBC   C01985640   6.445   3.401   5.484
  122SBC   C01885641   6.575   3.347   5.452
  122SBC   C01785642   6.668   3.339   5.560
  122SBC   C01685643   6.798   3.293   5.531
  122SBC   C01585644   6.826   3.278   5.397
  122SBC   C01485645   6.960   3.251   5.358
  122SBC   C01385646   7.055   3.235   5.459
  122SBC   C01285647   7.166   3.177   5.384
  122SBC   C01185648   7.130   3.179   5.248
  122SBC   C01085649   7.210   3.139   5.143
  122SBC   C00Z85650   7.190   3.140   5.010
  122SBC   C00Y85651   7.304   3.073   4.969
  122SBC   C01O85652   7.407   3.065   5.058
  122SBC   C01P85653   7.493   2.954   5.061
  122SBC   C02L85654   7.548   2.923   5.182
  122SBC   C02K85655   7.507   2.993   5.296
  122SBC   C01M85656   7.386   3.073   5.303
  122SBC   C02J85657   7.593   2.978   5.402
  122SBC   C02I85658   7.582   3.043   5.521
  122SBC   C02H85659   7.480   3.122   5.577
  122SBC   C01Q85660   7.353   3.155   5.532
  122SBC   C02G85661   7.282   3.219   5.638
  122SBC   C08985662   7.376   3.250   5.734
  122SBC   C08885663   7.314   3.242   5.861
  122SBC   C08785664   7.170   3.243   5.826
  122SBC   C08685665   7.069   3.276   5.912
  122SBC   C03S85666   6.931   3.314   5.884
  122SBC   N00685667   6.878   3.352   6.005
  122SBC   C08F85668   6.969   3.341   6.106
  122SBC   C01J85669   6.848   3.320   5.771
  122SBC   C03R85670   6.712   3.363   5.797
  122SBC   C03Q85671   6.665   3.394   5.932
  122SBC   C08E85672   7.083   3.288   6.054
  122SBC   C08D85673   7.191   3.264   6.142
  122SBC   C08K85674   7.172   3.275   6.282
  122SBC   C08C85675   7.321   3.221   6.111
  122SBC   C09185676   7.415   3.187   6.211
  122SBC   C09285677   7.393   3.193   6.349
  122SBC   C08B85678   7.381   3.206   5.984
  122SBC   C09085679   7.519   3.160   6.014
  122SBC   C09485680   7.630   3.171   5.920
  122SBC   C09585681   7.752   3.110   5.939
  122SBC   C09R85682   7.799   3.048   5.824
  122SBC   C09785683   7.703   3.060   5.728
  122SBC   C09685684   7.605   3.144   5.783
  122SBC   C01I85685   7.148   3.238   5.682
  122SBC   C08A85686   7.496   3.177   5.706
  122SBC   C09L85687   7.692   3.004   5.600
  122SBC   C09K85688   7.771   2.916   5.525
  122SBC   C09J85689   7.895   2.863   5.564
  122SBC   C09I85690   7.941   2.735   5.515
  122SBC   C09O85691   7.915   2.651   5.396
  122SBC   C09N85692   7.823   2.688   5.294
  122SBC   C09M85693   7.728   2.794   5.291
  122SBC   C06O85694   7.828   2.608   5.173
  122SBC   C05M85695   7.908   2.493   5.171
  122SBC   C06P85696   7.987   2.454   5.281
  122SBC   C04285697   7.916   2.416   5.053
  122SBC   C04185698   7.830   2.441   4.949
  122SBC   C04085699   7.819   2.350   4.841
  122SBC   C03Z85700   7.731   2.371   4.738
  122SBC   C03Y85701   7.662   2.489   4.729
  122SBC   C02785702   7.572   2.506   4.626
  122SBC   C02685703   7.496   2.626   4.622
  122SBC   C02885704   7.400   2.642   4.522
  122SBC   C02985705   7.382   2.542   4.425
  122SBC   C02B85706   7.277   2.555   4.338
  122SBC   C02C85707   7.265   2.455   4.242
  122SBC   C02X85708   7.153   2.459   4.165
  122SBC   C03E85709   7.136   2.345   4.079
  122SBC   C03G85710   7.214   2.232   4.074
  122SBC   C04Q85711   7.323   2.231   4.153
  122SBC   C04R85712   7.402   2.125   4.152
  122SBC   C04S85713   7.505   2.113   4.239
  122SBC   C04L85714   7.517   2.214   4.337
  122SBC   C04M85715   7.447   2.333   4.332
  122SBC   C04K85716   7.611   2.199   4.437
  122SBC   C04F85717   7.692   2.086   4.433
  122SBC   C04E85718   7.682   1.986   4.336
  122SBC   C04D85719   7.769   1.875   4.327
  122SBC   C05085720   7.752   1.774   4.238
  122SBC   C05185721   7.842   1.670   4.238
  122SBC   C05Q85722   7.823   1.567   4.145
  122SBC   C05V85723   7.904   1.454   4.147
  122SBC   N00585724   7.888   1.353   4.053
  122SBC   C07V85725   7.782   1.364   3.967
  122SBC   C08285726   7.755   1.255   3.881
  122SBC   C08185727   7.833   1.143   3.876
  122SBC   C07C85728   7.955   1.144   3.950
  122SBC   C07B85729   8.046   1.042   3.943
  122SBC   C08085730   8.024   0.939   3.858
  122SBC   C07Z85731   8.124   0.841   3.847
  122SBC   H00L85732   8.106   0.761   3.777
  122SBC   C07985733   8.245   0.842   3.917
  122SBC   C07885734   8.259   0.948   4.007
  122SBC   C07785735   8.374   0.954   4.082
  122SBC   C07X85736   8.476   0.861   4.069
  122SBC   H00I85737   8.560   0.847   4.136
  122SBC   C07Y85738   8.458   0.750   3.985
  122SBC   H00H85739   8.531   0.671   3.982
  122SBC   C07685740   8.389   1.054   4.179
  122SBC   C06C85741   8.512   1.073   4.244
  122SBC   H00C85742   8.600   1.018   4.215
  122SBC   C06F85743   8.282   1.147   4.198
  122SBC   C06E85744   8.285   1.234   4.309
  122SBC   C06G85745   8.204   1.338   4.325
  122SBC   C06H85746   8.102   1.347   4.230
  122SBC   C06I85747   8.082   1.245   4.134
  122SBC   C06L85748   8.228   1.434   4.431
  122SBC   C06M85749   8.328   1.413   4.532
  122SBC   C06K85750   8.135   1.537   4.434
  122SBC   C05S85751   8.034   1.550   4.334
  122SBC   C05U85752   8.152   1.638   4.532
  122SBC   C05X85753   8.254   1.631   4.632
  122SBC   C05G85754   8.242   1.733   4.731
  122SBC   C05F85755   8.143   1.826   4.721
  122SBC   C05E85756   8.151   1.921   4.825
  122SBC   C04885757   8.068   2.028   4.830
  122SBC   C05685758   8.078   2.110   4.935
  122SBC   C04585759   7.994   2.216   4.940
  122SBC   C04785760   7.978   2.044   4.725
  122SBC   C04985761   7.966   1.953   4.623
  122SBC   C04B85762   7.875   1.965   4.526
  122SBC   C04685763   7.890   2.148   4.732
  122SBC   C04H85764   7.799   2.167   4.628
  122SBC   C05D85765   8.257   1.893   4.903
  122SBC   C04A85766   8.047   1.840   4.618
  122SBC   C05T85767   8.052   1.745   4.522
  122SBC   C05585768   7.962   1.762   4.422
  122SBC   C06D85769   8.398   1.228   4.393
  122SBC   C07W85770   8.172   1.144   4.120
  122SBC   C08585771   8.345   0.744   3.908
  122SBC   H00M85772   8.332   0.659   3.844
  122SBC   C08485773   7.906   0.932   3.786
  122SBC   H00J85774   7.884   0.843   3.729
  122SBC   C07A85775   8.161   1.045   4.021
  122SBC   C08385776   7.810   1.032   3.786
  122SBC   H00K85777   7.718   1.034   3.730
  122SBC   O00K85778   7.642   1.250   3.807
  122SBC   C0GO85779   7.558   1.362   3.804
  122SBC   C0GN85780   7.454   1.361   3.721
  122SBC   H01L85781   7.443   1.279   3.650
  122SBC   C0GM85782   7.356   1.464   3.725
  122SBC   C0GL85783   7.249   1.456   3.641
  122SBC   H01M85784   7.238   1.364   3.587
  122SBC   O00J85785   7.153   1.560   3.640
  122SBC   C0GK85786   7.176   1.663   3.732
  122SBC   H01N85787   7.090   1.729   3.733
  122SBC   C05K85788   7.289   1.680   3.807
  122SBC   C05J85789   7.313   1.791   3.890
  122SBC   C04Y85790   7.233   1.908   3.904
  122SBC   C04X85791   7.262   2.019   3.986
  122SBC   O00685792   7.117   1.917   3.829
  122SBC   C05385793   7.019   2.013   3.844
  122SBC   C04O85794   7.047   2.117   3.930
  122SBC   C03C85795   6.962   2.232   3.956
  122SBC   C03B85796   6.825   2.262   3.931
  122SBC   C05485797   6.745   2.181   3.857
  122SBC   C0GR85798   6.608   2.205   3.837
  122SBC   C03M85799   6.514   2.308   3.881
  122SBC   C03I85800   6.544   2.427   3.961
  122SBC   C03J85801   6.437   2.514   4.002
  122SBC   N00285802   6.460   2.619   4.094
  122SBC   C02U85803   6.352   2.694   4.148
  122SBC   C02T85804   6.376   2.805   4.229
  122SBC   C02Z85805   6.269   2.886   4.273
  122SBC   N00185806   6.287   2.992   4.365
  122SBC   C02R85807   6.173   3.064   4.411
  122SBC   C03285808   6.043   3.029   4.370
  122SBC   C03185809   6.027   2.920   4.285
  122SBC   H00785810   5.935   2.872   4.254
  122SBC   C03385811   5.935   3.109   4.427
  122SBC   H00385812   5.840   3.091   4.377
  122SBC   O00485813   5.955   3.214   4.520
  122SBC   C03485814   6.084   3.244   4.553
  122SBC   C03585815   6.101   3.346   4.649
  122SBC   C03685816   6.231   3.388   4.684
  122SBC   H00585817   6.250   3.459   4.763
  122SBC   C03785818   6.345   3.317   4.632
  122SBC   H00685819   6.445   3.340   4.665
  122SBC   C00D85820   6.321   3.199   4.552
  122SBC   C00C85821   6.429   3.115   4.517
  122SBC   C00B85822   6.562   3.124   4.578
  122SBC   C00A85823   6.636   3.193   4.690
  122SBC   C00985824   6.773   3.162   4.661
  122SBC   C00885825   6.877   3.160   4.756
  122SBC   C00785826   6.844   3.194   4.886
  122SBC   C00685827   6.948   3.182   4.980
  122SBC   C00585828   6.906   3.219   5.118
  122SBC   C00485829   6.773   3.249   5.162
  122SBC   C00385830   6.679   3.251   5.061
  122SBC   C00285831   6.544   3.279   5.089
  122SBC   C01C85832   6.508   3.320   5.219
  122SBC   C01B85833   6.386   3.382   5.245
  122SBC   H00085834   6.310   3.392   5.169
  122SBC   C00185835   6.443   3.259   4.992
  122SBC   C00085836   6.484   3.200   4.872
  122SBC   C01U85837   6.381   3.109   4.848
  122SBC   H00285838   6.389   3.032   4.773
  122SBC   C01T85839   6.263   3.140   4.932
  122SBC   O00285840   6.145   3.102   4.941
  122SBC   O00185841   6.319   3.219   5.026
  122SBC   C01S85842   6.714   3.218   4.927
  122SBC   C00N85843   6.990   3.098   4.716
  122SBC   C00M85844   6.997   3.024   4.598
  122SBC   C00J85845   6.894   3.020   4.507
  122SBC   C00I85846   6.874   2.928   4.408
  122SBC   C00H85847   6.753   2.906   4.352
  122SBC   C00G85848   6.646   2.981   4.388
  122SBC   C00F85849   6.518   2.949   4.358
  122SBC   C01X85850   6.733   2.797   4.273
  122SBC   C01W85851   6.839   2.720   4.231
  122SBC   C01V85852   6.966   2.741   4.290
  122SBC   C02085853   7.073   2.655   4.265
  122SBC   C01Z85854   6.824   2.618   4.141
  122SBC   C02Y85855   6.935   2.541   4.113
  122SBC   C03985856   6.912   2.436   4.031
  122SBC   C02W85857   6.696   2.582   4.090
  122SBC   C01Y85858   6.606   2.765   4.224
  122SBC   C00U85859   6.979   2.844   4.387
  122SBC   C00S85860   7.092   2.846   4.469
  122SBC   C00T85861   7.197   2.755   4.447
  122SBC   C00R85862   7.106   2.937   4.573
  122SBC   C00Q85863   7.208   2.930   4.661
  122SBC   C00V85864   7.308   2.833   4.640
  122SBC   C02485865   7.405   2.814   4.737
  122SBC   C00X85866   7.410   2.900   4.841
  122SBC   C00P85867   7.204   3.005   4.773
  122SBC   C00O85868   7.094   3.082   4.805
  122SBC   C00K85869   6.790   3.104   4.537
  122SBC   N00085870   6.613   3.189   4.829
  122SBC   C00L85871   6.663   3.069   4.494
  122SBC   H00485872   6.010   3.385   4.691
  122SBC   C02Q85873   6.193   3.170   4.504
  122SBC   C00E85874   6.413   3.017   4.419
  122SBC   C03085875   6.132   2.847   4.240
  122SBC   O00385876   6.112   2.734   4.169
  122SBC   C02S85877   6.502   2.841   4.269
  122SBC   C03885878   6.221   2.660   4.120
  122SBC   C03L85879   6.198   2.554   4.030
  122SBC   H00885880   6.093   2.534   4.010
  122SBC   C02V85881   6.588   2.662   4.132
  122SBC   C03K85882   6.302   2.489   3.967
  122SBC   C0BK85883   6.285   2.382   3.883
  122SBC   H00T85884   6.181   2.363   3.861
  122SBC   C03H85885   6.673   2.467   4.010
  122SBC   C0BL85886   6.384   2.293   3.840
  122SBC   C0GU85887   6.347   2.196   3.746
  122SBC   H01O85888   6.247   2.191   3.706
  122SBC   C0GT85889   6.431   2.099   3.697
  122SBC   H01P85890   6.404   2.026   3.622
  122SBC   C0GS85891   6.558   2.104   3.752
  122SBC   C0GV85892   6.661   2.010   3.721
  122SBC   C0GW85893   6.666   1.897   3.633
  122SBC   H01Q85894   6.578   1.871   3.576
  122SBC   C0GX85895   6.786   1.836   3.622
  122SBC   H01R85896   6.791   1.762   3.544
  122SBC   O00L85897   6.898   1.868   3.692
  122SBC   C0GQ85898   6.780   2.060   3.784
  122SBC   C03A85899   6.790   2.389   3.988
  122SBC   C05L85900   6.894   1.983   3.775
  122SBC   C04W85901   7.429   1.795   3.965
  122SBC   C05I85902   7.513   1.683   3.974
  122SBC   C05O85903   7.492   1.574   3.899
  122SBC   C05285904   7.631   1.682   4.056
  122SBC   C04V85905   7.454   1.902   4.053
  122SBC   C04U85906   7.566   1.902   4.142
  122SBC   N00985907   7.382   1.575   3.810
  122SBC   C0GP85908   7.580   1.468   3.894
  122SBC   C05W85909   7.691   1.468   3.975
  122SBC   C07D85910   7.979   1.244   4.043
  122SBC   C06J85911   8.012   1.450   4.237
  122SBC   C05P85912   7.711   1.572   4.062
  122SBC   C05R85913   7.947   1.660   4.331
  122SBC   C04Z85914   7.650   1.791   4.143
  122SBC   C04C85915   7.869   1.869   4.423
  122SBC   C04G85916   7.790   2.072   4.528
  122SBC   C04J85917   7.628   2.294   4.532
  122SBC   C04T85918   7.579   1.995   4.246
  122SBC   N00385919   7.377   2.017   4.062
  122SBC   C04P85920   7.176   2.124   3.994
  122SBC   C03D85921   7.015   2.345   4.011
  122SBC   C02185922   7.057   2.555   4.176
  122SBC   C03F85923   7.346   2.344   4.240
  122SBC   C02285924   7.186   2.664   4.344
  122SBC   C02A85925   7.463   2.430   4.427
  122SBC   C02385926   7.306   2.746   4.535
  122SBC   C02585927   7.498   2.708   4.730
  122SBC   C02D85928   7.585   2.684   4.837
  122SBC   C02E85929   7.580   2.766   4.950
  122SBC   C02N85930   7.660   2.743   5.064
  122SBC   C04N85931   7.553   2.410   4.526
  122SBC   C02P85932   7.666   2.576   4.840
  122SBC   C04I85933   7.713   2.277   4.633
  122SBC   C04485934   7.897   2.235   4.842
  122SBC   C04385935   7.756   2.557   4.948
  122SBC   C05N85936   7.752   2.640   5.061
  122SBC   C09U85937   7.991   2.534   5.390
  122SBC   C09V85938   8.063   2.489   5.499
  122SBC   C09X85939   8.085   2.564   5.610
  122SBC   C09Y85940   8.137   2.529   5.734
  122SBC   C0A185941   8.200   2.406   5.735
  122SBC   C0A285942   8.201   2.330   5.620
  122SBC   C0A485943   8.285   2.219   5.614
  122SBC   C07185944   8.305   2.152   5.492
  122SBC   C0A585945   8.387   2.042   5.488
  122SBC   C0A985946   8.452   2.000   5.606
  122SBC   C0A885947   8.428   2.063   5.724
  122SBC   C0AP85948   8.493   2.018   5.836
  122SBC   C0BY85949   8.477   2.093   5.948
  122SBC   C0BX85950   8.386   2.195   5.965
  122SBC   C0C285951   8.374   2.261   6.085
  122SBC   C0C385952   8.298   2.380   6.099
  122SBC   C0CT85953   8.247   2.436   5.973
  122SBC   C0C185954   8.439   2.216   6.203
  122SBC   C0C085955   8.543   2.110   6.185
  122SBC   C0A785956   8.326   2.240   5.853
  122SBC   C0BZ85957   8.558   2.055   6.060
  122SBC   C0BO85958   8.644   1.956   6.052
  122SBC   C0BN85959   8.656   1.873   5.945
  122SBC   C0BM85960   8.746   1.772   5.948
  122SBC   C0B985961   8.761   1.701   5.827
  122SBC   C0B885962   8.699   1.740   5.711
  122SBC   C0AD85963   8.606   1.846   5.718
  122SBC   C0AF85964   8.716   1.676   5.592
  122SBC   C0AG85965   8.794   1.557   5.585
  122SBC   C0B785966   8.865   1.521   5.705
  122SBC   C0AE85967   8.644   1.720   5.486
  122SBC   C0AB85968   8.557   1.824   5.485
  122SBC   C0AA85969   8.490   1.869   5.370
  122SBC   C0AJ85970   8.669   1.659   5.363
  122SBC   C0AK85971   8.596   1.695   5.252
  122SBC   C06W85972   8.633   1.608   5.157
  122SBC   C0AI85973   8.745   1.541   5.350
  122SBC   C0BP85974   8.709   1.940   6.169
  122SBC   C0BQ85975   8.798   1.825   6.178
  122SBC   C0BW85976   8.584   1.912   5.834
  122SBC   C0AC85977   8.536   1.890   5.604
  122SBC   C0A685978   8.344   2.175   5.731
  122SBC   C0A385979   8.253   2.359   5.855
  122SBC   C09Z85980   8.139   2.610   5.853
  122SBC   C09W85981   8.126   2.366   5.501
  122SBC   C07285982   8.141   2.297   5.386
  122SBC   C09H85983   8.037   2.690   5.612
  122SBC   C09G85984   8.027   2.772   5.722
  122SBC   C09P85985   7.949   2.884   5.696
  122SBC   C02O85986   7.701   2.890   5.404
  122SBC   C02M85987   7.647   2.818   5.181
  122SBC   C02F85988   7.494   2.876   4.951
  122SBC   C00W85989   7.313   2.997   4.852
  122SBC   C01R85990   7.075   3.151   4.928
  122SBC   C01N85991   7.340   3.091   5.172
  122SBC   C01L85992   7.303   3.126   5.410
  122SBC   C01H85993   7.028   3.251   5.600
  122SBC   C01K85994   6.999   3.220   5.224
  122SBC   C01E85995   6.734   3.279   5.293
  122SBC   C01G85996   6.892   3.286   5.639
  122SBC   C01D85997   6.606   3.311   5.322
  122SBC   C01A85998   6.356   3.422   5.378
  122SBC   H00185999   6.258   3.458   5.406
  122SBC   C01F86000   6.624   3.374   5.691
  122SBC   C03P86001   6.533   3.431   5.954
  122SBC   C03T86002   6.752   3.389   6.039
  122SBC   C08I86003   6.949   3.366   6.237
  122SBC   C08J86004   7.047   3.329   6.327
  122SBC   C08L86005   7.269   3.246   6.381
  122SBC   C09386006   7.495   3.145   6.439
  122SBC   C08Z86007   7.537   3.146   6.155
  122SBC   C09T86008   7.909   2.925   6.376
  122SBC   C09S86009   7.809   3.066   6.057
  122SBC   C09Q86010   7.910   2.959   5.812
  122SBC   C09F86011   8.077   2.735   5.850
  122SBC   C09E86012   8.037   2.842   6.183
  122SBC   C0A086013   8.185   2.563   5.977
  122SBC   C0CU86014   8.278   2.446   6.222
  122SBC   C0CR86015   8.323   2.386   6.341
  122SBC   C0CZ86016   8.306   2.453   6.464
  122SBC   C0DA86017   8.019   2.837   6.328
  122SBC   C0D986018   8.262   2.876   6.581
  122SBC   H00V86019   8.276   2.977   6.544
  122SBC   C0CY86020   8.233   2.575   6.465
  122SBC   C0DF86021   8.354   2.803   6.666
  122SBC   C0DE86022   8.474   2.812   6.748
  122SBC   C0GI86023   8.562   2.918   6.801
  122SBC   H01K86024   8.535   3.020   6.778
  122SBC   C0GJ86025   8.672   2.883   6.878
  122SBC   H01J86026   8.743   2.958   6.910
  122SBC   O00I86027   8.709   2.750   6.908
  122SBC   C0GH86028   8.633   2.645   6.853
  122SBC   C0GG86029   8.691   2.517   6.878
  122SBC   O00G86030   8.804   2.515   6.960
  122SBC   C0G886031   8.863   2.402   6.987
  122SBC   C0G986032   8.948   2.402   7.097
  122SBC   H01G86033   8.970   2.496   7.145
  122SBC   C0GA86034   9.012   2.286   7.142
  122SBC   H01H86035   9.072   2.287   7.231
  122SBC   C0GB86036   9.007   2.166   7.064
  122SBC   C0EP86037   8.930   2.170   6.938
  122SBC   C0E886038   8.966   2.065   6.838
  122SBC   C0CK86039   8.919   2.038   6.706
  122SBC   C0CL86040   8.781   2.055   6.687
  122SBC   C0E986041   8.705   2.163   6.744
  122SBC   C0GE86042   8.735   2.283   6.822
  122SBC   C0E786043   9.027   1.946   6.883
  122SBC   C0CJ86044   9.024   1.847   6.783
  122SBC   C0E686045   9.064   1.718   6.827
  122SBC   H00Y86046   9.061   1.631   6.763
  122SBC   C0EO86047   9.107   1.706   6.963
  122SBC   H01186048   9.127   1.606   6.999
  122SBC   C0G686049   9.116   1.817   7.051
  122SBC   C0G586050   9.161   1.796   7.190
  122SBC   H01F86051   9.192   1.696   7.213
  122SBC   C0GD86052   9.154   1.902   7.275
  122SBC   H01I86053   9.180   1.886   7.378
  122SBC   O00H86054   9.115   2.029   7.236
  122SBC   C0EQ86055   9.072   1.940   7.015
  122SBC   C0GC86056   9.063   2.042   7.106
  122SBC   C0G786057   8.847   2.282   6.908
  122SBC   C0DD86058   8.514   2.679   6.778
  122SBC   C0GF86059   8.645   2.394   6.816
  122SBC   C0CO86060   8.586   2.144   6.682
  122SBC   C0D086061   8.375   2.398   6.578
  122SBC   C0C486062   8.403   2.262   6.332
  122SBC   C0CN86063   8.570   2.030   6.601
  122SBC   C0CP86064   8.647   2.034   6.262
  122SBC   C0CM86065   8.700   1.973   6.606
  122SBC   C0CI86066   8.969   1.906   6.659
  122SBC   C0CD86067   9.164   1.567   6.380
  122SBC   C0BR86068   8.870   1.795   6.299
  122SBC   C0CS86069   8.815   1.746   6.062
  122SBC   C0B686070   8.850   1.597   5.823
  122SBC   C0CG86071   9.076   1.510   6.161
  122SBC   C0CF86072   9.157   1.482   6.271
  122SBC   C0E586073   9.342   1.435   6.482
  122SBC   C0DT86074   9.502   1.210   6.477
  122SBC   C0DL86075   9.316   1.165   6.161
  122SBC   C0DM86076   9.316   1.077   6.048
  122SBC   C0DY86077   9.461   0.925   6.163
  122SBC   C0DU86078   9.557   1.088   6.481
  122SBC   C0F086079   9.733   0.959   6.584
  122SBC   C0F486080   9.938   0.783   6.554
  122SBC   C0FG86081   9.692   0.677   6.305
  122SBC   O00B86082  10.018   0.603   6.409
  122SBC   C0FN86083   9.711   0.589   6.207
  122SBC   C0DZ86084   9.542   0.809   6.171
  122SBC   O00C86085   9.513   0.704   5.820
  122SBC   C0FR86086   9.443   0.720   5.706
  122SBC   O00D86087   9.464   0.629   5.618
  122SBC   C0E086088   9.391   0.960   6.049
  122SBC   C0E386089   9.354   0.837   5.705
  122SBC   C0AW86090   9.279   0.875   5.593
  122SBC   C0AV86091   9.278   0.801   5.472
  122SBC   H00Q86092   9.336   0.712   5.450
  122SBC   C0AU86093   9.194   0.843   5.365
  122SBC   H00R86094   9.198   0.781   5.277
  122SBC   C0AT86095   9.125   0.963   5.367
  122SBC   C0AS86096   9.047   1.049   5.277
  122SBC   C0AR86097   9.079   1.055   5.136
  122SBC   C0BE86098   9.125   1.027   5.493
  122SBC   C0DN86099   9.246   1.116   5.937
  122SBC   C0AX86100   9.206   0.992   5.600
  122SBC   C0BB86101   9.095   1.265   5.822
  122SBC   C0BD86102   9.053   1.143   5.481
  122SBC   C0B286103   8.946   1.408   5.698
  122SBC   C0AH86104   8.809   1.484   5.467
  122SBC   C0BF86105   8.992   1.164   5.353
  122SBC   C0AL86106   8.718   1.507   5.212
  122SBC   C07U86107   8.869   1.201   5.077
  122SBC   C0AQ86108   8.966   1.101   5.056
  122SBC   C0BG86109   9.140   0.955   5.057
  122SBC   C0FY86110   9.141   0.955   4.699
  122SBC   C0BJ86111   9.280   0.957   5.018
  122SBC   H00S86112   9.360   1.012   5.065
  122SBC   C0FZ86113   9.276   0.976   4.663
  122SBC   C07S86114   9.035   1.024   4.636
  122SBC   C0G186115   9.247   1.123   4.344
  122SBC   C07K86116   8.915   1.227   4.212
  122SBC   C07H86117   8.843   1.165   4.475
  122SBC   C06B86118   8.507   1.159   4.356
  122SBC   C06N86119   8.420   1.305   4.507
  122SBC   C06686120   8.733   1.216   4.710
  122SBC   C06286121   8.620   1.429   4.904
  122SBC   C05Y86122   8.346   1.511   4.640
  122SBC   C06186123   8.596   1.567   4.913
  122SBC   C05H86124   8.312   1.775   4.846
  122SBC   C06V86125   8.569   1.634   5.036
  122SBC   C06Y86126   8.503   1.796   5.254
  122SBC   C05C86127   8.265   1.974   5.028
  122SBC   C06Z86128   8.401   1.976   5.371
  122SBC   C07086129   8.231   2.189   5.379
  122SBC   C05B86130   8.170   2.076   5.043
  122SBC   C05786131   7.994   2.296   5.050
  122SBC   C05986132   8.070   2.340   5.275
  123SBC   C05886133   8.112   0.560  12.049
  123SBC   C05A86134   8.033   0.602  12.157
  123SBC   C06Q86135   7.907   0.657  12.134
  123SBC   C06R86136   7.818   0.693  12.237
  123SBC   C06S86137   7.854   0.667  12.370
  123SBC   C06T86138   7.764   0.696  12.472
  123SBC   C06U86139   7.766   0.672  12.623
  123SBC   C06X86140   7.862   0.614  12.710
  123SBC   C06086141   7.805   0.601  12.842
  123SBC   C05Z86142   7.870   0.619  12.973
  123SBC   C06886143   7.768   0.693  13.050
  123SBC   C06786144   7.777   0.736  13.196
  123SBC   C06986145   7.883   0.673  13.278
  123SBC   C06A86146   7.900   0.695  13.424
  123SBC   C07386147   7.881   0.798  13.507
  123SBC   C07P86148   7.984   0.822  13.607
  123SBC   C07O86149   8.113   0.772  13.603
  123SBC   H00D86150   8.159   0.714  13.524
  123SBC   C07N86151   8.206   0.789  13.713
  123SBC   H00E86152   8.304   0.744  13.705
  123SBC   C07M86153   8.161   0.854  13.819
  123SBC   H00F86154   8.224   0.867  13.905
  123SBC   C07L86155   8.044   0.928  13.816
  123SBC   C07Q86156   8.013   1.034  13.910
  123SBC   H00G86157   8.088   1.063  13.981
  123SBC   O00F86158   7.888   1.099  13.916
  123SBC   C07J86159   7.803   1.067  13.823
  123SBC   C07I86160   7.830   0.974  13.718
  123SBC   N00486161   7.732   0.950  13.614
  123SBC   C07R86162   7.600   1.005  13.634
  123SBC   C07T86163   7.580   1.096  13.739
  123SBC   C0FX86164   7.461   1.161  13.757
  123SBC   C0FW86165   7.430   1.264  13.843
  123SBC   C0G086166   7.537   1.289  13.937
  123SBC   C0G286167   7.519   1.389  14.032
  123SBC   H01E86168   7.592   1.407  14.110
  123SBC   C0G386169   7.403   1.469  14.023
  123SBC   H01C86170   7.379   1.556  14.082
  123SBC   C0G486171   7.301   1.443  13.930
  123SBC   H01D86172   7.229   1.523  13.926
  123SBC   O00E86173   7.659   1.223  13.927
  123SBC   C0FV86174   7.308   1.336  13.840
  123SBC   C0FU86175   7.203   1.290  13.751
  123SBC   H01B86176   7.105   1.334  13.758
  123SBC   C0FT86177   7.234   1.179  13.670
  123SBC   C0FS86178   7.176   1.112  13.555
  123SBC   C0BI86179   7.241   0.984  13.539
  123SBC   C0BH86180   7.213   0.932  13.406
  123SBC   C07F86181   7.313   0.902  13.308
  123SBC   C07E86182   7.448   0.872  13.324
  123SBC   C07G86183   7.528   0.895  13.436
  123SBC   C07486184   7.655   0.861  13.402
  123SBC   C06586185   7.529   0.842  13.214
  123SBC   C06486186   7.467   0.843  13.090
  123SBC   C06386187   7.525   0.812  12.969
  123SBC   C07586188   7.430   0.865  12.871
  123SBC   C0AM86189   7.317   0.932  12.927
  123SBC   C0AN86190   7.220   1.021  12.859
  123SBC   C0AO86191   7.189   1.048  12.710
  123SBC   C0B186192   7.086   1.145  12.668
  123SBC   C0B086193   7.001   1.204  12.758
  123SBC   C0AZ86194   6.915   1.308  12.731
  123SBC   C0AY86195   6.849   1.372  12.837
  123SBC   N00786196   6.766   1.475  12.812
  123SBC   C0E286197   6.713   1.555  12.917
  123SBC   C0E186198   6.630   1.661  12.890
  123SBC   C0E486199   6.579   1.733  13.000
  123SBC   C0FF86200   6.486   1.839  12.981
  123SBC   C0FJ86201   6.440   1.948  13.065
  123SBC   C0FK86202   6.513   2.008  13.175
  123SBC   H01686203   6.593   1.960  13.228
  123SBC   C0FL86204   6.467   2.149  13.183
  123SBC   H01786205   6.499   2.232  13.244
  123SBC   C0FM86206   6.362   2.166  13.086
  123SBC   C0FH86207   6.284   2.264  13.003
  123SBC   C0FI86208   6.259   2.179  12.892
  123SBC   C0F386209   6.277   2.236  12.766
  123SBC   C0F286210   6.312   2.145  12.671
  123SBC   C0DW86211   6.349   2.016  12.687
  123SBC   C0FE86212   6.355   1.964  12.811
  123SBC   C0DV86213   6.414   1.941  12.585
  123SBC   C0DX86214   6.480   1.829  12.609
  123SBC   C0DK86215   6.546   1.762  12.505
  123SBC   C0DJ86216   6.549   1.820  12.377
  123SBC   C0DI86217   6.609   1.754  12.273
  123SBC   C0DH86218   6.678   1.635  12.290
  123SBC   C0DG86219   6.684   1.584  12.421
  123SBC   C0BV86220   6.764   1.469  12.444
  123SBC   C0BC86221   6.794   1.437  12.571
  123SBC   C0BA86222   6.831   1.401  12.336
  123SBC   C0B486223   6.919   1.300  12.369
  123SBC   C0B386224   6.948   1.267  12.500
  123SBC   C0B586225   6.989   1.243  12.272
  123SBC   C0BU86226   6.960   1.281  12.135
  123SBC   C0BT86227   6.872   1.382  12.104
  123SBC   C0BS86228   6.855   1.432  11.974
  123SBC   C0CC86229   6.784   1.552  11.951
  123SBC   C0CB86230   6.784   1.608  11.825
  123SBC   C0CH86231   6.758   1.748  11.817
  123SBC   C0DO86232   6.688   1.817  11.919
  123SBC   C0DP86233   6.629   1.940  11.898
  123SBC   C0EA86234   6.639   2.003  11.768
  123SBC   H01286235   6.689   1.964  11.680
  123SBC   O00986236   6.582   2.123  11.740
  123SBC   C0EH86237   6.530   2.187  11.847
  123SBC   C0EG86238   6.484   2.313  11.825
  123SBC   C0EJ86239   6.468   2.395  11.708
  123SBC   H01086240   6.500   2.368  11.608
  123SBC   C0EK86241   6.417   2.530  11.749
  123SBC   H00Z86242   6.381   2.612  11.689
  123SBC   C0EL86243   6.413   2.524  11.892
  123SBC   C0EM86244   6.372   2.618  11.987
  123SBC   C0EW86245   6.327   2.751  11.964
  123SBC   H01386246   6.317   2.799  11.868
  123SBC   C0EX86247   6.289   2.836  12.077
  123SBC   H01486248   6.269   2.941  12.065
  123SBC   C0F186249   6.281   2.776  12.211
  123SBC   C0EU86250   6.330   2.651  12.228
  123SBC   C0ET86251   6.323   2.575  12.345
  123SBC   C0ES86252   6.372   2.451  12.310
  123SBC   C0EE86253   6.409   2.443  12.171
  123SBC   C0ED86254   6.445   2.352  12.066
  123SBC   C0EC86255   6.471   2.211  12.089
  123SBC   C0EB86256   6.442   2.141  12.208
  123SBC   C0EN86257   6.382   2.204  12.328
  123SBC   C0ER86258   6.365   2.123  12.437
  123SBC   C0DS86259   6.498   2.011  12.230
  123SBC   C0DR86260   6.557   1.945  12.128
  123SBC   C0EY86261   6.335   2.333  12.373
  123SBC   C0EZ86262   6.290   2.336  12.510
  123SBC   C0F586263   6.268   2.430  12.619
  123SBC   C0F686264   6.258   2.568  12.595
  123SBC   N00886265   6.230   2.647  12.712
  123SBC   C0F786266   6.230   2.590  12.846
  123SBC   C0FQ86267   6.213   2.682  12.955
  123SBC   H01886268   6.225   2.656  13.059
  123SBC   C0FP86269   6.172   2.819  12.938
  123SBC   H01986270   6.147   2.880  13.023
  123SBC   C0FO86271   6.165   2.862  12.809
  123SBC   H01A86272   6.114   2.956  12.792
  123SBC   C0F886273   6.259   2.453  12.862
  123SBC   C0F986274   6.191   2.783  12.696
  123SBC   C0FA86275   6.184   2.845  12.568
  123SBC   H01586276   6.170   2.952  12.560
  123SBC   C0FB86277   6.232   2.777  12.454
  123SBC   C0FD86278   6.267   2.640  12.469
  123SBC   C0FC86279   6.231   2.844  12.327
  123SBC   O00A86280   6.192   2.960  12.313
  123SBC   C0EV86281   6.373   2.572  12.125
  123SBC   C0EF86282   6.456   2.394  11.930
  123SBC   C0EI86283   6.525   2.137  11.980
  123SBC   C0DQ86284   6.572   2.008  12.002
  123SBC   C0CE86285   6.673   1.751  12.042
  123SBC   H00U86286   6.795   1.803  11.731
  123SBC   C0CA86287   6.820   1.538  11.712
  123SBC   C0C986288   6.889   1.409  11.727
  123SBC   C0C886289   6.916   1.336  11.603
  123SBC   C0C786290   7.006   1.225  11.571
  123SBC   C0C686291   7.013   1.177  11.439
  123SBC   C0C586292   7.098   1.114  11.341
  123SBC   C0CQ86293   7.075   1.146  11.207
  123SBC   C0D186294   7.001   1.257  11.177
  123SBC   C0D886295   7.046   1.330  11.074
  123SBC   C0D786296   7.134   1.243  11.009
  123SBC   C0D686297   7.220   1.278  10.903
  123SBC   C0D586298   7.303   1.182  10.843
  123SBC   C0D486299   7.342   1.048  10.875
  123SBC   C0D386300   7.463   1.015  10.808
  123SBC   C0CX86301   7.544   0.940  10.899
  123SBC   C0CW86302   7.494   0.958  11.037
  123SBC   C0CV86303   7.534   0.926  11.177
  123SBC   C0D286304   7.664   0.874  11.203
  123SBC   C09D86305   7.761   0.841  11.101
  123SBC   C09C86306   7.890   0.799  11.137
  123SBC   C09B86307   7.990   0.751  11.050
  123SBC   C09A86308   7.954   0.736  10.916
  123SBC   C09986309   7.843   0.800  10.867
  123SBC   C09886310   7.807   0.736  10.753
  123SBC   C08Y86311   7.894   0.623  10.722
  123SBC   C08X86312   7.884   0.513  10.628
  123SBC   C08W86313   7.755   0.492  10.557
  123SBC   C08U86314   7.629   0.578  10.562
  123SBC   C08V86315   7.589   0.686  10.643
  123SBC   C0DC86316   7.452   0.705  10.616
  123SBC   H00W86317   7.397   0.789  10.654
  123SBC   C0DB86318   7.406   0.618  10.515
  123SBC   H00X86319   7.307   0.623  10.472
  123SBC   C08T86320   7.515   0.530  10.493
  123SBC   C08S86321   7.512   0.419  10.410
  123SBC   H00N86322   7.417   0.393  10.367
  123SBC   C08R86323   7.628   0.344  10.389
  123SBC   C08Q86324   7.635   0.243  10.293
  123SBC   H00O86325   7.546   0.228  10.234
  123SBC   C08P86326   7.738   0.148  10.286
  123SBC   C08O86327   7.739   0.038  10.194
  123SBC   H00P86328   7.669   0.027  10.113
  123SBC   C08N86329   7.844  -0.062  10.216
  123SBC   C08M86330   7.837  -0.179  10.129
  123SBC   O00886331   7.751  -0.195  10.045
  123SBC   O00786332   7.935  -0.275  10.141
  123SBC   C08H86333   8.038  -0.262  10.232
  123SBC   C08G86334   8.137  -0.361  10.247
  123SBC   C03V86335   8.169  -0.474  10.174
  123SBC   H00986336   8.105  -0.494  10.089
  123SBC   C03U86337   8.269  -0.567  10.209
  123SBC   C03W86338   8.300  -0.694  10.143
  123SBC   H00A86339   8.247  -0.718  10.052
  123SBC   C03X86340   8.401  -0.769  10.174
  123SBC   H00B86341   8.425  -0.857  10.117
  123SBC   O00586342   8.478  -0.744  10.280
  123SBC   C03O86343   8.442  -0.636  10.354
  123SBC   C03N86344   8.514  -0.621  10.475
  123SBC   O00086345   8.599  -0.719  10.509
  123SBC   C01986346   8.672  -0.708  10.621
  123SBC   C01886347   8.658  -0.597  10.707
  123SBC   C01786348   8.570  -0.491  10.672
  123SBC   C01686349   8.556  -0.374  10.744
  123SBC   C01586350   8.635  -0.380  10.862
  123SBC   C01486351   8.638  -0.263  10.941
  123SBC   C01386352   8.568  -0.140  10.900
  123SBC   C01286353   8.591  -0.051  11.010
  123SBC   C01186354   8.685  -0.120  11.088
  123SBC   C01086355   8.736  -0.066  11.199
  123SBC   C00Z86356   8.828  -0.112  11.290
  123SBC   C00Y86357   8.828  -0.012  11.387
  123SBC   C01O86358   8.738   0.086  11.362
  123SBC   C01P86359   8.666   0.155  11.459
  123SBC   C02L86360   8.567   0.231  11.416
  123SBC   C02K86361   8.532   0.220  11.280
  123SBC   C01M86362   8.583   0.124  11.183
  123SBC   C02J86363   8.446   0.323  11.239
  123SBC   C02I86364   8.404   0.350  11.112
  123SBC   C02H86365   8.416   0.275  10.992
  123SBC   C01Q86366   8.469   0.148  10.968
  123SBC   C02G86367   8.434   0.108  10.835
  123SBC   C08986368   8.378   0.219  10.773
  123SBC   C08886369   8.281   0.177  10.682
  123SBC   C08786370   8.311   0.037  10.666
  123SBC   C08686371   8.269  -0.054  10.561
  123SBC   C03S86372   8.307  -0.191  10.536
  123SBC   N00686373   8.228  -0.230  10.429
  123SBC   C08F86374   8.143  -0.130  10.400
  123SBC   C01J86375   8.396  -0.288  10.584
  123SBC   C03R86376   8.407  -0.409  10.515
  123SBC   C03Q86377   8.330  -0.428  10.397
  123SBC   C08E86378   8.159  -0.021  10.477
  123SBC   C08D86379   8.065   0.088  10.472
  123SBC   C08K86380   7.952   0.071  10.385
  123SBC   C08C86381   8.070   0.207  10.542
  123SBC   C09186382   7.966   0.304  10.530
  123SBC   C09286383   7.847   0.286  10.452
  123SBC   C08B86384   8.161   0.255  10.643
  123SBC   C09086385   8.111   0.392  10.685
  123SBC   C09486386   8.170   0.470  10.788
  123SBC   C09586387   8.110   0.572  10.858
  123SBC   C09R86388   8.160   0.591  10.989
  123SBC   C09786389   8.260   0.498  11.003
  123SBC   C09686390   8.273   0.426  10.874
  123SBC   C01I86391   8.421  -0.008  10.756
  123SBC   C08A86392   8.354   0.315  10.874
  123SBC   C09L86393   8.325   0.462  11.120
  123SBC   C09K86394   8.311   0.503  11.261
  123SBC   C09J86395   8.233   0.606  11.313
  123SBC   C09I86396   8.184   0.608  11.448
  123SBC   C09O86397   8.218   0.556  11.574
  123SBC   C09N86398   8.325   0.468  11.594
  123SBC   C09M86399   8.403   0.402  11.488
  123SBC   C06O86400   8.357   0.431  11.728
  123SBC   C05M86401   8.274   0.476  11.833
  123SBC   C06P86402   8.159   0.546  11.810
  123SBC   C04286403   8.306   0.438  11.969
  123SBC   C04186404   8.417   0.356  11.989
  123SBC   C04086405   8.454   0.328  12.121
  123SBC   C03Z86406   8.569   0.250  12.153
  123SBC   C03Y86407   8.644   0.203  12.047
  123SBC   C02786408   8.744   0.106  12.073
  123SBC   C02686409   8.804   0.040  11.969
  123SBC   C02886410   8.903  -0.058  11.994
  123SBC   C02986411   8.934  -0.094  12.125
  123SBC   C02B86412   9.028  -0.192  12.151
  123SBC   C02C86413   9.061  -0.224  12.284
  123SBC   C02X86414   9.147  -0.326  12.308
  123SBC   C03E86415   9.172  -0.357  12.438
  123SBC   C03G86416   9.104  -0.305  12.545
  123SBC   C04Q86417   9.021  -0.198  12.520
  123SBC   C04R86418   8.957  -0.135  12.624
  123SBC   C04S86419   8.864  -0.035  12.600
  123SBC   C04L86420   8.841   0.003  12.468
  123SBC   C04M86421   8.906  -0.059  12.362
  123SBC   C04K86422   8.746   0.102  12.439
  123SBC   C04F86423   8.669   0.155  12.549
  123SBC   C04E86424   8.696   0.119  12.679
  123SBC   C04D86425   8.616   0.169  12.781
  123SBC   C05086426   8.630   0.121  12.910
  123SBC   C05186427   8.547   0.168  13.011
  123SBC   C05Q86428   8.564   0.124  13.143
  123SBC   C05V86429   8.481   0.170  13.241
  123SBC   N00586430   8.502   0.128  13.376
  123SBC   C07V86431   8.602   0.038  13.396
  123SBC   C08286432   8.624  -0.006  13.528
  123SBC   C08186433   8.568   0.047  13.643
  123SBC   C07C86434   8.465   0.137  13.613
  123SBC   C07B86435   8.396   0.194  13.725
  123SBC   C08086436   8.431   0.157  13.859
  123SBC   C07Z86437   8.348   0.215  13.956
  123SBC   H00L86438   8.364   0.198  14.062
  123SBC   C07986439   8.231   0.292  13.929
  123SBC   C07886440   8.196   0.316  13.796
  123SBC   C07786441   8.078   0.386  13.768
  123SBC   C07X86442   7.993   0.427  13.877
  123SBC   H00I86443   7.902   0.482  13.856
  123SBC   C07Y86444   8.031   0.405  14.009
  123SBC   H00H86445   7.978   0.435  14.098
  123SBC   C07686446   8.048   0.413  13.636
  123SBC   C06C86447   7.964   0.522  13.611
  123SBC   H00C86448   7.910   0.575  13.689
  123SBC   C06F86449   8.129   0.369  13.536
  123SBC   C06E86450   8.105   0.406  13.402
  123SBC   C06G86451   8.178   0.373  13.295
  123SBC   C06H86452   8.286   0.292  13.322
  123SBC   C06I86453   8.315   0.255  13.454
  123SBC   C06L86454   8.152   0.427  13.167
  123SBC   C06M86455   8.037   0.510  13.133
  123SBC   C06K86456   8.242   0.389  13.061
  123SBC   C05S86457   8.354   0.305  13.092
  123SBC   C05U86458   8.215   0.428  12.929
  123SBC   C05X86459   8.094   0.496  12.898
  123SBC   C05G86460   8.079   0.512  12.754
  123SBC   C05F86461   8.178   0.471  12.669
  123SBC   C05E86462   8.147   0.503  12.539
  123SBC   C04886463   8.232   0.473  12.429
  123SBC   C05686464   8.185   0.498  12.302
  123SBC   C04586465   8.265   0.446  12.201
  123SBC   C04786466   8.346   0.399  12.465
  123SBC   C04986467   8.380   0.371  12.596
  123SBC   C04B86468   8.488   0.292  12.624
  123SBC   C04686469   8.421   0.351  12.360
  123SBC   C04H86470   8.529   0.270  12.385
  123SBC   C05D86471   8.022   0.562  12.529
  123SBC   C04A86472   8.294   0.403  12.702
  123SBC   C05T86473   8.312   0.379  12.831
  123SBC   C05586474   8.426   0.310  12.862
  123SBC   C06D86475   8.015   0.510  13.379
  123SBC   C07W86476   8.235   0.290  13.563
  123SBC   C08586477   8.148   0.334  14.034
  123SBC   H00M86478   8.162   0.320  14.141
  123SBC   C08486479   8.548   0.080  13.880
  123SBC   H00J86480   8.580   0.059  13.981
  123SBC   C07A86481   8.280   0.271  13.693
  123SBC   C08386482   8.609   0.021  13.771
  123SBC   H00K86483   8.690  -0.047  13.789
  123SBC   O00K86484   8.712  -0.106  13.559
  123SBC   C0GO86485   8.790  -0.148  13.461
  123SBC   C0GN86486   8.885  -0.245  13.491
  123SBC   H01L86487   8.912  -0.268  13.593
  123SBC   C0GM86488   8.956  -0.310  13.386
  123SBC   C0GL86489   9.040  -0.411  13.414
  123SBC   H01M86490   9.055  -0.436  13.518
  123SBC   O00J86491   9.114  -0.471  13.322
  123SBC   C0GK86492   9.099  -0.424  13.197
  123SBC   H01N86493   9.152  -0.497  13.136
  123SBC   C05K86494   9.022  -0.323  13.161
  123SBC   C05J86495   9.012  -0.282  13.029
  123SBC   C04Y86496   9.067  -0.346  12.913
  123SBC   C04X86497   9.057  -0.296  12.780
  123SBC   O00686498   9.149  -0.456  12.930
  123SBC   C05386499   9.202  -0.529  12.826
  123SBC   C04O86500   9.203  -0.476  12.697
  123SBC   C03C86501   9.262  -0.536  12.578
  123SBC   C03B86502   9.318  -0.670  12.542
  123SBC   C05486503   9.326  -0.774  12.630
  123SBC   C0GR86504   9.350  -0.911  12.591
  123SBC   C03M86505   9.367  -0.982  12.463
  123SBC   C03I86506   9.354  -0.927  12.330
  123SBC   C03J86507   9.375  -1.016  12.221
  123SBC   N00286508   9.354  -0.975  12.086
  123SBC   C02U86509   9.362  -1.067  11.980
  123SBC   C02T86510   9.339  -1.026  11.849
  123SBC   C02Z86511   9.353  -1.111  11.746
  123SBC   N00186512   9.333  -1.073  11.612
  123SBC   C02R86513   9.357  -1.159  11.497
  123SBC   C03286514   9.390  -1.292  11.526
  123SBC   C03186515   9.395  -1.330  11.658
  123SBC   H00786516   9.411  -1.434  11.684
  123SBC   C03386517   9.431  -1.376  11.414
  123SBC   H00386518   9.462  -1.477  11.438
  123SBC   O00486519   9.421  -1.336  11.279
  123SBC   C03486520   9.383  -1.201  11.257
  123SBC   C03586521   9.360  -1.158  11.124
  123SBC   C03686522   9.320  -1.025  11.098
  123SBC   H00586523   9.301  -0.977  11.004
  123SBC   C03786524   9.306  -0.940  11.211
  123SBC   H00686525   9.296  -0.839  11.174
  123SBC   C00D86526   9.308  -0.985  11.342
  123SBC   C00C86527   9.264  -0.905  11.446
  123SBC   C00B86528   9.197  -0.772  11.429
  123SBC   C00A86529   9.157  -0.680  11.320
  123SBC   C00986530   9.156  -0.550  11.375
  123SBC   C00886531   9.063  -0.442  11.351
  123SBC   C00786532   8.983  -0.453  11.241
  123SBC   C00686533   8.890  -0.349  11.215
  123SBC   C00586534   8.807  -0.361  11.095
  123SBC   C00486535   8.805  -0.477  11.019
  123SBC   C00386536   8.891  -0.585  11.058
  123SBC   C00286537   8.882  -0.701  10.986
  123SBC   C01C86538   8.821  -0.706  10.861
  123SBC   C01B86539   8.834  -0.811  10.770
  123SBC   H00086540   8.890  -0.900  10.792
  123SBC   C00186541   8.935  -0.820  11.044
  123SBC   C00086542   9.010  -0.808  11.157
  123SBC   C01U86543   9.019  -0.937  11.197
  123SBC   H00286544   9.072  -0.989  11.276
  123SBC   C01T86545   8.957  -1.027  11.095
  123SBC   O00286546   8.960  -1.148  11.085
  123SBC   O00186547   8.897  -0.948  11.013
  123SBC   C01S86548   8.977  -0.572  11.167
  123SBC   C00N86549   9.046  -0.347  11.446
  123SBC   C00M86550   9.097  -0.361  11.577
  123SBC   C00J86551   9.157  -0.478  11.612
  123SBC   C00I86552   9.187  -0.511  11.743
  123SBC   C00H86553   9.231  -0.638  11.775
  123SBC   C00G86554   9.242  -0.734  11.677
  123SBC   C00F86555   9.280  -0.865  11.693
  123SBC   C01X86556   9.263  -0.678  11.902
  123SBC   C01W86557   9.245  -0.587  12.003
  123SBC   C01V86558   9.194  -0.459  11.974
  123SBC   C02086559   9.163  -0.371  12.073
  123SBC   C01Z86560   9.273  -0.623  12.133
  123SBC   C02Y86561   9.257  -0.524  12.226
  123SBC   C03986562   9.287  -0.560  12.358
  123SBC   C02W86563   9.319  -0.752  12.164
  123SBC   C01Y86564   9.306  -0.803  11.927
  123SBC   C00U86565   9.167  -0.424  11.844
  123SBC   C00S86566   9.103  -0.303  11.814
  123SBC   C00T86567   9.055  -0.225  11.916
  123SBC   C00R86568   9.063  -0.273  11.681
  123SBC   C00Q86569   8.985  -0.168  11.662
  123SBC   C00V86570   8.937  -0.092  11.766
  123SBC   C02486571   8.842   0.010  11.744
  123SBC   C00X86572   8.810   0.039  11.617
  123SBC   C00P86573   8.943  -0.149  11.532
  123SBC   C00O86574   8.966  -0.239  11.430
  123SBC   C00K86575   9.189  -0.568  11.511
  123SBC   N00086576   9.050  -0.691  11.219
  123SBC   C00L86577   9.210  -0.696  11.544
  123SBC   H00486578   9.359  -1.225  11.039
  123SBC   C02Q86579   9.347  -1.111  11.368
  123SBC   C00E86580   9.296  -0.943  11.582
  123SBC   C03086581   9.385  -1.242  11.768
  123SBC   O00386582   9.417  -1.287  11.894
  123SBC   C02S86583   9.308  -0.897  11.823
  123SBC   C03886584   9.409  -1.202  12.001
  123SBC   C03L86585   9.428  -1.239  12.133
  123SBC   H00886586   9.452  -1.344  12.145
  123SBC   C02V86587   9.335  -0.839  12.058
  123SBC   C03K86588   9.403  -1.153  12.238
  123SBC   C0BK86589   9.416  -1.194  12.368
  123SBC   H00T86590   9.450  -1.295  12.385
  123SBC   C03H86591   9.332  -0.791  12.299
  123SBC   C0BL86592   9.396  -1.120  12.484
  123SBC   C0GU86593   9.415  -1.178  12.612
  123SBC   H01O86594   9.421  -1.283  12.633
  123SBC   C0GT86595   9.387  -1.114  12.728
  123SBC   H01P86596   9.383  -1.172  12.819
  123SBC   C0GS86597   9.352  -0.981  12.718
  123SBC   C0GV86598   9.314  -0.895  12.819
  123SBC   C0GW86599   9.293  -0.922  12.956
  123SBC   H01Q86600   9.310  -1.023  12.991
  123SBC   C0GX86601   9.255  -0.817  13.034
  123SBC   H01R86602   9.248  -0.838  13.140
  123SBC   O00L86603   9.225  -0.692  12.990
  123SBC   C0GQ86604   9.291  -0.765  12.768
  123SBC   C03A86605   9.321  -0.688  12.401
  123SBC   C05L86606   9.240  -0.662  12.856
  123SBC   C04W86607   8.926  -0.177  12.996
  123SBC   C05I86608   8.840  -0.121  13.094
  123SBC   C05O86609   8.849  -0.165  13.227
  123SBC   C05286610   8.747  -0.019  13.070
  123SBC   C04V86611   8.905  -0.132  12.865
  123SBC   C04U86612   8.808  -0.024  12.837
  123SBC   N00986613   8.946  -0.263  13.256
  123SBC   C0GP86614   8.772  -0.112  13.326
  123SBC   C05W86615   8.676  -0.014  13.302
  123SBC   C07D86616   8.421   0.175  13.484
  123SBC   C06J86617   8.378   0.262  13.218
  123SBC   C05P86618   8.656   0.027  13.168
  123SBC   C05R86619   8.446   0.264  12.986
  123SBC   C04Z86620   8.734   0.027  12.939
  123SBC   C04C86621   8.511   0.265  12.758
  123SBC   C04G86622   8.562   0.238  12.517
  123SBC   C04J86623   8.711   0.131  12.307
  123SBC   C04T86624   8.791   0.020  12.704
  123SBC   N00386625   8.973  -0.190  12.757
  123SBC   C04P86626   9.124  -0.358  12.674
  123SBC   C03D86627   9.250  -0.469  12.462
  123SBC   C02186628   9.199  -0.400  12.204
  123SBC   C03F86629   9.006  -0.155  12.389
  123SBC   C02286630   9.079  -0.267  12.047
  123SBC   C02A86631   8.871  -0.030  12.231
  123SBC   C02386632   8.967  -0.124  11.896
  123SBC   C02586633   8.778   0.078  11.843
  123SBC   C02D86634   8.677   0.170  11.815
  123SBC   C02E86635   8.641   0.197  11.687
  123SBC   C02N86636   8.536   0.288  11.652
  123SBC   C04N86637   8.781   0.077  12.201
  123SBC   C02P86638   8.607   0.233  11.917
  123SBC   C04I86639   8.603   0.216  12.283
  123SBC   C04486640   8.378   0.373  12.226
  123SBC   C04386641   8.494   0.310  11.886
  123SBC   C05N86642   8.462   0.342  11.755
  123SBC   C09U86643   8.135   0.588  11.677
  123SBC   C09V86644   8.014   0.656  11.664
  123SBC   C09X86645   7.976   0.708  11.538
  123SBC   C09Y86646   7.855   0.775  11.503
  123SBC   C0A186647   7.764   0.786  11.603
  123SBC   C0A286648   7.796   0.736  11.731
  123SBC   C0A486649   7.709   0.763  11.836
  123SBC   C07186650   7.748   0.737  11.967
  123SBC   C0A586651   7.666   0.777  12.070
  123SBC   C0A986652   7.540   0.838  12.040
  123SBC   C0A886653   7.498   0.850  11.911
  123SBC   C0AP86654   7.381   0.919  11.887
  123SBC   C0BY86655   7.359   0.953  11.755
  123SBC   C0BX86656   7.430   0.915  11.646
  123SBC   C0C286657   7.391   0.953  11.513
  123SBC   C0C386658   7.477   0.924  11.409
  123SBC   C0CT86659   7.604   0.869  11.439
  123SBC   C0C186660   7.277   1.035  11.492
  123SBC   C0C086661   7.207   1.086  11.612
  123SBC   C0A786662   7.549   0.859  11.674
  123SBC   C0BZ86663   7.248   1.039  11.734
  123SBC   C0BO86664   7.174   1.089  11.838
  123SBC   C0BN86665   7.201   1.055  11.969
  123SBC   C0BM86666   7.134   1.129  12.065
  123SBC   C0B986667   7.167   1.104  12.195
  123SBC   C0B886668   7.268   1.015  12.225
  123SBC   C0AD86669   7.345   0.955  12.121
  123SBC   C0AF86670   7.301   0.983  12.353
  123SBC   C0AG86671   7.235   1.044  12.463
  123SBC   C0B786672   7.133   1.135  12.431
  123SBC   C0AE86673   7.399   0.894  12.374
  123SBC   C0AB86674   7.492   0.853  12.276
  123SBC   C0AA86675   7.610   0.788  12.302
  123SBC   C0AJ86676   7.438   0.866  12.504
  123SBC   C0AK86677   7.557   0.800  12.529
  123SBC   C06W86678   7.551   0.772  12.662
  123SBC   C0AI86679   7.375   0.910  12.616
  123SBC   C0BP86680   7.079   1.180  11.799
  123SBC   C0BQ86681   7.005   1.254  11.898
  123SBC   C0BW86682   7.305   0.972  11.992
  123SBC   C0AC86683   7.457   0.881  12.147
  123SBC   C0A686684   7.583   0.821  11.807
  123SBC   C0A386685   7.640   0.832  11.573
  123SBC   C09Z86686   7.825   0.811  11.372
  123SBC   C09W86687   7.922   0.676  11.762
  123SBC   C07286688   7.956   0.650  11.891
  123SBC   C09H86689   8.073   0.694  11.437
  123SBC   C09G86690   8.043   0.740  11.311
  123SBC   C09P86691   8.141   0.684  11.227
  123SBC   C02O86692   8.385   0.417  11.341
  123SBC   C02M86693   8.502   0.311  11.519
  123SBC   C02F86694   8.705   0.129  11.590
  123SBC   C00W86695   8.870  -0.037  11.517
  123SBC   C01R86696   8.899  -0.239  11.306
  123SBC   C01N86697   8.680   0.049  11.245
  123SBC   C01L86698   8.541   0.079  11.055
  123SBC   C01H86699   8.482  -0.138  10.777
  123SBC   C01K86700   8.723  -0.250  11.049
  123SBC   C01E86701   8.721  -0.484  10.908
  123SBC   C01G86702   8.475  -0.264  10.700
  123SBC   C01D86703   8.735  -0.597  10.828
  123SBC   C01A86704   8.764  -0.804  10.651
  123SBC   H00186705   8.776  -0.886  10.582
  123SBC   C01F86706   8.496  -0.506  10.556
  123SBC   C03P86707   8.344  -0.541  10.321
  123SBC   C03T86708   8.224  -0.344  10.358
  123SBC   C08I86709   8.038  -0.144  10.316
  123SBC   C08J86710   7.945  -0.047  10.305
  123SBC   C08L86711   7.848   0.169  10.373
  123SBC   C09386712   7.745   0.381  10.466
  123SBC   C08Z86713   7.984   0.414  10.618
  123SBC   C09T86714   7.671   0.756  10.741
  123SBC   C09S86715   7.993   0.634  10.824
  123SBC   C09Q86716   8.103   0.681  11.089
  123SBC   C09F86717   7.912   0.789  11.273
  123SBC   C09E86718   7.742   0.825  10.957
  123SBC   C0A086719   7.698   0.852  11.337
  123SBC   C0CU86720   7.443   0.962  11.277
  123SBC   C0CR86721   7.316   1.020  11.253
  123SBC   C0CZ86722   7.284   1.058  11.123
  123SBC   C0DA86723   7.635   0.834  10.868
  123SBC   C0D986724   7.511   1.144  10.748
  123SBC   H00V86725   7.612   1.165  10.718
  123SBC   C0CY86726   7.374   1.027  11.018
  123SBC   C0DF86727   7.404   1.236  10.758
  123SBC   C0DE86728   7.353   1.375  10.741
  123SBC   C0GI86729   7.385   1.485  10.655
  123SBC   H01K86730   7.463   1.481  10.580
  123SBC   C0GJ86731   7.305   1.593  10.660
  123SBC   H01J86732   7.309   1.672  10.586
  123SBC   O00I86733   7.207   1.621  10.758
  123SBC   C0GH86734   7.170   1.522  10.846
  123SBC   C0GG86735   7.079   1.556  10.948
  123SBC   O00G86736   7.036   1.685  10.941
  123SBC   C0G886737   6.943   1.734  11.021
  123SBC   C0G986738   6.883   1.857  10.983
  123SBC   H01G86739   6.915   1.904  10.891
  123SBC   C0GA86740   6.771   1.909  11.047
  123SBC   H01H86741   6.713   1.990  11.004
  123SBC   C0GB86742   6.728   1.847  11.167
  123SBC   C0EP86743   6.800   1.731  11.220
  123SBC   C0E886744   6.782   1.695  11.362
  123SBC   C0CK86745   6.841   1.604  11.451
  123SBC   C0CL86746   6.878   1.477  11.406
  123SBC   C0E986747   6.912   1.452  11.265
  123SBC   C0GE86748   6.947   1.534  11.148
  123SBC   C0E786749   6.670   1.748  11.427
  123SBC   C0CJ86750   6.659   1.689  11.557
  123SBC   C0E686751   6.547   1.735  11.630
  123SBC   H00Y86752   6.526   1.684  11.723
  123SBC   C0EO86753   6.459   1.824  11.564
  123SBC   H01186754   6.374   1.855  11.623
  123SBC   C0G686755   6.478   1.883  11.435
  123SBC   C0G586756   6.391   1.978  11.372
  123SBC   H01F86757   6.303   2.013  11.424
  123SBC   C0GD86758   6.422   2.028  11.248
  123SBC   H01I86759   6.357   2.106  11.211
  123SBC   O00H86760   6.535   1.990  11.177
  123SBC   C0EQ86761   6.594   1.850  11.368
  123SBC   C0GC86762   6.616   1.898  11.237
  123SBC   C0G786763   6.894   1.666  11.136
  123SBC   C0DD86764   7.241   1.398  10.834
  123SBC   C0GF86765   7.026   1.471  11.047
  123SBC   C0CO86766   6.925   1.316  11.264
  123SBC   C0D086767   7.174   1.144  11.107
  123SBC   C0C486768   7.229   1.060  11.364
  123SBC   C0CN86769   6.903   1.252  11.386
  123SBC   C0CP86770   7.098   1.171  11.658
  123SBC   C0CM86771   6.852   1.353  11.474
  123SBC   C0CI86772   6.774   1.605  11.585
  123SBC   C0CD86773   6.725   1.622  12.054
  123SBC   C0BR86774   6.918   1.363  11.864
  123SBC   C0CS86775   7.031   1.218  12.032
  123SBC   C0B686776   7.095   1.159  12.299
  123SBC   C0CG86777   6.808   1.447  12.208
  123SBC   C0CF86778   6.733   1.564  12.184
  123SBC   C0E586779   6.613   1.816  12.147
  123SBC   C0DT86780   6.481   1.939  12.349
  123SBC   C0DL86781   6.624   1.652  12.527
  123SBC   C0DM86782   6.647   1.616  12.659
  123SBC   C0DY86783   6.501   1.789  12.741
  123SBC   C0DU86784   6.418   1.993  12.458
  123SBC   C0F086785   6.324   2.207  12.544
  123SBC   C0F486786   6.264   2.374  12.746
  123SBC   C0FG86787   6.298   2.046  12.909
  123SBC   O00B86788   6.278   2.407  12.993
  123SBC   C0FN86789   6.344   2.041  13.031
  123SBC   C0DZ86790   6.439   1.859  12.846
  123SBC   O00C86791   6.628   1.715  13.126
  123SBC   C0FR86792   6.693   1.610  13.155
  123SBC   O00D86793   6.709   1.596  13.278
  123SBC   C0E086794   6.591   1.686  12.766
  123SBC   C0E386795   6.737   1.518  13.047
  123SBC   C0AW86796   6.806   1.404  13.077
  123SBC   C0AV86797   6.835   1.346  13.207
  123SBC   H00Q86798   6.791   1.387  13.298
  123SBC   C0AU86799   6.910   1.230  13.223
  123SBC   H00R86800   6.931   1.185  13.319
  123SBC   C0AT86801   6.985   1.180  13.114
  123SBC   C0AS86802   7.095   1.087  13.091
  123SBC   C0AR86803   7.159   1.022  13.202
  123SBC   C0BE86804   6.957   1.231  12.991
  123SBC   C0DN86805   6.736   1.513  12.680
  123SBC   C0AX86806   6.862   1.336  12.970
  123SBC   C0BB86807   6.882   1.332  12.600
  123SBC   C0BD86808   7.030   1.176  12.889
  123SBC   C0B286809   7.056   1.180  12.536
  123SBC   C0AH86810   7.263   1.003  12.599
  123SBC   C0BF86811   7.126   1.084  12.947
  123SBC   C0AL86812   7.437   0.842  12.725
  123SBC   C07U86813   7.339   0.902  13.066
  123SBC   C0AQ86814   7.266   0.931  13.181
  123SBC   C0BG86815   7.126   1.028  13.347
  123SBC   C0FY86816   7.367   1.003  13.597
  123SBC   C0BJ86817   7.125   1.148  13.431
  123SBC   H00S86818   7.106   1.248  13.395
  123SBC   C0FZ86819   7.354   1.108  13.683
  123SBC   C07S86820   7.491   0.959  13.558
  123SBC   C0G186821   7.679   1.130  13.827
  123SBC   C07K86822   7.952   0.906  13.716
  123SBC   C07H86823   7.756   0.863  13.504
  123SBC   C06B86824   7.949   0.572  13.480
  123SBC   C06N86825   7.983   0.567  13.256
  123SBC   C06686826   7.665   0.814  13.262
  123SBC   C06286827   7.649   0.721  12.966
  123SBC   C05Y86828   7.999   0.543  12.998
  123SBC   C06186829   7.675   0.653  12.843
  123SBC   C05H86830   7.980   0.566  12.664
  123SBC   C06V86831   7.661   0.703  12.712
  123SBC   C06Y86832   7.648   0.760  12.433
  123SBC   C05C86833   7.975   0.600  12.395
  123SBC   C06Z86834   7.699   0.756  12.202
  123SBC   C07086835   7.870   0.681  12.000
  123SBC   C05B86836   8.064   0.566  12.287
  123SBC   C05786837   8.227   0.481  12.073
  123SBC   C05986838   8.081   0.584  11.918
  124SBC   C05886839  10.836   0.935  14.233
  124SBC   C05A86840  10.750   0.887  14.138
  124SBC   C06Q86841  10.615   0.876  14.160
  124SBC   C06R86842  10.531   0.827  14.060
  124SBC   C06S86843  10.579   0.775  13.937
  124SBC   C06T86844  10.482   0.728  13.839
  124SBC   C06U86845  10.505   0.680  13.702
  124SBC   C06X86846  10.612   0.681  13.615
  124SBC   C06086847  10.590   0.603  13.497
  124SBC   C05Z86848  10.624   0.630  13.361
  124SBC   C06886849  10.502   0.591  13.286
  124SBC   C06786850  10.486   0.529  13.157
  124SBC   C06986851  10.588   0.564  13.057
  124SBC   C06A86852  10.596   0.523  12.923
  124SBC   C07386853  10.545   0.413  12.847
  124SBC   C07P86854  10.626   0.347  12.750
  124SBC   C07O86855  10.768   0.342  12.754
  124SBC   H00D86856  10.815   0.370  12.847
  124SBC   C07N86857  10.847   0.286  12.654
  124SBC   H00E86858  10.953   0.274  12.670
  124SBC   C07M86859  10.778   0.231  12.542
  124SBC   H00F86860  10.825   0.183  12.458
  124SBC   C07L86861  10.638   0.237  12.530
  124SBC   C07Q86862  10.563   0.191  12.418
  124SBC   H00G86863  10.614   0.142  12.336
  124SBC   O00F86864  10.427   0.198  12.408
  124SBC   C07J86865  10.362   0.220  12.527
  124SBC   C07I86866  10.428   0.266  12.649
  124SBC   N00486867  10.354   0.287  12.773
  124SBC   C07R86868  10.222   0.238  12.774
  124SBC   C07T86869  10.159   0.215  12.652
  124SBC   C0FX86870  10.021   0.201  12.647
  124SBC   C0FW86871   9.942   0.191  12.531
  124SBC   C0G086872  10.013   0.183  12.411
  124SBC   C0G286873   9.938   0.189  12.293
  124SBC   H01E86874   9.984   0.194  12.195
  124SBC   C0G386875   9.803   0.194  12.299
  124SBC   H01C86876   9.754   0.199  12.203
  124SBC   C0G486877   9.731   0.194  12.418
  124SBC   H01D86878   9.624   0.199  12.412
  124SBC   O00E86879  10.150   0.190  12.413
  124SBC   C0FV86880   9.799   0.191  12.538
  124SBC   C0FU86881   9.742   0.193  12.669
  124SBC   H01B86882   9.635   0.201  12.678
  124SBC   C0FT86883   9.818   0.177  12.786
  124SBC   C0FS86884   9.797   0.191  12.927
  124SBC   C0BI86885   9.923   0.153  12.992
  124SBC   C0BH86886   9.928   0.207  13.120
  124SBC   C07F86887  10.025   0.305  13.157
  124SBC   C07E86888  10.159   0.329  13.119
  124SBC   C07G86889  10.224   0.288  13.005
  124SBC   C07486890  10.342   0.362  12.995
  124SBC   C06586891  10.246   0.422  13.183
  124SBC   C06486892  10.181   0.501  13.278
  124SBC   C06386893  10.245   0.591  13.361
  124SBC   C07586894  10.133   0.640  13.450
  124SBC   C0AM86895  10.008   0.603  13.399
  124SBC   C0AN86896   9.873   0.622  13.453
  124SBC   C0AO86897   9.824   0.684  13.579
  124SBC   C0B186898   9.691   0.731  13.599
  124SBC   C0B086899   9.607   0.728  13.488
  124SBC   C0AZ86900   9.476   0.773  13.486
  124SBC   C0AY86901   9.397   0.753  13.374
  124SBC   N00786902   9.271   0.812  13.367
  124SBC   C0E286903   9.204   0.815  13.246
  124SBC   C0E186904   9.093   0.888  13.246
  124SBC   C0E486905   9.024   0.893  13.117
  124SBC   C0FF86906   8.901   0.961  13.107
  124SBC   C0FJ86907   8.825   1.011  12.996
  124SBC   C0FK86908   8.886   1.048  12.869
  124SBC   H01686909   8.977   1.015  12.820
  124SBC   C0FL86910   8.800   1.154  12.810
  124SBC   H01786911   8.806   1.204  12.715
  124SBC   C0FM86912   8.695   1.174  12.904
  124SBC   C0FH86913   8.589   1.266  12.950
  124SBC   C0FI86914   8.579   1.220  13.088
  124SBC   C0F386915   8.554   1.314  13.190
  124SBC   C0F286916   8.598   1.272  13.310
  124SBC   C0DW86917   8.696   1.176  13.330
  124SBC   C0FE86918   8.732   1.097  13.229
  124SBC   C0DV86919   8.764   1.167  13.449
  124SBC   C0DX86920   8.875   1.089  13.457
  124SBC   C0DK86921   8.945   1.088  13.581
  124SBC   C0DJ86922   8.908   1.171  13.686
  124SBC   C0DI86923   8.978   1.172  13.804
  124SBC   C0DH86924   9.088   1.086  13.822
  124SBC   C0DG86925   9.129   1.009  13.715
  124SBC   C0BV86926   9.255   0.939  13.719
  124SBC   C0BC86927   9.301   0.878  13.603
  124SBC   C0BA86928   9.332   0.947  13.835
  124SBC   C0B486929   9.462   0.894  13.834
  124SBC   C0B386930   9.510   0.840  13.714
  124SBC   C0B586931   9.539   0.899  13.950
  124SBC   C0BU86932   9.494   0.970  14.055
  124SBC   C0BT86933   9.367   1.029  14.056
  124SBC   C0BS86934   9.320   1.103  14.167
  124SBC   C0CC86935   9.202   1.173  14.158
  124SBC   C0CB86936   9.153   1.242  14.269
  124SBC   C0CH86937   9.037   1.324  14.246
  124SBC   C0DO86938   8.979   1.343  14.125
  124SBC   C0DP86939   8.869   1.434  14.110
  124SBC   C0EA86940   8.840   1.532  14.208
  124SBC   H01286941   8.894   1.540  14.301
  124SBC   O00986942   8.740   1.621  14.190
  124SBC   C0EH86943   8.669   1.631  14.074
  124SBC   C0EG86944   8.575   1.735  14.061
  124SBC   C0EJ86945   8.525   1.843  14.137
  124SBC   H01086946   8.539   1.857  14.243
  124SBC   C0EK86947   8.441   1.927  14.052
  124SBC   H00Z86948   8.387   2.018  14.072
  124SBC   C0EL86949   8.434   1.855  13.932
  124SBC   C0EM86950   8.363   1.889  13.810
  124SBC   C0EW86951   8.263   1.991  13.783
  124SBC   H01386952   8.234   2.065  13.855
  124SBC   C0EX86953   8.195   2.006  13.656
  124SBC   H01486954   8.118   2.080  13.638
  124SBC   C0F186955   8.239   1.926  13.543
  124SBC   C0EU86956   8.341   1.830  13.569
  124SBC   C0ET86957   8.390   1.730  13.477
  124SBC   C0ES86958   8.472   1.647  13.561
  124SBC   C0EE86959   8.482   1.696  13.691
  124SBC   C0ED86960   8.542   1.666  13.820
  124SBC   C0EC86961   8.636   1.560  13.839
  124SBC   C0EB86962   8.665   1.453  13.747
  124SBC   C0EN86963   8.588   1.441  13.631
  124SBC   C0ER86964   8.621   1.335  13.541
  124SBC   C0DS86965   8.765   1.354  13.770
  124SBC   C0DR86966   8.833   1.353  13.889
  124SBC   C0EY86967   8.496   1.517  13.543
  124SBC   C0EZ86968   8.490   1.468  13.405
  124SBC   C0F586969   8.457   1.520  13.268
  124SBC   C0F686970   8.391   1.639  13.241
  124SBC   N00886971   8.369   1.673  13.102
  124SBC   C0F786972   8.422   1.589  12.995
  124SBC   C0FQ86973   8.398   1.635  12.860
  124SBC   H01886974   8.460   1.593  12.783
  124SBC   C0FP86975   8.321   1.745  12.836
  124SBC   H01986976   8.319   1.792  12.739
  124SBC   C0FO86977   8.266   1.817  12.935
  124SBC   H01A86978   8.211   1.906  12.907
  124SBC   C0F886979   8.488   1.475  13.024
  124SBC   C0F986980   8.285   1.787  13.072
  124SBC   C0FA86981   8.219   1.870  13.173
  124SBC   H01586982   8.142   1.941  13.148
  124SBC   C0FB86983   8.253   1.841  13.308
  124SBC   C0FD86984   8.344   1.735  13.338
  124SBC   C0FC86985   8.188   1.929  13.411
  124SBC   O00A86986   8.094   2.001  13.372
  124SBC   C0EV86987   8.391   1.807  13.702
  124SBC   C0EF86988   8.522   1.750  13.932
  124SBC   C0EI86989   8.703   1.545  13.964
  124SBC   C0DQ86990   8.797   1.443  13.989
  124SBC   C0CE86991   9.013   1.254  14.022
  124SBC   H00U86992   9.011   1.377  14.337
  124SBC   C0CA86993   9.221   1.223  14.393
  124SBC   C0C986994   9.359   1.203  14.384
  124SBC   C0C886995   9.435   1.273  14.486
  124SBC   C0C786996   9.563   1.252  14.533
  124SBC   C0C686997   9.600   1.340  14.640
  124SBC   C0C586998   9.694   1.338  14.752
  124SBC   C0CQ86999   9.658   1.411  14.869
  124SBC   C0D187000   9.531   1.460  14.883
  124SBC   C0D887001   9.486   1.444  15.010
  124SBC   C0D787002   9.596   1.403  15.088
  124SBC   C0D687003   9.589   1.357  15.222
  124SBC   C0D587004   9.713   1.338  15.291
  124SBC   C0D487005   9.846   1.296  15.258
  124SBC   C0D387006   9.941   1.368  15.336
  124SBC   C0CX87007  10.067   1.384  15.261
  124SBC   C0CW87008  10.039   1.318  15.127
  124SBC   C0CV87009  10.111   1.269  15.006
  124SBC   C0D287010  10.246   1.227  15.001
  124SBC   C09D87011  10.334   1.234  15.110
  124SBC   C09C87012  10.473   1.201  15.092
  124SBC   C09B87013  10.577   1.225  15.182
  124SBC   C09A87014  10.536   1.277  15.308
  124SBC   C09987015  10.401   1.287  15.344
  124SBC   C09887016  10.395   1.379  15.446
  124SBC   C08Y87017  10.525   1.443  15.464
  124SBC   C08X87018  10.569   1.559  15.538
  124SBC   C08W87019  10.477   1.628  15.623
  124SBC   C08U87020  10.327   1.607  15.628
  124SBC   C08V87021  10.231   1.541  15.539
  124SBC   C0DC87022  10.121   1.516  15.626
  124SBC   H00W87023  10.047   1.444  15.595
  124SBC   C0DB87024  10.140   1.574  15.755
  124SBC   H00X87025  10.067   1.577  15.835
  124SBC   C08T87026  10.262   1.644  15.749
  124SBC   C08S87027  10.317   1.727  15.849
  124SBC   H00N87028  10.257   1.748  15.937
  124SBC   C08R87029  10.446   1.781  15.831
  124SBC   C08Q87030  10.511   1.883  15.909
  124SBC   H00O87031  10.449   1.929  15.985
  124SBC   C08P87032  10.642   1.929  15.894
  124SBC   C08O87033  10.695   2.033  15.978
  124SBC   H00P87034  10.634   2.080  16.054
  124SBC   C08N87035  10.832   2.082  15.955
  124SBC   C08M87036  10.895   2.185  16.035
  124SBC   O00887037  10.842   2.232  16.132
  124SBC   O00787038  11.015   2.233  15.997
  124SBC   C08H87039  11.081   2.186  15.887
  124SBC   C08G87040  11.214   2.234  15.851
  124SBC   C03V87041  11.289   2.341  15.901
  124SBC   H00987042  11.235   2.401  15.972
  124SBC   C03U87043  11.422   2.375  15.875
  124SBC   C03W87044  11.512   2.477  15.931
  124SBC   H00A87045  11.478   2.545  16.007
  124SBC   C03X87046  11.643   2.489  15.892
  124SBC   H00B87047  11.704   2.563  15.943
  124SBC   O00587048  11.692   2.423  15.784
  124SBC   C03O87049  11.611   2.334  15.724
  124SBC   C03N87050  11.660   2.276  15.603
  124SBC   O00087051  11.780   2.328  15.553
  124SBC   C01987052  11.833   2.268  15.439
  124SBC   C01887053  11.765   2.166  15.365
  124SBC   C01787054  11.647   2.115  15.420
  124SBC   C01687055  11.586   2.006  15.360
  124SBC   C01587056  11.660   1.947  15.254
  124SBC   C01487057  11.607   1.827  15.200
  124SBC   C01387058  11.484   1.773  15.242
  124SBC   C01287059  11.471   1.659  15.150
  124SBC   C01187060  11.588   1.661  15.074
  124SBC   C01087061  11.613   1.569  14.978
  124SBC   C00Z87062  11.709   1.560  14.879
  124SBC   C00Y87063  11.664   1.454  14.798
  124SBC   C01O87064  11.543   1.409  14.833
  124SBC   C01P87065  11.459   1.342  14.756
  124SBC   C02L87066  11.338   1.320  14.798
  124SBC   C02K87067  11.305   1.386  14.918
  124SBC   C01M87068  11.387   1.477  14.997
  124SBC   C02J87069  11.176   1.352  14.957
  124SBC   C02I87070  11.119   1.384  15.079
  124SBC   C02H87071  11.154   1.474  15.183
  124SBC   C01Q87072  11.257   1.564  15.200
  124SBC   C02G87073  11.234   1.651  15.311
  124SBC   C08987074  11.129   1.592  15.379
  124SBC   C08887075  11.076   1.680  15.465
  124SBC   C08787076  11.173   1.793  15.459
  124SBC   C08687077  11.170   1.899  15.556
  124SBC   C03S87078  11.273   1.996  15.573
  124SBC   N00687079  11.224   2.074  15.676
  124SBC   C08F87080  11.104   2.024  15.721
  124SBC   C01J87081  11.399   2.033  15.514
  124SBC   C03R87082  11.467   2.138  15.582
  124SBC   C03Q87083  11.412   2.203  15.697
  124SBC   C08E87084  11.064   1.916  15.655
  124SBC   C08D87085  10.937   1.857  15.676
  124SBC   C08K87086  10.849   1.922  15.771
  124SBC   C08C87087  10.880   1.750  15.607
  124SBC   C09187088  10.744   1.716  15.621
  124SBC   C09287089  10.656   1.775  15.707
  124SBC   C08B87090  10.940   1.666  15.509
  124SBC   C09087091  10.831   1.571  15.476
  124SBC   C09487092  10.849   1.453  15.397
  124SBC   C09587093  10.746   1.369  15.349
  124SBC   C09R87094  10.795   1.291  15.241
  124SBC   C09787095  10.921   1.336  15.210
  124SBC   C09687096  10.950   1.435  15.300
  124SBC   C01I87097  11.287   1.764  15.377
  124SBC   C08A87098  11.069   1.499  15.294
  124SBC   C09L87099  11.001   1.315  15.095
  124SBC   C09K87100  10.988   1.231  14.980
  124SBC   C09J87101  10.872   1.155  14.951
  124SBC   C09I87102  10.833   1.126  14.815
  124SBC   C09O87103  10.897   1.111  14.682
  124SBC   C09N87104  11.030   1.148  14.658
  124SBC   C09M87105  11.119   1.214  14.752
  124SBC   C06O87106  11.085   1.108  14.533
  124SBC   C05M87107  11.000   1.056  14.431
  124SBC   C06P87108  10.864   1.031  14.456
  124SBC   C04287109  11.054   1.020  14.309
  124SBC   C04187110  11.192   1.033  14.282
  124SBC   C04087111  11.248   0.994  14.158
  124SBC   C03Z87112  11.380   1.019  14.125
  124SBC   C03Y87113  11.458   1.090  14.220
  124SBC   C02787114  11.586   1.128  14.183
  124SBC   C02687115  11.665   1.204  14.267
  124SBC   C02887116  11.789   1.249  14.227
  124SBC   C02987117  11.830   1.229  14.096
  124SBC   C02B87118  11.949   1.287  14.055
  124SBC   C02C87119  11.989   1.279  13.923
  124SBC   C02X87120  12.092   1.358  13.880
  124SBC   C03E87121  12.120   1.358  13.748
  124SBC   C03G87122  12.037   1.309  13.652
  124SBC   C04Q87123  11.931   1.232  13.695
  124SBC   C04R87124  11.845   1.171  13.604
  124SBC   C04S87125  11.737   1.098  13.643
  124SBC   C04L87126  11.709   1.089  13.776
  124SBC   C04M87127  11.793   1.143  13.873
  124SBC   C04K87128  11.588   1.029  13.822
  124SBC   C04F87129  11.504   0.971  13.727
  124SBC   C04E87130  11.534   0.980  13.589
  124SBC   C04D87131  11.446   0.931  13.491
  124SBC   C05087132  11.463   0.957  13.355
  124SBC   C05187133  11.372   0.923  13.260
  124SBC   C05Q87134  11.401   0.940  13.126
  124SBC   C05V87135  11.302   0.901  13.033
  124SBC   N00587136  11.323   0.922  12.897
  124SBC   C07V87137  11.454   0.966  12.860
  124SBC   C08287138  11.478   0.985  12.723
  124SBC   C08187139  11.390   0.956  12.625
  124SBC   C07C87140  11.265   0.919  12.663
  124SBC   C07B87141  11.165   0.888  12.569
  124SBC   C08087142  11.188   0.909  12.431
  124SBC   C07Z87143  11.082   0.886  12.343
  124SBC   H00L87144  11.113   0.909  12.242
  124SBC   C07987145  10.958   0.834  12.370
  124SBC   C07887146  10.937   0.811  12.509
  124SBC   C07787147  10.818   0.750  12.548
  124SBC   C07X87148  10.718   0.722  12.455
  124SBC   H00I87149  10.616   0.696  12.478
  124SBC   C07Y87150  10.739   0.740  12.322
  124SBC   H00H87151  10.660   0.727  12.249
  124SBC   C07687152  10.798   0.726  12.680
  124SBC   C06C87153  10.691   0.644  12.720
  124SBC   H00C87154  10.624   0.589  12.655
  124SBC   C06F87155  10.889   0.768  12.776
  124SBC   C06E87156  10.872   0.752  12.911
  124SBC   C06G87157  10.957   0.773  13.015
  124SBC   C06H87158  11.083   0.815  12.970
  124SBC   C06I87159  11.106   0.845  12.836
  124SBC   C06L87160  10.925   0.748  13.149
  124SBC   C06M87161  10.799   0.687  13.187
  124SBC   C06K87162  11.025   0.778  13.244
  124SBC   C05S87163  11.147   0.830  13.205
  124SBC   C05U87164  10.997   0.767  13.382
  124SBC   C05X87165  10.865   0.722  13.419
  124SBC   C05G87166  10.849   0.726  13.564
  124SBC   C05F87167  10.956   0.754  13.646
  124SBC   C05E87168  10.911   0.783  13.774
  124SBC   C04887169  10.997   0.823  13.880
  124SBC   C05687170  10.940   0.853  13.994
  124SBC   C04587171  11.028   0.908  14.093
  124SBC   C04787172  11.134   0.844  13.842
  124SBC   C04987173  11.172   0.829  13.706
  124SBC   C04B87174  11.297   0.870  13.672
  124SBC   C04687175  11.216   0.891  13.939
  124SBC   C04H87176  11.347   0.924  13.903
  124SBC   C05D87177  10.777   0.748  13.790
  124SBC   C04A87178  11.086   0.792  13.606
  124SBC   C05T87179  11.103   0.799  13.474
  124SBC   C05587180  11.227   0.849  13.434
  124SBC   C06D87181  10.759   0.677  12.946
  124SBC   C07W87182  11.011   0.815  12.742
  124SBC   C08587183  10.857   0.803  12.277
  124SBC   H00M87184  10.869   0.820  12.171
  124SBC   C08487185  11.311   0.964  12.394
  124SBC   H00J87186  11.339   0.985  12.292
  124SBC   C07A87187  11.038   0.841  12.608
  124SBC   C08387188  11.412   0.981  12.489
  124SBC   H00K87189  11.509   1.016  12.459
  124SBC   O00K87190  11.601   1.032  12.683
  124SBC   C0GO87191  11.690   1.072  12.773
  124SBC   C0GN87192  11.812   1.117  12.729
  124SBC   H01L87193  11.833   1.119  12.623
  124SBC   C0GM87194  11.914   1.141  12.823
  124SBC   C0GL87195  12.046   1.153  12.779
  124SBC   H01M87196  12.061   1.166  12.672
  124SBC   O00J87197  12.151   1.148  12.871
  124SBC   C0GK87198  12.110   1.187  12.999
  124SBC   H01N87199  12.184   1.240  13.058
  124SBC   C05K87200  11.985   1.164  13.047
  124SBC   C05J87201  11.948   1.187  13.185
  124SBC   C04Y87202  12.016   1.259  13.283
  124SBC   C04X87203  11.985   1.260  13.420
  124SBC   O00687204  12.129   1.336  13.243
  124SBC   C05387205  12.186   1.424  13.333
  124SBC   C04O87206  12.161   1.418  13.470
  124SBC   C03C87207  12.235   1.489  13.571
  124SBC   C03B87208  12.333   1.592  13.578
  124SBC   C05487209  12.358   1.672  13.469
  124SBC   C0GR87210  12.431   1.793  13.477
  124SBC   C03M87211  12.479   1.878  13.587
  124SBC   C03I87212  12.468   1.857  13.728
  124SBC   C03J87213  12.526   1.956  13.815
  124SBC   N00287214  12.509   1.939  13.958
  124SBC   C02U87215  12.558   2.040  14.046
  124SBC   C02T87216  12.538   2.033  14.179
  124SBC   C02Z87217  12.582   2.142  14.252
  124SBC   N00187218  12.533   2.159  14.386
  124SBC   C02R87219  12.568   2.275  14.464
  124SBC   C03287220  12.634   2.379  14.406
  124SBC   C03187221  12.689   2.353  14.283
  124SBC   H00787222  12.758   2.421  14.235
  124SBC   C03387223  12.657   2.501  14.486
  124SBC   H00387224  12.705   2.587  14.441
  124SBC   O00487225  12.620   2.516  14.613
  124SBC   C03487226  12.552   2.408  14.667
  124SBC   C03587227  12.512   2.415  14.802
  124SBC   C03687228  12.444   2.309  14.856
  124SBC   H00587229  12.432   2.311  14.964
  124SBC   C03787230  12.418   2.190  14.790
  124SBC   H00687231  12.386   2.096  14.833
  124SBC   C00D87232  12.441   2.189  14.648
  124SBC   C00C87233  12.391   2.083  14.569
  124SBC   C00B87234  12.299   1.977  14.622
  124SBC   C00A87235  12.191   1.952  14.724
  124SBC   C00987236  12.139   1.825  14.696
  124SBC   C00887237  12.030   1.767  14.748
  124SBC   C00787238  11.970   1.821  14.860
  124SBC   C00687239  11.861   1.753  14.915
  124SBC   C00587240  11.795   1.814  15.027
  124SBC   C00487241  11.841   1.940  15.084
  124SBC   C00387242  11.951   2.005  15.018
  124SBC   C00287243  11.995   2.127  15.074
  124SBC   C01C87244  11.944   2.170  15.198
  124SBC   C01B87245  12.000   2.283  15.264
  124SBC   H00087246  12.091   2.331  15.231
  124SBC   C00187247  12.080   2.200  14.993
  124SBC   C00087248  12.115   2.153  14.865
  124SBC   C01U87249  12.147   2.275  14.796
  124SBC   H00287250  12.176   2.275  14.692
  124SBC   C01T87251  12.162   2.385  14.895
  124SBC   O00287252  12.212   2.495  14.889
  124SBC   O00187253  12.109   2.332  15.010
  124SBC   C01S87254  12.011   1.946  14.907
  124SBC   C00N87255  11.992   1.650  14.680
  124SBC   C00M87256  12.052   1.608  14.560
  124SBC   C00J87257  12.159   1.671  14.509
  124SBC   C00I87258  12.208   1.652  14.384
  124SBC   C00H87259  12.307   1.736  14.338
  124SBC   C00G87260  12.350   1.848  14.410
  124SBC   C00F87261  12.417   1.952  14.361
  124SBC   C01X87262  12.338   1.732  14.205
  124SBC   C01W87263  12.282   1.634  14.127
  124SBC   C01V87264  12.190   1.540  14.178
  124SBC   C02087265  12.127   1.443  14.098
  124SBC   C01Z87266  12.319   1.629  13.997
  124SBC   C02Y87267  12.260   1.530  13.926
  124SBC   C03987268  12.283   1.532  13.789
  124SBC   C02W87269  12.393   1.731  13.930
  124SBC   C01Y87270  12.417   1.831  14.153
  124SBC   C00U87271  12.147   1.556  14.303
  124SBC   C00S87272  12.038   1.489  14.349
  124SBC   C00T87273  11.975   1.391  14.271
  124SBC   C00R87274  11.990   1.514  14.477
  124SBC   C00Q87275  11.881   1.448  14.523
  124SBC   C00V87276  11.811   1.360  14.442
  124SBC   C02487277  11.689   1.306  14.481
  124SBC   C00X87278  11.639   1.341  14.600
  124SBC   C00P87279  11.829   1.484  14.647
  124SBC   C00O87280  11.885   1.585  14.725
  124SBC   C00K87281  12.205   1.780  14.585
  124SBC   N00087282  12.116   2.015  14.833
  124SBC   C00L87283  12.300   1.861  14.541
  124SBC   H00487284  12.540   2.502  14.859
  124SBC   C02Q87285  12.522   2.287  14.593
  124SBC   C00E87286  12.448   2.064  14.443
  124SBC   C03087287  12.661   2.247  14.205
  124SBC   O00387288  12.700   2.237  14.072
  124SBC   C02S87289  12.457   1.941  14.230
  124SBC   C03887290  12.638   2.146  13.992
  124SBC   C03L87291  12.660   2.157  13.859
  124SBC   H00887292  12.721   2.236  13.816
  124SBC   C02V87293  12.442   1.830  14.015
  124SBC   C03K87294  12.596   2.068  13.767
  124SBC   C0BK87295  12.609   2.079  13.631
  124SBC   H00T87296  12.663   2.155  13.575
  124SBC   C03H87297  12.408   1.745  13.789
  124SBC   C0BL87298  12.554   1.991  13.540
  124SBC   C0GU87299  12.574   2.014  13.398
  124SBC   H01O87300  12.637   2.096  13.366
  124SBC   C0GT87301  12.524   1.931  13.300
  124SBC   H01P87302  12.542   1.966  13.200
  124SBC   C0GS87303  12.448   1.832  13.340
  124SBC   C0GV87304  12.390   1.731  13.252
  124SBC   C0GW87305  12.389   1.726  13.109
  124SBC   H01Q87306  12.436   1.796  13.041
  124SBC   C0GX87307  12.329   1.622  13.061
  124SBC   H01R87308  12.322   1.622  12.953
  124SBC   O00L87309  12.265   1.521  13.130
  124SBC   C0GQ87310  12.332   1.635  13.331
  124SBC   C03A87311  12.357   1.632  13.714
  124SBC   C05L87312  12.259   1.530  13.270
  124SBC   C04W87313  11.826   1.131  13.231
  124SBC   C05I87314  11.735   1.077  13.141
  124SBC   C05O87315  11.764   1.086  13.006
  124SBC   C05287316  11.618   1.016  13.184
  124SBC   C04V87317  11.790   1.121  13.367
  124SBC   C04U87318  11.677   1.055  13.414
  124SBC   N00987319  11.886   1.132  12.960
  124SBC   C0GP87320  11.670   1.046  12.912
  124SBC   C05W87321  11.549   0.998  12.954
  124SBC   C07D87322  11.230   0.897  12.796
  124SBC   C06J87323  11.178   0.852  13.067
  124SBC   C05P87324  11.524   0.981  13.086
  124SBC   C05R87325  11.251   0.858  13.298
  124SBC   C04Z87326  11.586   1.010  13.320
  124SBC   C04C87327  11.322   0.878  13.534
  124SBC   C04G87328  11.385   0.919  13.768
  124SBC   C04J87329  11.553   1.033  13.958
  124SBC   C04T87330  11.650   1.044  13.545
  124SBC   N00387331  11.877   1.182  13.467
  124SBC   C04P87332  12.059   1.331  13.515
  124SBC   C03D87333  12.212   1.453  13.702
  124SBC   C02187334  12.163   1.444  13.969
  124SBC   C03F87335  11.905   1.218  13.830
  124SBC   C02287336  12.016   1.370  14.143
  124SBC   C02A87337  11.754   1.153  14.009
  124SBC   C02387338  11.859   1.332  14.316
  124SBC   C02587339  11.611   1.238  14.390
  124SBC   C02D87340  11.476   1.199  14.426
  124SBC   C02E87341  11.428   1.235  14.552
  124SBC   C02N87342  11.300   1.202  14.591
  124SBC   C04N87343  11.634   1.101  14.050
  124SBC   C02P87344  11.401   1.126  14.341
  124SBC   C04I87345  11.429   0.990  13.995
  124SBC   C04487346  11.165   0.924  14.065
  124SBC   C04387347  11.272   1.096  14.380
  124SBC   C05N87348  11.222   1.134  14.503
  124SBC   C09U87349  10.812   1.065  14.578
  124SBC   C09V87350  10.674   1.056  14.600
  124SBC   C09X87351  10.613   1.091  14.718
  124SBC   C09Y87352  10.477   1.100  14.739
  124SBC   C0A187353  10.403   1.068  14.632
  124SBC   C0A287354  10.457   1.023  14.516
  124SBC   C0A487355  10.372   0.978  14.419
  124SBC   C07187356  10.421   0.929  14.299
  124SBC   C0A587357  10.341   0.879  14.204
  124SBC   C0A987358  10.205   0.883  14.223
  124SBC   C0A887359  10.151   0.937  14.340
  124SBC   C0AP87360  10.018   0.951  14.359
  124SBC   C0BY87361   9.971   1.012  14.472
  124SBC   C0BX87362  10.047   1.059  14.571
  124SBC   C0C287363   9.990   1.126  14.682
  124SBC   C0C387364  10.078   1.166  14.784
  124SBC   C0CT87365  10.209   1.140  14.770
  124SBC   C0C187366   9.859   1.173  14.676
  124SBC   C0C087367   9.769   1.122  14.566
  124SBC   C0A787368  10.184   1.035  14.561
  124SBC   C0BZ87369   9.830   1.035  14.477
  124SBC   C0BO87370   9.746   0.998  14.379
  124SBC   C0BN87371   9.793   0.939  14.266
  124SBC   C0BM87372   9.704   0.929  14.160
  124SBC   C0B987373   9.751   0.862  14.049
  124SBC   C0B887374   9.883   0.824  14.046
  124SBC   C0AD87375   9.972   0.853  14.147
  124SBC   C0AF87376   9.932   0.774  13.922
  124SBC   C0AG87377   9.852   0.756  13.813
  124SBC   C0B787378   9.715   0.791  13.824
  124SBC   C0AE87379  10.069   0.755  13.915
  124SBC   C0AB87380  10.158   0.793  14.011
  124SBC   C0AA87381  10.296   0.790  13.986
  124SBC   C0AJ87382  10.119   0.702  13.800
  124SBC   C0AK87383  10.253   0.688  13.779
  124SBC   C06W87384  10.270   0.636  13.663
  124SBC   C0AI87385  10.048   0.667  13.688
  124SBC   C0BP87386   9.623   1.061  14.392
  124SBC   C0BQ87387   9.530   1.052  14.280
  124SBC   C0BW87388   9.928   0.915  14.261
  124SBC   C0AC87389  10.112   0.843  14.127
  124SBC   C0A687390  10.236   0.979  14.440
  124SBC   C0A387391  10.267   1.088  14.654
  124SBC   C09Z87392  10.424   1.140  14.863
  124SBC   C09W87393  10.592   1.019  14.496
  124SBC   C07287394  10.645   0.973  14.379
  124SBC   C09H87395  10.697   1.103  14.825
  124SBC   C09G87396  10.644   1.120  14.951
  124SBC   C09P87397  10.750   1.161  15.032
  124SBC   C02O87398  11.092   1.253  14.887
  124SBC   C02M87399  11.252   1.244  14.717
  124SBC   C02F87400  11.514   1.301  14.639
  124SBC   C00W87401  11.714   1.420  14.677
  124SBC   C01R87402  11.822   1.635  14.841
  124SBC   C01N87403  11.513   1.481  14.945
  124SBC   C01L87404  11.368   1.565  15.114
  124SBC   C01H87405  11.410   1.832  15.348
  124SBC   C01K87406  11.670   1.765  15.092
  124SBC   C01E87407  11.775   1.997  15.194
  124SBC   C01G87408  11.464   1.955  15.409
  124SBC   C01D87409  11.827   2.110  15.254
  124SBC   C01A87410  11.949   2.325  15.388
  124SBC   H00187411  11.996   2.409  15.437
  124SBC   C01F87412  11.594   2.174  15.534
  124SBC   C03P87413  11.481   2.299  15.769
  124SBC   C03T87414  11.288   2.170  15.745
  124SBC   C08I87415  11.027   2.079  15.822
  124SBC   C08J87416  10.901   2.023  15.850
  124SBC   C08L87417  10.719   1.874  15.789
  124SBC   C09387418  10.523   1.730  15.717
  124SBC   C08Z87419  10.704   1.610  15.540
  124SBC   C09T87420  10.271   1.447  15.432
  124SBC   C09S87421  10.611   1.365  15.383
  124SBC   C09Q87422  10.713   1.216  15.156
  124SBC   C09F87423  10.507   1.151  14.969
  124SBC   C09E87424  10.308   1.304  15.238
  124SBC   C0A087425  10.291   1.169  14.877
  124SBC   C0CU87426  10.026   1.233  14.896
  124SBC   C0CR87427   9.889   1.271  14.892
  124SBC   C0CZ87428   9.831   1.314  15.009
  124SBC   C0DA87429  10.207   1.383  15.305
  124SBC   C0D987430   9.857   1.470  15.402
  124SBC   H00V87431   9.900   1.553  15.456
  124SBC   C0CY87432   9.902   1.284  15.128
  124SBC   C0DF87433   9.713   1.433  15.388
  124SBC   C0DE87434   9.577   1.480  15.410
  124SBC   C0GI87435   9.511   1.552  15.517
  124SBC   H01K87436   9.560   1.591  15.605
  124SBC   C0GJ87437   9.381   1.575  15.499
  124SBC   H01J87438   9.333   1.641  15.570
  124SBC   O00I87439   9.300   1.521  15.398
  124SBC   C0GH87440   9.366   1.473  15.284
  124SBC   C0GG87441   9.290   1.446  15.166
  124SBC   O00G87442   9.153   1.453  15.182
  124SBC   C0G887443   9.074   1.403  15.083
  124SBC   C0G987444   8.944   1.381  15.125
  124SBC   H01G87445   8.926   1.389  15.231
  124SBC   C0GA87446   8.853   1.324  15.039
  124SBC   H01H87447   8.752   1.315  15.074
  124SBC   C0GB87448   8.886   1.293  14.906
  124SBC   C0EP87449   9.021   1.315  14.864
  124SBC   C0E887450   9.055   1.282  14.725
  124SBC   C0CK87451   9.168   1.291  14.638
  124SBC   C0CL87452   9.281   1.369  14.664
  124SBC   C0E987453   9.321   1.414  14.795
  124SBC   C0GE87454   9.256   1.413  14.929
  124SBC   C0E787455   8.959   1.222  14.640
  124SBC   C0CJ87456   9.005   1.185  14.514
  124SBC   C0E687457   8.919   1.113  14.432
  124SBC   H00Y87458   8.954   1.057  14.345
  124SBC   C0EO87459   8.793   1.086  14.472
  124SBC   H01187460   8.735   1.018  14.411
  124SBC   C0G687461   8.739   1.130  14.595
  124SBC   C0G587462   8.606   1.114  14.643
  124SBC   H01F87463   8.535   1.063  14.579
  124SBC   C0GD87464   8.580   1.151  14.769
  124SBC   H01I87465   8.483   1.129  14.811
  124SBC   O00H87466   8.671   1.200  14.863
  124SBC   C0EQ87467   8.829   1.194  14.686
  124SBC   C0GC87468   8.790   1.238  14.813
  124SBC   C0G787469   9.119   1.373  14.952
  124SBC   C0DD87470   9.501   1.435  15.303
  124SBC   C0GF87471   9.347   1.437  15.037
  124SBC   C0CO87472   9.451   1.460  14.774
  124SBC   C0D087473   9.701   1.371  14.995
  124SBC   C0C487474   9.810   1.256  14.775
  124SBC   C0CN87475   9.498   1.436  14.641
  124SBC   C0CP87476   9.634   1.135  14.515
  124SBC   C0CM87477   9.388   1.384  14.563
  124SBC   C0CI87478   9.136   1.232  14.507
  124SBC   C0CD87479   9.126   1.171  14.041
  124SBC   C0BR87480   9.404   1.113  14.284
  124SBC   C0CS87481   9.577   0.988  14.166
  124SBC   C0B687482   9.667   0.848  13.942
  124SBC   C0CG87483   9.282   1.013  13.947
  124SBC   C0CF87484   9.165   1.091  13.940
  124SBC   C0E587485   8.940   1.259  13.907
  124SBC   C0DT87486   8.798   1.261  13.672
  124SBC   C0DL87487   9.064   1.019  13.589
  124SBC   C0DM87488   9.112   0.948  13.477
  124SBC   C0DY87489   8.920   1.019  13.348
  124SBC   C0DU87490   8.728   1.246  13.555
  124SBC   C0F087491   8.556   1.352  13.418
  124SBC   C0F487492   8.496   1.435  13.160
  124SBC   C0FG87493   8.657   1.106  13.111
  124SBC   O00B87494   8.545   1.397  12.925
  124SBC   C0FN87495   8.699   1.064  12.992
  124SBC   C0DZ87496   8.852   1.020  13.224
  124SBC   O00C87497   9.067   0.829  13.005
  124SBC   C0FR87498   9.176   0.758  13.006
  124SBC   O00D87499   9.202   0.711  12.897
  124SBC   C0E087500   9.044   0.953  13.357
  124SBC   C0E387501   9.253   0.746  13.134
  124SBC   C0AW87502   9.376   0.682  13.139
  124SBC   C0AV87503   9.447   0.618  13.029
  124SBC   H00Q87504   9.399   0.611  12.932
  124SBC   C0AU87505   9.575   0.556  13.047
  124SBC   H00R87506   9.634   0.506  12.972
  124SBC   C0AT87507   9.638   0.564  13.171
  124SBC   C0AS87508   9.756   0.514  13.244
  124SBC   C0AR87509   9.825   0.388  13.229
  124SBC   C0BE87510   9.568   0.633  13.268
  124SBC   C0DN87511   9.232   0.881  13.490
  124SBC   C0AX87512   9.438   0.686  13.262
  124SBC   C0BB87513   9.428   0.827  13.603
  124SBC   C0BD87514   9.644   0.652  13.377
  124SBC   C0B287515   9.639   0.791  13.708
  124SBC   C0AH87516   9.905   0.700  13.692
  124SBC   C0BF87517   9.768   0.593  13.362
  124SBC   C0AL87518  10.145   0.622  13.593
  124SBC   C07U87519  10.039   0.502  13.299
  124SBC   C0AQ87520   9.965   0.396  13.237
  124SBC   C0BG87521   9.803   0.269  13.147
  124SBC   C0FY87522  10.026   0.171  12.891
  124SBC   C0BJ87523   9.715   0.256  13.024
  124SBC   H00S87524   9.615   0.290  13.004
  124SBC   C0FZ87525   9.955   0.174  12.770
  124SBC   C07S87526  10.156   0.230  12.898
  124SBC   C0G187527  10.224   0.205  12.530
  124SBC   C07K87528  10.565   0.279  12.644
  124SBC   C07H87529  10.419   0.358  12.878
  124SBC   C06B87530  10.678   0.618  12.853
  124SBC   C06N87531  10.719   0.644  13.074
  124SBC   C06687532  10.372   0.435  13.119
  124SBC   C06287533  10.394   0.582  13.381
  124SBC   C05Y87534  10.765   0.672  13.324
  124SBC   C06187535  10.454   0.562  13.505
  124SBC   C05H87536  10.739   0.724  13.656
  124SBC   C06V87537  10.399   0.616  13.624
  124SBC   C06Y87538  10.348   0.733  13.874
  124SBC   C05C87539  10.716   0.780  13.918
  124SBC   C06Z87540  10.390   0.835  14.083
  124SBC   C07087541  10.562   0.929  14.275
  124SBC   C05B87542  10.803   0.836  14.019
  124SBC   C05787543  10.974   0.953  14.210
  124SBC   C05987544  10.783   0.974  14.356
  125SBC   C05887545   5.735   6.718  11.311
  125SBC   C05A87546   5.738   6.649  11.433
  125SBC   C06Q87547   5.636   6.661  11.527
  125SBC   C06R87548   5.640   6.592  11.650
  125SBC   C06S87549   5.749   6.511  11.684
  125SBC   C06T87550   5.749   6.449  11.814
  125SBC   C06U87551   5.849   6.349  11.870
  125SBC   C06X87552   5.952   6.274  11.816
  125SBC   C06087553   6.011   6.187  11.916
  125SBC   C05Z87554   6.066   6.052  11.906
  125SBC   C06887555   6.009   5.983  12.034
  125SBC   C06787556   6.041   5.843  12.089
  125SBC   C06987557   6.133   5.755  12.016
  125SBC   C06A87558   6.195   5.628  12.063
  125SBC   C07387559   6.216   5.566  12.190
  125SBC   C07P87560   6.342   5.509  12.218
  125SBC   C07O87561   6.465   5.543  12.157
  125SBC   H00D87562   6.455   5.623  12.085
  125SBC   C07N87563   6.585   5.484  12.179
  125SBC   H00E87564   6.675   5.520  12.132
  125SBC   C07M87565   6.581   5.370  12.257
  125SBC   H00F87566   6.673   5.315  12.273
  125SBC   C07L87567   6.470   5.343  12.343
  125SBC   C07Q87568   6.465   5.243  12.446
  125SBC   H00G87569   6.547   5.172  12.449
  125SBC   O00F87570   6.361   5.229  12.531
  125SBC   C07J87571   6.247   5.295  12.506
  125SBC   C07I87572   6.237   5.388  12.401
  125SBC   N00487573   6.116   5.459  12.378
  125SBC   C07R87574   6.010   5.440  12.466
  125SBC   C07T87575   6.035   5.362  12.582
  125SBC   C0FX87576   5.950   5.357  12.690
  125SBC   C0FW87577   5.977   5.304  12.816
  125SBC   C0G087578   6.092   5.224  12.830
  125SBC   C0G287579   6.128   5.154  12.952
  125SBC   H01E87580   6.213   5.088  12.943
  125SBC   C0G387581   6.057   5.182  13.064
  125SBC   H01C87582   6.078   5.131  13.157
  125SBC   C0G487583   5.942   5.267  13.054
  125SBC   H01D87584   5.892   5.291  13.147
  125SBC   O00E87585   6.181   5.217  12.721
  125SBC   C0FV87586   5.894   5.323  12.930
  125SBC   C0FU87587   5.779   5.402  12.915
  125SBC   H01B87588   5.715   5.419  13.001
  125SBC   C0FT87589   5.740   5.441  12.788
  125SBC   C0FS87590   5.653   5.544  12.733
  125SBC   C0BI87591   5.661   5.544  12.586
  125SBC   C0BH87592   5.619   5.660  12.536
  125SBC   C07F87593   5.690   5.738  12.442
  125SBC   C07E87594   5.798   5.716  12.362
  125SBC   C07G87595   5.890   5.616  12.360
  125SBC   C07487596   5.991   5.646  12.272
  125SBC   C06587597   5.855   5.820  12.281
  125SBC   C06487598   5.796   5.949  12.283
  125SBC   C06387599   5.825   6.068  12.213
  125SBC   C07587600   5.719   6.162  12.265
  125SBC   C0AM87601   5.642   6.108  12.376
  125SBC   C0AN87602   5.536   6.165  12.456
  125SBC   C0AO87603   5.436   6.268  12.422
  125SBC   C0B187604   5.332   6.304  12.516
  125SBC   C0B087605   5.336   6.262  12.646
  125SBC   C0AZ87606   5.243   6.291  12.745
  125SBC   C0AY87607   5.257   6.241  12.873
  125SBC   N00787608   5.154   6.256  12.963
  125SBC   C0E287609   5.167   6.200  13.092
  125SBC   C0E187610   5.063   6.220  13.178
  125SBC   C0E487611   5.080   6.181  13.312
  125SBC   C0FF87612   4.972   6.183  13.403
  125SBC   C0FJ87613   4.967   6.152  13.548
  125SBC   C0FK87614   5.062   6.212  13.642
  125SBC   H01687615   5.162   6.246  13.624
  125SBC   C0FL87616   4.990   6.239  13.769
  125SBC   H01787617   5.030   6.294  13.852
  125SBC   C0FM87618   4.852   6.205  13.750
  125SBC   C0FH87619   4.717   6.256  13.780
  125SBC   C0FI87620   4.649   6.230  13.661
  125SBC   C0F387621   4.542   6.322  13.619
  125SBC   C0F287622   4.527   6.333  13.487
  125SBC   C0DW87623   4.619   6.311  13.390
  125SBC   C0FE87624   4.733   6.234  13.428
  125SBC   C0DV87625   4.611   6.359  13.265
  125SBC   C0DX87626   4.717   6.347  13.179
  125SBC   C0DK87627   4.705   6.412  13.055
  125SBC   C0DJ87628   4.593   6.490  13.022
  125SBC   C0DI87629   4.591   6.544  12.896
  125SBC   C0DH87630   4.694   6.528  12.811
  125SBC   C0DG87631   4.805   6.452  12.843
  125SBC   C0BV87632   4.908   6.431  12.752
  125SBC   C0BC87633   5.024   6.367  12.789
  125SBC   C0BA87634   4.898   6.485  12.623
  125SBC   C0B487635   5.001   6.469  12.535
  125SBC   C0B387636   5.114   6.393  12.571
  125SBC   C0B587637   4.992   6.524  12.407
  125SBC   C0BU87638   4.879   6.597  12.371
  125SBC   C0BT87639   4.771   6.609  12.460
  125SBC   C0BS87640   4.651   6.679  12.421
  125SBC   C0CC87641   4.545   6.703  12.511
  125SBC   C0CB87642   4.430   6.768  12.470
  125SBC   C0CH87643   4.355   6.813  12.581
  125SBC   C0DO87644   4.365   6.763  12.711
  125SBC   C0DP87645   4.270   6.799  12.808
  125SBC   C0EA87646   4.161   6.889  12.783
  125SBC   H01287647   4.126   6.909  12.683
  125SBC   O00987648   4.077   6.936  12.882
  125SBC   C0EH87649   4.088   6.874  13.002
  125SBC   C0EG87650   3.996   6.909  13.100
  125SBC   C0EJ87651   3.883   6.994  13.101
  125SBC   H01087652   3.838   7.051  13.021
  125SBC   C0EK87653   3.838   7.014  13.237
  125SBC   H00Z87654   3.760   7.083  13.268
  125SBC   C0EL87655   3.925   6.937  13.318
  125SBC   C0EM87656   3.934   6.921  13.457
  125SBC   C0EW87657   3.860   6.983  13.562
  125SBC   H01387658   3.770   7.036  13.533
  125SBC   C0EX87659   3.881   6.944  13.702
  125SBC   H01487660   3.819   6.974  13.785
  125SBC   C0F187661   3.991   6.850  13.735
  125SBC   C0EU87662   4.071   6.803  13.630
  125SBC   C0ET87663   4.167   6.704  13.635
  125SBC   C0ES87664   4.203   6.684  13.501
  125SBC   C0EE87665   4.130   6.758  13.412
  125SBC   C0ED87666   4.114   6.781  13.273
  125SBC   C0EC87667   4.199   6.733  13.166
  125SBC   C0EB87668   4.297   6.633  13.192
  125SBC   C0EN87669   4.319   6.569  13.324
  125SBC   C0ER87670   4.398   6.459  13.323
  125SBC   C0DS87671   4.387   6.595  13.091
  125SBC   C0DR87672   4.385   6.654  12.965
  125SBC   C0EY87673   4.286   6.589  13.459
  125SBC   C0EZ87674   4.343   6.494  13.545
  125SBC   C0F587675   4.383   6.490  13.689
  125SBC   C0F687676   4.321   6.573  13.787
  125SBC   N00887677   4.376   6.557  13.920
  125SBC   C0F787678   4.494   6.479  13.950
  125SBC   C0FQ87679   4.551   6.483  14.082
  125SBC   H01887680   4.639   6.425  14.106
  125SBC   C0FP87681   4.487   6.557  14.185
  125SBC   H01987682   4.524   6.559  14.287
  125SBC   C0FO87683   4.362   6.619  14.154
  125SBC   H01A87684   4.325   6.688  14.228
  125SBC   C0F887685   4.546   6.406  13.844
  125SBC   C0F987686   4.310   6.621  14.027
  125SBC   C0FA87687   4.194   6.704  14.003
  125SBC   H01587688   4.147   6.756  14.085
  125SBC   C0FB87689   4.140   6.715  13.870
  125SBC   C0FD87690   4.209   6.655  13.766
  125SBC   C0FC87691   4.028   6.806  13.860
  125SBC   O00A87692   3.971   6.855  13.960
  125SBC   C0EV87693   4.044   6.835  13.498
  125SBC   C0EF87694   4.016   6.874  13.231
  125SBC   C0EI87695   4.188   6.778  13.036
  125SBC   C0DQ87696   4.283   6.745  12.939
  125SBC   C0CE87697   4.472   6.678  12.742
  125SBC   H00U87698   4.282   6.891  12.567
  125SBC   C0CA87699   4.400   6.783  12.334
  125SBC   C0C987700   4.505   6.773  12.238
  125SBC   C0C887701   4.470   6.790  12.097
  125SBC   C0C787702   4.545   6.822  11.977
  125SBC   C0C687703   4.477   6.807  11.849
  125SBC   C0C587704   4.492   6.869  11.719
  125SBC   C0CQ87705   4.371   6.891  11.647
  125SBC   C0D187706   4.248   6.878  11.711
  125SBC   C0D887707   4.182   6.997  11.679
  125SBC   C0D787708   4.227   7.038  11.552
  125SBC   C0D687709   4.181   7.144  11.475
  125SBC   C0D587710   4.212   7.158  11.339
  125SBC   C0D487711   4.330   7.105  11.276
  125SBC   C0D387712   4.360   7.204  11.173
  125SBC   C0CX87713   4.506   7.204  11.156
  125SBC   C0CW87714   4.566   7.134  11.272
  125SBC   C0CV87715   4.700   7.103  11.331
  125SBC   C0D287716   4.820   7.127  11.253
  125SBC   C09D87717   4.831   7.208  11.130
  125SBC   C09C87718   4.960   7.228  11.066
  125SBC   C09B87719   4.984   7.294  10.945
  125SBC   C09A87720   4.874   7.354  10.883
  125SBC   C09987721   4.755   7.351  10.942
  125SBC   C09887722   4.654   7.392  10.857
  125SBC   C08Y87723   4.713   7.394  10.725
  125SBC   C08X87724   4.667   7.364  10.595
  125SBC   C08W87725   4.529   7.332  10.580
  125SBC   C08U87726   4.429   7.298  10.682
  125SBC   C08V87727   4.440   7.279  10.822
  125SBC   C0DC87728   4.302   7.263  10.862
  125SBC   H00W87729   4.261   7.262  10.961
  125SBC   C0DB87730   4.209   7.252  10.750
  125SBC   H00X87731   4.102   7.240  10.756
  125SBC   C08T87732   4.291   7.281  10.637
  125SBC   C08S87733   4.245   7.304  10.510
  125SBC   H00N87734   4.138   7.302  10.494
  125SBC   C08R87735   4.342   7.309  10.410
  125SBC   C08Q87736   4.303   7.299  10.272
  125SBC   H00O87737   4.196   7.304  10.256
  125SBC   C08P87738   4.393   7.271  10.174
  125SBC   C08O87739   4.354   7.230  10.046
  125SBC   H00P87740   4.249   7.241  10.024
  125SBC   C08N87741   4.443   7.190   9.950
  125SBC   C08M87742   4.393   7.143   9.823
  125SBC   O00887743   4.274   7.123   9.803
  125SBC   O00787744   4.491   7.109   9.739
  125SBC   C08H87745   4.629   7.112   9.757
  125SBC   C08G87746   4.727   7.076   9.657
  125SBC   C03V87747   4.707   7.031   9.527
  125SBC   H00987748   4.605   7.016   9.495
  125SBC   C03U87749   4.818   7.003   9.436
  125SBC   C03W87750   4.799   6.943   9.304
  125SBC   H00A87751   4.699   6.927   9.265
  125SBC   C03X87752   4.904   6.921   9.227
  125SBC   H00B87753   4.898   6.868   9.133
  125SBC   O00587754   5.035   6.940   9.275
  125SBC   C03O87755   5.055   7.005   9.398
  125SBC   C03N87756   5.188   7.030   9.439
  125SBC   O00087757   5.285   6.991   9.349
  125SBC   C01987758   5.412   6.984   9.397
  125SBC   C01887759   5.446   7.036   9.525
  125SBC   C01787760   5.347   7.084   9.610
  125SBC   C01687761   5.376   7.117   9.743
  125SBC   C01587762   5.513   7.107   9.779
  125SBC   C01487763   5.551   7.158   9.905
  125SBC   C01387764   5.460   7.195  10.000
  125SBC   C01287765   5.542   7.215  10.123
  125SBC   C01187766   5.680   7.202  10.075
  125SBC   C01087767   5.784   7.210  10.159
  125SBC   C00Z87768   5.911   7.159  10.140
  125SBC   C00Y87769   5.955   7.142  10.277
  125SBC   C01O87770   5.859   7.175  10.371
  125SBC   C01P87771   5.849   7.107  10.494
  125SBC   C02L87772   5.727   7.120  10.556
  125SBC   C02K87773   5.624   7.184  10.488
  125SBC   C01M87774   5.624   7.223  10.348
  125SBC   C02J87775   5.518   7.205  10.571
  125SBC   C02I87776   5.403   7.276  10.537
  125SBC   C02H87777   5.348   7.327  10.418
  125SBC   C01Q87778   5.386   7.291  10.290
  125SBC   C02G87779   5.278   7.317  10.200
  125SBC   C08987780   5.173   7.374  10.280
  125SBC   C08887781   5.050   7.337  10.228
  125SBC   C08787782   5.085   7.269  10.098
  125SBC   C08687783   4.996   7.223   9.999
  125SBC   C03S87784   5.024   7.173   9.866
  125SBC   N00687785   4.902   7.146   9.808
  125SBC   C08F87786   4.800   7.174   9.897
  125SBC   C01J87787   5.137   7.144   9.791
  125SBC   C03R87788   5.112   7.097   9.656
  125SBC   C03Q87789   4.975   7.071   9.612
  125SBC   C08E87790   4.856   7.222  10.015
  125SBC   C08D87791   4.766   7.254  10.129
  125SBC   C08K87792   4.629   7.241  10.102
  125SBC   C08C87793   4.800   7.305  10.256
  125SBC   C09187794   4.702   7.329  10.358
  125SBC   C09287795   4.566   7.309  10.335
  125SBC   C08B87796   4.926   7.341  10.308
  125SBC   C09087797   4.897   7.394  10.444
  125SBC   C09487798   4.997   7.417  10.544
  125SBC   C09587799   4.974   7.401  10.682
  125SBC   C09R87800   5.092   7.354  10.742
  125SBC   C09787801   5.190   7.342  10.642
  125SBC   C09687802   5.133   7.379  10.526
  125SBC   C01I87803   5.231   7.257  10.078
  125SBC   C08A87804   5.217   7.371  10.411
  125SBC   C09L87805   5.322   7.284  10.652
  125SBC   C09K87806   5.388   7.209  10.758
  125SBC   C09J87807   5.331   7.175  10.880
  125SBC   C09I87808   5.382   7.083  10.971
  125SBC   C09O87809   5.505   7.006  10.992
  125SBC   C09N87810   5.611   7.004  10.898
  125SBC   C09M87811   5.612   7.067  10.768
  125SBC   C06O87812   5.723   6.920  10.932
  125SBC   C05M87813   5.729   6.855  11.059
  125SBC   C06P87814   5.625   6.870  11.155
  125SBC   C04287815   5.833   6.768  11.090
  125SBC   C04187816   5.934   6.750  11.003
  125SBC   C04087817   6.036   6.659  11.032
  125SBC   C03Z87818   6.145   6.645  10.937
  125SBC   C03Y87819   6.155   6.719  10.820
  125SBC   C02787820   6.266   6.703  10.742
  125SBC   C02687821   6.267   6.773  10.628
  125SBC   C02887822   6.366   6.749  10.531
  125SBC   C02987823   6.458   6.656  10.562
  125SBC   C02B87824   6.557   6.624  10.465
  125SBC   C02C87825   6.653   6.530  10.493
  125SBC   C02X87826   6.750   6.503  10.400
  125SBC   C03E87827   6.837   6.402  10.433
  125SBC   C03G87828   6.845   6.328  10.549
  125SBC   C04Q87829   6.750   6.357  10.641
  125SBC   C04R87830   6.741   6.280  10.755
  125SBC   C04S87831   6.645   6.306  10.847
  125SBC   C04L87832   6.560   6.413  10.827
  125SBC   C04M87833   6.561   6.488  10.711
  125SBC   C04K87834   6.456   6.440  10.918
  125SBC   C04F87835   6.439   6.353  11.024
  125SBC   C04E87836   6.529   6.253  11.049
  125SBC   C04D87837   6.508   6.164  11.159
  125SBC   C05087838   6.591   6.055  11.183
  125SBC   C05187839   6.564   5.968  11.285
  125SBC   C05Q87840   6.651   5.862  11.304
  125SBC   C05V87841   6.623   5.772  11.404
  125SBC   N00587842   6.705   5.656  11.415
  125SBC   C07V87843   6.810   5.636  11.330
  125SBC   C08287844   6.902   5.538  11.362
  125SBC   C08187845   6.868   5.436  11.451
  125SBC   C07C87846   6.745   5.445  11.517
  125SBC   C07B87847   6.703   5.339  11.600
  125SBC   C08087848   6.779   5.223  11.612
  125SBC   C07Z87849   6.727   5.116  11.681
  125SBC   H00L87850   6.785   5.025  11.689
  125SBC   C07987851   6.605   5.120  11.750
  125SBC   C07887852   6.537   5.242  11.745
  125SBC   C07787853   6.426   5.262  11.830
  125SBC   C07X87854   6.378   5.153  11.903
  125SBC   H00I87855   6.282   5.159  11.952
  125SBC   C07Y87856   6.438   5.031  11.899
  125SBC   H00H87857   6.402   4.947  11.955
  125SBC   C07687858   6.372   5.387  11.844
  125SBC   C06C87859   6.279   5.414  11.945
  125SBC   H00C87860   6.249   5.338  12.015
  125SBC   C06F87861   6.412   5.488  11.754
  125SBC   C06E87862   6.347   5.615  11.758
  125SBC   C06G87863   6.375   5.717  11.671
  125SBC   C06H87864   6.481   5.699  11.583
  125SBC   C06I87865   6.554   5.578  11.581
  125SBC   C06L87866   6.303   5.840  11.685
  125SBC   C06M87867   6.215   5.877  11.794
  125SBC   C06K87868   6.336   5.936  11.585
  125SBC   C05S87869   6.439   5.912  11.489
  125SBC   C05U87870   6.266   6.051  11.575
  125SBC   C05X87871   6.169   6.088  11.678
  125SBC   C05G87872   6.090   6.198  11.634
  125SBC   C05F87873   6.122   6.268  11.513
  125SBC   C05E87874   6.024   6.362  11.488
  125SBC   C04887875   6.031   6.438  11.372
  125SBC   C05687876   5.933   6.532  11.358
  125SBC   C04587877   5.934   6.603  11.238
  125SBC   C04787878   6.127   6.410  11.276
  125SBC   C04987879   6.222   6.316  11.306
  125SBC   C04B87880   6.322   6.295  11.219
  125SBC   C04687881   6.137   6.488  11.165
  125SBC   C04H87882   6.241   6.472  11.078
  125SBC   C05D87883   5.943   6.381  11.597
  125SBC   C04A87884   6.210   6.237  11.422
  125SBC   C05T87885   6.288   6.132  11.458
  125SBC   C05587886   6.384   6.103  11.361
  125SBC   C06D87887   6.265   5.649  11.864
  125SBC   C07W87888   6.516   5.476  11.668
  125SBC   C08587889   6.550   5.011  11.820
  125SBC   H00M87890   6.599   4.915  11.816
  125SBC   C08487891   6.912   5.226  11.565
  125SBC   H00J87892   6.986   5.155  11.598
  125SBC   C07A87893   6.586   5.352  11.669
  125SBC   C08387894   6.955   5.331  11.482
  125SBC   H00K87895   7.055   5.335  11.440
  125SBC   O00K87896   7.026   5.531  11.299
  125SBC   C0GO87897   7.049   5.613  11.192
  125SBC   C0GN87898   7.172   5.599  11.123
  125SBC   H01L87899   7.246   5.526  11.150
  125SBC   C0GM87900   7.198   5.692  11.012
  125SBC   C0GL87901   7.313   5.694  10.949
  125SBC   H01M87902   7.392   5.625  10.977
  125SBC   O00J87903   7.346   5.790  10.853
  125SBC   C0GK87904   7.253   5.882  10.819
  125SBC   H01N87905   7.285   5.961  10.752
  125SBC   C05K87906   7.128   5.880  10.873
  125SBC   C05J87907   7.026   5.971  10.831
  125SBC   C04Y87908   7.024   6.045  10.708
  125SBC   C04X87909   6.926   6.147  10.682
  125SBC   O00687910   7.107   6.004  10.605
  125SBC   C05387911   7.100   6.060  10.482
  125SBC   C04O87912   7.019   6.175  10.456
  125SBC   C03C87913   7.003   6.251  10.336
  125SBC   C03B87914   7.036   6.228  10.199
  125SBC   C05487915   7.116   6.119  10.157
  125SBC   C0GR87916   7.137   6.091  10.019
  125SBC   C03M87917   7.100   6.152   9.888
  125SBC   C03I87918   7.009   6.263   9.867
  125SBC   C03J87919   6.970   6.297   9.731
  125SBC   N00287920   6.877   6.396   9.703
  125SBC   C02U87921   6.828   6.415   9.569
  125SBC   C02T87922   6.718   6.499   9.544
  125SBC   C02Z87923   6.668   6.511   9.412
  125SBC   N00187924   6.563   6.599   9.388
  125SBC   C02R87925   6.517   6.612   9.252
  125SBC   C03287926   6.579   6.539   9.149
  125SBC   C03187927   6.682   6.450   9.182
  125SBC   H00787928   6.721   6.384   9.107
  125SBC   C03387929   6.528   6.562   9.011
  125SBC   H00387930   6.571   6.502   8.932
  125SBC   O00487931   6.420   6.643   8.985
  125SBC   C03487932   6.371   6.717   9.089
  125SBC   C03587933   6.269   6.795   9.057
  125SBC   C03687934   6.210   6.870   9.158
  125SBC   H00587935   6.138   6.941   9.120
  125SBC   C03787936   6.244   6.851   9.286
  125SBC   H00687937   6.193   6.913   9.358
  125SBC   C00D87938   6.350   6.766   9.325
  125SBC   C00C87939   6.391   6.753   9.462
  125SBC   C00B87940   6.329   6.831   9.579
  125SBC   C00A87941   6.215   6.931   9.612
  125SBC   C00987942   6.246   6.969   9.749
  125SBC   C00887943   6.156   7.018   9.849
  125SBC   C00787944   6.028   7.047   9.811
  125SBC   C00687945   5.935   7.096   9.904
  125SBC   C00587946   5.799   7.109   9.861
  125SBC   C00487947   5.756   7.072   9.729
  125SBC   C00387948   5.847   7.011   9.647
  125SBC   C00287949   5.805   6.955   9.527
  125SBC   C01C87950   5.676   6.983   9.481
  125SBC   C01B87951   5.642   6.940   9.351
  125SBC   H00087952   5.719   6.906   9.284
  125SBC   C00187953   5.884   6.850   9.473
  125SBC   C00087954   6.010   6.821   9.526
  125SBC   C01U87955   6.049   6.699   9.467
  125SBC   H00287956   6.144   6.648   9.461
  125SBC   C01T87957   5.936   6.656   9.377
  125SBC   O00287958   5.928   6.557   9.311
  125SBC   O00187959   5.840   6.747   9.389
  125SBC   C01S87960   5.985   6.998   9.686
  125SBC   C00N87961   6.201   7.012   9.982
  125SBC   C00M87962   6.317   6.944  10.018
  125SBC   C00J87963   6.395   6.882   9.926
  125SBC   C00I87964   6.499   6.799   9.948
  125SBC   C00H87965   6.569   6.737   9.848
  125SBC   C00G87966   6.520   6.741   9.718
  125SBC   C00F87967   6.565   6.662   9.617
  125SBC   C01X87968   6.674   6.649   9.875
  125SBC   C01W87969   6.704   6.620  10.007
  125SBC   C01V87970   6.627   6.681  10.108
  125SBC   C02087971   6.644   6.642  10.241
  125SBC   C01Z87972   6.798   6.528  10.033
  125SBC   C02Y87973   6.815   6.503  10.166
  125SBC   C03987974   6.915   6.416  10.199
  125SBC   C02W87975   6.869   6.454   9.931
  125SBC   C01Y87976   6.734   6.579   9.771
  125SBC   C00U87977   6.526   6.771  10.080
  125SBC   C00S87978   6.444   6.815  10.179
  125SBC   C00T87979   6.460   6.783  10.311
  125SBC   C00R87980   6.340   6.905  10.149
  125SBC   C00Q87981   6.253   6.951  10.247
  125SBC   C00V87982   6.263   6.907  10.380
  125SBC   C02487983   6.166   6.926  10.478
  125SBC   C00X87984   6.064   7.015  10.443
  125SBC   C00P87985   6.144   7.029  10.209
  125SBC   C00O87986   6.112   7.053  10.076
  125SBC   C00K87987   6.360   6.904   9.789
  125SBC   N00087988   6.071   6.912   9.608
  125SBC   C00L87989   6.407   6.819   9.694
  125SBC   H00487990   6.234   6.807   8.955
  125SBC   C02Q87991   6.416   6.702   9.225
  125SBC   C00E87992   6.507   6.677   9.491
  125SBC   C03087993   6.730   6.437   9.310
  125SBC   O00387994   6.829   6.351   9.330
  125SBC   C02S87995   6.672   6.578   9.641
  125SBC   C03887996   6.881   6.341   9.461
  125SBC   C03L87997   6.978   6.246   9.494
  125SBC   H00887998   7.014   6.185   9.412
  125SBC   C02V87999   6.826   6.476   9.806
  125SBC   C03K88000   7.027   6.222   9.623
  125SBC   C0BK88001   7.122   6.126   9.654
  125SBC   H00T88002   7.172   6.071   9.576
  125SBC   C03H88003   6.954   6.346   9.964
  125SBC   C0BL88004   7.163   6.087   9.780
  125SBC   C0GU88005   7.261   5.985   9.794
  125SBC   H01O88006   7.302   5.934   9.707
  125SBC   C0GT88007   7.298   5.931   9.910
  125SBC   H01P88008   7.376   5.855   9.906
  125SBC   C0GS88009   7.235   5.985  10.020
  125SBC   C0GV88010   7.258   5.940  10.157
  125SBC   C0GW88011   7.335   5.828  10.210
  125SBC   H01Q88012   7.386   5.764  10.139
  125SBC   C0GX88013   7.334   5.818  10.337
  125SBC   H01R88014   7.382   5.733  10.384
  125SBC   O00L88015   7.257   5.894  10.425
  125SBC   C0GQ88016   7.186   6.029  10.242
  125SBC   C03A88017   6.973   6.321  10.110
  125SBC   C05L88018   7.178   5.998  10.384
  125SBC   C04W88019   6.916   5.991  10.918
  125SBC   C05I88020   6.892   5.913  11.030
  125SBC   C05O88021   6.978   5.806  11.056
  125SBC   C05288022   6.779   5.927  11.115
  125SBC   C04V88023   6.823   6.097  10.892
  125SBC   C04U88024   6.717   6.122  10.983
  125SBC   N00988025   7.099   5.790  10.977
  125SBC   C0GP88026   6.955   5.715  11.164
  125SBC   C05W88027   6.839   5.730  11.244
  125SBC   C07D88028   6.670   5.559  11.508
  125SBC   C06J88029   6.517   5.793  11.490
  125SBC   C05P88030   6.760   5.840  11.221
  125SBC   C05R88031   6.459   5.994  11.375
  125SBC   C04Z88032   6.693   6.037  11.089
  125SBC   C04C88033   6.406   6.188  11.250
  125SBC   C04G88034   6.334   6.371  11.107
  125SBC   C04J88035   6.360   6.539  10.893
  125SBC   C04T88036   6.632   6.231  10.963
  125SBC   N00388037   6.832   6.177  10.775
  125SBC   C04P88038   6.931   6.216  10.558
  125SBC   C03D88039   6.922   6.362  10.331
  125SBC   C02188040   6.740   6.552  10.270
  125SBC   C03F88041   6.655   6.458  10.614
  125SBC   C02288042   6.558   6.687  10.339
  125SBC   C02A88043   6.467   6.590  10.685
  125SBC   C02388044   6.365   6.815  10.405
  125SBC   C02588045   6.166   6.863  10.597
  125SBC   C02D88046   6.056   6.878  10.679
  125SBC   C02E88047   5.946   6.962  10.647
  125SBC   C02N88048   5.830   6.971  10.721
  125SBC   C04N88049   6.367   6.612  10.773
  125SBC   C02P88050   6.044   6.797  10.792
  125SBC   C04I88051   6.248   6.551  10.968
  125SBC   C04488052   6.036   6.585  11.147
  125SBC   C04388053   5.937   6.812  10.879
  125SBC   C05N88054   5.831   6.898  10.846
  125SBC   C09U88055   5.512   6.938  11.116
  125SBC   C09V88056   5.403   6.938  11.209
  125SBC   C09X88057   5.279   7.002  11.185
  125SBC   C09Y88058   5.166   7.002  11.267
  125SBC   C0A188059   5.177   6.937  11.384
  125SBC   C0A288060   5.296   6.880  11.418
  125SBC   C0A488061   5.303   6.825  11.545
  125SBC   C07188062   5.419   6.753  11.584
  125SBC   C0A588063   5.424   6.688  11.706
  125SBC   C0A988064   5.315   6.699  11.791
  125SBC   C0A888065   5.203   6.769  11.755
  125SBC   C0AP88066   5.101   6.786  11.848
  125SBC   C0BY88067   4.985   6.842  11.801
  125SBC   C0BX88068   4.968   6.890  11.676
  125SBC   C0C288069   4.846   6.933  11.633
  125SBC   C0C388070   4.831   6.989  11.505
  125SBC   C0CT88071   4.944   6.997  11.424
  125SBC   C0C188072   4.734   6.913  11.717
  125SBC   C0C088073   4.751   6.888  11.863
  125SBC   C0A788074   5.076   6.884  11.591
  125SBC   C0BZ88075   4.882   6.849  11.895
  125SBC   C0BO88076   4.892   6.803  12.024
  125SBC   C0BN88077   5.005   6.733  12.062
  125SBC   C0BM88078   4.997   6.663  12.175
  125SBC   C0B988079   5.106   6.584  12.210
  125SBC   C0B888080   5.216   6.579  12.125
  125SBC   C0AD88081   5.216   6.648  12.004
  125SBC   C0AF88082   5.321   6.504  12.157
  125SBC   C0AG88083   5.324   6.428  12.279
  125SBC   C0B788084   5.210   6.430  12.359
  125SBC   C0AE88085   5.429   6.509  12.074
  125SBC   C0AB88086   5.432   6.571  11.956
  125SBC   C0AA88087   5.535   6.552  11.865
  125SBC   C0AJ88088   5.541   6.433  12.107
  125SBC   C0AK88089   5.645   6.416  12.020
  125SBC   C06W88090   5.728   6.334  12.081
  125SBC   C0AI88091   5.545   6.351  12.223
  125SBC   C0BP88092   4.763   6.796  12.081
  125SBC   C0BQ88093   4.763   6.730  12.215
  125SBC   C0BW88094   5.111   6.725  11.973
  125SBC   C0AC88095   5.322   6.642  11.919
  125SBC   C0A688096   5.198   6.827  11.635
  125SBC   C0A388097   5.061   6.934  11.465
  125SBC   C09Z88098   5.054   7.076  11.229
  125SBC   C09W88099   5.407   6.881  11.331
  125SBC   C07288100   5.521   6.813  11.371
  125SBC   C09H88101   5.280   7.073  11.069
  125SBC   C09G88102   5.181   7.156  11.046
  125SBC   C09P88103   5.205   7.217  10.926
  125SBC   C02O88104   5.509   7.156  10.709
  125SBC   C02M88105   5.722   7.052  10.680
  125SBC   C02F88106   5.956   7.031  10.529
  125SBC   C00W88107   6.065   7.067  10.316
  125SBC   C01R88108   5.988   7.103  10.035
  125SBC   C01N88109   5.754   7.219  10.297
  125SBC   C01L88110   5.510   7.237  10.259
  125SBC   C01H88111   5.318   7.201   9.973
  125SBC   C01K88112   5.689   7.159   9.947
  125SBC   C01E88113   5.622   7.077   9.692
  125SBC   C01G88114   5.275   7.153   9.839
  125SBC   C01D88115   5.583   7.035   9.566
  125SBC   C01A88116   5.508   6.949   9.313
  125SBC   H00188117   5.481   6.903   9.219
  125SBC   C01F88118   5.215   7.072   9.567
  125SBC   C03P88119   4.947   7.028   9.483
  125SBC   C03T88120   4.870   7.091   9.689
  125SBC   C08I88121   4.668   7.164   9.877
  125SBC   C08J88122   4.581   7.200   9.975
  125SBC   C08L88123   4.532   7.271  10.206
  125SBC   C09388124   4.476   7.318  10.443
  125SBC   C08Z88125   4.753   7.370  10.480
  125SBC   C09T88126   4.540   7.334  10.915
  125SBC   C09S88127   4.854   7.397  10.754
  125SBC   C09Q88128   5.098   7.292  10.868
  125SBC   C09F88129   5.060   7.160  11.119
  125SBC   C09E88130   4.725   7.266  11.050
  125SBC   C0A088131   4.937   7.067  11.304
  125SBC   C0CU88132   4.706   7.030  11.453
  125SBC   C0CR88133   4.593   6.990  11.531
  125SBC   C0CZ88134   4.469   7.021  11.472
  125SBC   C0DA88135   4.581   7.268  11.047
  125SBC   C0D988136   4.280   7.323  11.194
  125SBC   H00V88137   4.296   7.417  11.144
  125SBC   C0CY88138   4.452   7.092  11.348
  125SBC   C0DF88139   4.184   7.288  11.300
  125SBC   C0DE88140   4.109   7.343  11.408
  125SBC   C0GI88141   4.034   7.469  11.429
  125SBC   H01K88142   4.033   7.546  11.354
  125SBC   C0GJ88143   3.977   7.485  11.549
  125SBC   H01J88144   3.925   7.580  11.557
  125SBC   O00I88145   3.964   7.396  11.651
  125SBC   C0GH88146   4.034   7.275  11.640
  125SBC   C0GG88147   4.035   7.190  11.754
  125SBC   O00G88148   3.952   7.239  11.851
  125SBC   C0G888149   3.927   7.177  11.964
  125SBC   C0G988150   3.826   7.228  12.045
  125SBC   H01G88151   3.764   7.311  12.014
  125SBC   C0GA88152   3.789   7.152  12.153
  125SBC   H01H88153   3.703   7.184  12.210
  125SBC   C0GB88154   3.856   7.044  12.206
  125SBC   C0EP88155   3.979   7.014  12.135
  125SBC   C0E888156   4.079   6.936  12.207
  125SBC   C0CK88157   4.214   6.897  12.186
  125SBC   C0CL88158   4.240   6.849  12.059
  125SBC   C0E988159   4.178   6.903  11.935
  125SBC   C0GE88160   4.093   7.018  11.905
  125SBC   C0E788161   4.043   6.871  12.323
  125SBC   C0CJ88162   4.145   6.794  12.380
  125SBC   C0E688163   4.118   6.713  12.486
  125SBC   H00Y88164   4.185   6.640  12.529
  125SBC   C0EO88165   3.992   6.725  12.552
  125SBC   H01188166   3.984   6.661  12.638
  125SBC   C0G688167   3.895   6.810  12.501
  125SBC   C0G588168   3.765   6.831  12.560
  125SBC   H01F88169   3.726   6.780  12.647
  125SBC   C0GD88170   3.682   6.922  12.508
  125SBC   H01I88171   3.594   6.953  12.563
  125SBC   O00H88172   3.699   6.990  12.388
  125SBC   C0EQ88173   3.919   6.886  12.381
  125SBC   C0GC88174   3.823   6.971  12.328
  125SBC   C0G788175   4.005   7.066  12.008
  125SBC   C0DD88176   4.097   7.249  11.516
  125SBC   C0GF88177   4.093   7.070  11.772
  125SBC   C0CO88178   4.249   6.835  11.839
  125SBC   C0D088179   4.361   6.986  11.550
  125SBC   C0C488180   4.609   6.923  11.661
  125SBC   C0CN88181   4.353   6.754  11.889
  125SBC   C0CP88182   4.679   6.851  11.980
  125SBC   C0CM88183   4.346   6.761  12.034
  125SBC   C0CI88184   4.265   6.826  12.304
  125SBC   C0CD88185   4.567   6.655  12.642
  125SBC   C0BR88186   4.643   6.734  12.292
  125SBC   C0CS88187   4.881   6.668  12.254
  125SBC   C0B688188   5.101   6.505  12.325
  125SBC   C0CG88189   4.777   6.553  12.585
  125SBC   C0CF88190   4.679   6.581  12.679
  125SBC   C0E588191   4.482   6.622  12.865
  125SBC   C0DT88192   4.489   6.508  13.112
  125SBC   C0DL88193   4.818   6.404  12.973
  125SBC   C0DM88194   4.933   6.335  13.010
  125SBC   C0DY88195   4.836   6.284  13.219
  125SBC   C0DU88196   4.504   6.439  13.228
  125SBC   C0F088197   4.421   6.420  13.455
  125SBC   C0F488198   4.487   6.404  13.715
  125SBC   C0FG88199   4.742   6.190  13.564
  125SBC   O00B88200   4.661   6.330  13.876
  125SBC   C0FN88201   4.847   6.140  13.622
  125SBC   C0DZ88202   4.846   6.230  13.350
  125SBC   O00C88203   5.195   6.123  13.357
  125SBC   C0FR88204   5.305   6.111  13.275
  125SBC   O00D88205   5.411   6.065  13.330
  125SBC   C0E088206   4.944   6.280  13.135
  125SBC   C0E388207   5.285   6.135  13.136
  125SBC   C0AW88208   5.375   6.100  13.034
  125SBC   C0AV88209   5.477   5.999  13.047
  125SBC   H00Q88210   5.484   5.946  13.140
  125SBC   C0AU88211   5.557   5.953  12.933
  125SBC   H00R88212   5.632   5.877  12.952
  125SBC   C0AT88213   5.539   6.018  12.809
  125SBC   C0AS88214   5.578   6.004  12.670
  125SBC   C0AR88215   5.594   5.874  12.600
  125SBC   C0BE88216   5.445   6.120  12.807
  125SBC   C0DN88217   5.037   6.320  12.920
  125SBC   C0AX88218   5.354   6.154  12.911
  125SBC   C0BB88219   5.127   6.347  12.698
  125SBC   C0BD88220   5.439   6.175  12.679
  125SBC   C0B288221   5.221   6.378  12.482
  125SBC   C0AH88222   5.432   6.347  12.311
  125SBC   C0BF88223   5.527   6.114  12.588
  125SBC   C0AL88224   5.676   6.286  12.210
  125SBC   C07U88225   5.693   5.976  12.384
  125SBC   C0AQ88226   5.653   5.868  12.470
  125SBC   C0BG88227   5.564   5.737  12.643
  125SBC   C0FY88228   5.788   5.484  12.555
  125SBC   C0BJ88229   5.597   5.670  12.769
  125SBC   H00S88230   5.605   5.704  12.871
  125SBC   C0FZ88231   5.831   5.421  12.673
  125SBC   C07S88232   5.887   5.509  12.454
  125SBC   C0G188233   6.151   5.289  12.601
  125SBC   C07K88234   6.350   5.412  12.318
  125SBC   C07H88235   6.105   5.561  12.278
  125SBC   C06B88236   6.246   5.555  11.957
  125SBC   C06N88237   6.207   5.769  11.892
  125SBC   C06688238   5.971   5.773  12.203
  125SBC   C06288239   5.925   6.083  12.105
  125SBC   C05Y88240   6.154   6.008  11.798
  125SBC   C06188241   5.942   6.209  12.037
  125SBC   C05H88242   5.982   6.282  11.684
  125SBC   C06V88243   5.837   6.300  12.005
  125SBC   C06Y88244   5.643   6.475  11.893
  125SBC   C05C88245   5.844   6.489  11.582
  125SBC   C06Z88246   5.536   6.614  11.739
  125SBC   C07088247   5.527   6.742  11.494
  125SBC   C05B88248   5.837   6.553  11.458
  125SBC   C05788249   5.836   6.699  11.211
  125SBC   C05988250   5.625   6.802  11.277
  126SBC   C05888251   1.189   4.014   6.123
  126SBC   C05A88252   1.212   4.154   6.137
  126SBC   C06Q88253   1.166   4.219   6.251
  126SBC   C06R88254   1.181   4.356   6.267
  126SBC   C06S88255   1.246   4.436   6.172
  126SBC   C06T88256   1.261   4.572   6.201
  126SBC   C06U88257   1.324   4.672   6.117
  126SBC   C06X88258   1.379   4.681   5.984
  126SBC   C06088259   1.418   4.818   5.949
  126SBC   C05Z88260   1.413   4.898   5.827
  126SBC   C06888261   1.380   5.036   5.876
  126SBC   C06788262   1.379   5.162   5.802
  126SBC   C06988263   1.411   5.166   5.660
  126SBC   C06A88264   1.401   5.282   5.570
  126SBC   C07388265   1.316   5.397   5.573
  126SBC   C07P88266   1.246   5.434   5.456
  126SBC   C07O88267   1.214   5.340   5.358
  126SBC   H00D88268   1.234   5.235   5.368
  126SBC   C07N88269   1.178   5.379   5.227
  126SBC   H00E88270   1.155   5.311   5.146
  126SBC   C07M88271   1.161   5.515   5.207
  126SBC   H00F88272   1.147   5.559   5.109
  126SBC   C07L88273   1.184   5.610   5.306
  126SBC   C07Q88274   1.167   5.753   5.289
  126SBC   H00G88275   1.159   5.786   5.186
  126SBC   O00F88276   1.182   5.846   5.390
  126SBC   C07J88277   1.229   5.797   5.506
  126SBC   C07I88278   1.247   5.660   5.531
  126SBC   N00488279   1.292   5.617   5.659
  126SBC   C07R88280   1.319   5.711   5.758
  126SBC   C07T88281   1.289   5.847   5.732
  126SBC   C0FX88282   1.285   5.941   5.832
  126SBC   C0FW88283   1.237   6.070   5.824
  126SBC   C0G088284   1.205   6.112   5.693
  126SBC   C0G288285   1.157   6.240   5.667
  126SBC   H01E88286   1.136   6.280   5.569
  126SBC   C0G388287   1.141   6.323   5.781
  126SBC   H01C88288   1.108   6.425   5.771
  126SBC   C0G488289   1.164   6.279   5.910
  126SBC   H01D88290   1.152   6.352   5.989
  126SBC   O00E88291   1.218   6.024   5.588
  126SBC   C0FV88292   1.210   6.147   5.936
  126SBC   C0FU88293   1.230   6.089   6.068
  126SBC   H01B88294   1.186   6.128   6.158
  126SBC   C0FT88295   1.293   5.968   6.081
  126SBC   C0FS88296   1.316   5.867   6.179
  126SBC   C0BI88297   1.402   5.766   6.114
  126SBC   C0BH88298   1.416   5.655   6.207
  126SBC   C07F88299   1.388   5.521   6.164
  126SBC   C07E88300   1.388   5.469   6.031
  126SBC   C07G88301   1.383   5.534   5.907
  126SBC   C07488302   1.363   5.436   5.809
  126SBC   C06588303   1.352   5.336   6.002
  126SBC   C06488304   1.306   5.264   6.109
  126SBC   C06388305   1.294   5.126   6.125
  126SBC   C07588306   1.270   5.110   6.273
  126SBC   C0AM88307   1.239   5.230   6.342
  126SBC   C0AN88308   1.181   5.256   6.471
  126SBC   C0AO88309   1.129   5.165   6.577
  126SBC   C0B188310   1.076   5.213   6.702
  126SBC   C0B088311   1.048   5.341   6.718
  126SBC   C0AZ88312   0.975   5.398   6.825
  126SBC   C0AY88313   0.933   5.531   6.824
  126SBC   N00788314   0.856   5.581   6.930
  126SBC   C0E288315   0.796   5.708   6.916
  126SBC   C0E188316   0.731   5.757   7.026
  126SBC   C0E488317   0.673   5.883   7.009
  126SBC   C0FF88318   0.621   5.948   7.125
  126SBC   C0FJ88319   0.549   6.078   7.138
  126SBC   C0FK88320   0.457   6.139   7.039
  126SBC   H01688321   0.444   6.117   6.934
  126SBC   C0FL88322   0.364   6.215   7.125
  126SBC   H01788323   0.266   6.257   7.108
  126SBC   C0FM88324   0.402   6.196   7.261
  126SBC   C0FH88325   0.352   6.192   7.401
  126SBC   C0FI88326   0.446   6.109   7.465
  126SBC   C0F388327   0.409   6.029   7.580
  126SBC   C0F288328   0.479   5.912   7.585
  126SBC   C0DW88329   0.565   5.865   7.489
  126SBC   C0FE88330   0.589   5.934   7.374
  126SBC   C0DV88331   0.601   5.730   7.490
  126SBC   C0DX88332   0.664   5.678   7.380
  126SBC   C0DK88333   0.702   5.540   7.378
  126SBC   C0DJ88334   0.668   5.459   7.489
  126SBC   C0DI88335   0.704   5.326   7.490
  126SBC   C0DH88336   0.778   5.268   7.386
  126SBC   C0DG88337   0.809   5.348   7.276
  126SBC   C0BV88338   0.864   5.292   7.161
  126SBC   C0BC88339   0.888   5.367   7.051
  126SBC   C0BA88340   0.897   5.158   7.157
  126SBC   C0B488341   0.957   5.106   7.045
  126SBC   C0B388342   0.990   5.187   6.935
  126SBC   C0B588343   0.967   4.969   7.034
  126SBC   C0BU88344   0.923   4.887   7.139
  126SBC   C0BT88345   0.879   4.939   7.262
  126SBC   C0BS88346   0.858   4.854   7.371
  126SBC   C0CC88347   0.804   4.917   7.484
  126SBC   C0CB88348   0.784   4.841   7.601
  126SBC   C0CH88349   0.689   4.897   7.688
  126SBC   C0DO88350   0.647   5.033   7.691
  126SBC   C0DP88351   0.552   5.078   7.788
  126SBC   C0EA88352   0.502   4.986   7.894
  126SBC   H01288353   0.532   4.882   7.894
  126SBC   O00988354   0.409   5.028   7.983
  126SBC   C0EH88355   0.358   5.151   7.963
  126SBC   C0EG88356   0.249   5.185   8.048
  126SBC   C0EJ88357   0.166   5.118   8.138
  126SBC   H01088358   0.177   5.015   8.170
  126SBC   C0EK88359   0.068   5.209   8.188
  126SBC   H00Z88360  -0.004   5.193   8.268
  126SBC   C0EL88361   0.091   5.330   8.117
  126SBC   C0EM88362   0.017   5.454   8.114
  126SBC   C0EW88363  -0.104   5.500   8.188
  126SBC   H01388364  -0.158   5.434   8.254
  126SBC   C0EX88365  -0.161   5.636   8.176
  126SBC   H01488366  -0.237   5.668   8.245
  126SBC   C0F188367  -0.095   5.724   8.086
  126SBC   C0EU88368   0.021   5.685   8.019
  126SBC   C0ET88369   0.086   5.759   7.920
  126SBC   C0ES88370   0.195   5.674   7.882
  126SBC   C0EE88371   0.186   5.544   7.946
  126SBC   C0ED88372   0.255   5.416   7.954
  126SBC   C0EC88373   0.364   5.384   7.867
  126SBC   C0EB88374   0.435   5.475   7.778
  126SBC   C0EN88375   0.404   5.616   7.769
  126SBC   C0ER88376   0.488   5.695   7.694
  126SBC   C0DS88377   0.544   5.430   7.694
  126SBC   C0DR88378   0.568   5.295   7.690
  126SBC   C0EY88379   0.309   5.715   7.817
  126SBC   C0EZ88380   0.323   5.844   7.759
  126SBC   C0F588381   0.239   5.962   7.736
  126SBC   C0F688382   0.116   5.979   7.805
  126SBC   N00888383   0.050   6.109   7.773
  126SBC   C0F788384   0.092   6.192   7.663
  126SBC   C0FQ88385   0.014   6.301   7.631
  126SBC   H01888386   0.044   6.359   7.545
  126SBC   C0FP88387  -0.091   6.341   7.707
  126SBC   H01988388  -0.144   6.431   7.680
  126SBC   C0FO88389  -0.128   6.267   7.819
  126SBC   H01A88390  -0.206   6.304   7.883
  126SBC   C0F888391   0.205   6.151   7.586
  126SBC   C0F988392  -0.059   6.149   7.855
  126SBC   C0FA88393  -0.120   6.065   7.957
  126SBC   H01588394  -0.201   6.099   8.021
  126SBC   C0FB88395  -0.065   5.934   7.978
  126SBC   C0FD88396   0.045   5.899   7.898
  126SBC   C0FC88397  -0.149   5.852   8.059
  126SBC   O00A88398  -0.251   5.897   8.119
  126SBC   C0EV88399   0.074   5.554   8.031
  126SBC   C0EF88400   0.201   5.313   8.036
  126SBC   C0EI88401   0.413   5.252   7.873
  126SBC   C0DQ88402   0.507   5.210   7.781
  126SBC   C0CE88403   0.694   5.113   7.592
  126SBC   H00U88404   0.641   4.822   7.748
  126SBC   C0CA88405   0.838   4.709   7.609
  126SBC   C0C988406   0.896   4.641   7.492
  126SBC   C0C888407   0.955   4.514   7.496
  126SBC   C0C788408   0.971   4.405   7.399
  126SBC   C0C688409   1.033   4.288   7.447
  126SBC   C0C588410   1.034   4.143   7.416
  126SBC   C0CQ88411   1.058   4.057   7.525
  126SBC   C0D188412   1.041   4.101   7.654
  126SBC   C0D888413   0.972   4.009   7.730
  126SBC   C0D788414   0.994   3.884   7.660
  126SBC   C0D688415   0.934   3.756   7.695
  126SBC   C0D588416   0.957   3.641   7.620
  126SBC   C0D488417   1.020   3.617   7.499
  126SBC   C0D388418   0.980   3.488   7.454
  126SBC   C0CX88419   0.971   3.497   7.308
  126SBC   C0CW88420   0.974   3.638   7.270
  126SBC   C0CV88421   0.960   3.724   7.153
  126SBC   C0D288422   0.942   3.659   7.026
  126SBC   C09D88423   0.925   3.518   6.993
  126SBC   C09C88424   0.906   3.476   6.860
  126SBC   C09B88425   0.890   3.344   6.814
  126SBC   C09A88426   0.880   3.249   6.922
  126SBC   C09988427   0.883   3.280   7.047
  126SBC   C09888428   0.913   3.168   7.126
  126SBC   C08Y88429   0.939   3.060   7.035
  126SBC   C08X88430   1.012   2.933   7.048
  126SBC   C08W88431   1.069   2.893   7.176
  126SBC   C08U88432   1.080   2.982   7.297
  126SBC   C08V88433   1.059   3.126   7.322
  126SBC   C0DC88434   1.108   3.151   7.456
  126SBC   H00W88435   1.116   3.246   7.508
  126SBC   C0DB88436   1.154   3.032   7.513
  126SBC   H00X88437   1.209   3.017   7.605
  126SBC   C08T88438   1.142   2.929   7.413
  126SBC   C08S88439   1.182   2.798   7.422
  126SBC   H00N88440   1.220   2.752   7.512
  126SBC   C08R88441   1.176   2.707   7.312
  126SBC   C08Q88442   1.223   2.569   7.313
  126SBC   H00O88443   1.262   2.531   7.406
  126SBC   C08P88444   1.231   2.480   7.204
  126SBC   C08O88445   1.271   2.340   7.210
  126SBC   H00P88446   1.290   2.298   7.307
  126SBC   C08N88447   1.301   2.273   7.089
  126SBC   C08M88448   1.353   2.140   7.100
  126SBC   O00888449   1.359   2.070   7.205
  126SBC   O00788450   1.388   2.075   6.982
  126SBC   C08H88451   1.362   2.133   6.854
  126SBC   C08G88452   1.395   2.068   6.734
  126SBC   C03V88453   1.453   1.938   6.713
  126SBC   H00988454   1.469   1.876   6.800
  126SBC   C03U88455   1.495   1.888   6.588
  126SBC   C03W88456   1.556   1.757   6.565
  126SBC   H00A88457   1.562   1.690   6.649
  126SBC   C03X88458   1.591   1.725   6.438
  126SBC   H00B88459   1.617   1.622   6.423
  126SBC   O00588460   1.576   1.810   6.329
  126SBC   C03O88461   1.516   1.929   6.350
  126SBC   C03N88462   1.501   2.014   6.246
  126SBC   O00088463   1.574   1.981   6.129
  126SBC   C01988464   1.573   2.064   6.020
  126SBC   C01888465   1.500   2.187   6.028
  126SBC   C01788466   1.430   2.221   6.145
  126SBC   C01688467   1.349   2.337   6.142
  126SBC   C01588468   1.327   2.395   6.016
  126SBC   C01488469   1.237   2.503   6.010
  126SBC   C01388470   1.194   2.570   6.132
  126SBC   C01288471   1.139   2.696   6.087
  126SBC   C01188472   1.166   2.691   5.947
  126SBC   C01088473   1.133   2.796   5.867
  126SBC   C00Z88474   1.170   2.824   5.739
  126SBC   C00Y88475   1.145   2.959   5.718
  126SBC   C01O88476   1.110   3.014   5.838
  126SBC   C01P88477   1.113   3.148   5.862
  126SBC   C02L88478   1.088   3.181   5.992
  126SBC   C02K88479   1.066   3.079   6.089
  126SBC   C01M88480   1.086   2.935   6.068
  126SBC   C02J88481   1.035   3.126   6.217
  126SBC   C02I88482   1.005   3.052   6.330
  126SBC   C02H88483   1.023   2.921   6.365
  126SBC   C01Q88484   1.066   2.814   6.282
  126SBC   C02G88485   1.093   2.705   6.367
  126SBC   C08988486   1.030   2.735   6.493
  126SBC   C08888487   1.081   2.667   6.593
  126SBC   C08788488   1.147   2.555   6.519
  126SBC   C08688489   1.210   2.449   6.580
  126SBC   C03S88490   1.273   2.337   6.515
  126SBC   N00688491   1.307   2.255   6.617
  126SBC   C08F88492   1.281   2.314   6.737
  126SBC   C01J88493   1.310   2.299   6.379
  126SBC   C03R88494   1.382   2.177   6.370
  126SBC   C03Q88495   1.406   2.094   6.486
  126SBC   C08E88496   1.222   2.433   6.721
  126SBC   C08D88497   1.191   2.516   6.837
  126SBC   C08K88498   1.226   2.466   6.961
  126SBC   C08C88499   1.125   2.643   6.841
  126SBC   C09188500   1.114   2.723   6.956
  126SBC   C09288501   1.149   2.672   7.084
  126SBC   C08B88502   1.066   2.710   6.734
  126SBC   C09088503   1.000   2.823   6.799
  126SBC   C09488504   0.947   2.938   6.731
  126SBC   C09588505   0.904   3.065   6.777
  126SBC   C09R88506   0.905   3.155   6.669
  126SBC   C09788507   0.946   3.089   6.560
  126SBC   C09688508   0.964   2.959   6.597
  126SBC   C01I88509   1.152   2.576   6.370
  126SBC   C08A88510   1.009   2.873   6.493
  126SBC   C09L88511   0.976   3.139   6.432
  126SBC   C09K88512   0.985   3.271   6.379
  126SBC   C09J88513   0.934   3.386   6.438
  126SBC   C09I88514   0.978   3.518   6.401
  126SBC   C09O88515   1.042   3.581   6.291
  126SBC   C09N88516   1.077   3.511   6.170
  126SBC   C09M88517   1.061   3.369   6.140
  126SBC   C06O88518   1.116   3.601   6.068
  126SBC   C05M88519   1.146   3.740   6.086
  126SBC   C06P88520   1.117   3.799   6.206
  126SBC   C04288521   1.193   3.818   5.982
  126SBC   C04188522   1.211   3.763   5.851
  126SBC   C04088523   1.252   3.842   5.751
  126SBC   C03Z88524   1.262   3.792   5.617
  126SBC   C03Y88525   1.227   3.660   5.589
  126SBC   C02788526   1.250   3.609   5.459
  126SBC   C02688527   1.229   3.467   5.438
  126SBC   C02888528   1.259   3.411   5.314
  126SBC   C02988529   1.297   3.497   5.211
  126SBC   C02B88530   1.342   3.442   5.094
  126SBC   C02C88531   1.399   3.518   4.993
  126SBC   C02X88532   1.451   3.457   4.881
  126SBC   C03E88533   1.500   3.540   4.781
  126SBC   C03G88534   1.521   3.678   4.796
  126SBC   C04Q88535   1.470   3.735   4.910
  126SBC   C04R88536   1.497   3.867   4.940
  126SBC   C04S88537   1.458   3.926   5.059
  126SBC   C04L88538   1.397   3.845   5.156
  126SBC   C04M88539   1.371   3.711   5.127
  126SBC   C04K88540   1.376   3.900   5.283
  126SBC   C04F88541   1.401   4.036   5.307
  126SBC   C04E88542   1.447   4.118   5.206
  126SBC   C04D88543   1.475   4.247   5.236
  126SBC   C05088544   1.522   4.328   5.137
  126SBC   C05188545   1.527   4.468   5.155
  126SBC   C05Q88546   1.570   4.551   5.051
  126SBC   C05V88547   1.573   4.689   5.070
  126SBC   N00588548   1.589   4.773   4.957
  126SBC   C07V88549   1.606   4.713   4.834
  126SBC   C08288550   1.612   4.793   4.716
  126SBC   C08188551   1.598   4.934   4.715
  126SBC   C07C88552   1.591   4.993   4.841
  126SBC   C07B88553   1.581   5.131   4.856
  126SBC   C08088554   1.571   5.215   4.745
  126SBC   C07Z88555   1.569   5.353   4.766
  126SBC   H00L88556   1.581   5.408   4.673
  126SBC   C07988557   1.564   5.411   4.890
  126SBC   C07888558   1.575   5.327   4.999
  126SBC   C07788559   1.569   5.383   5.127
  126SBC   C07X88560   1.571   5.523   5.144
  126SBC   H00I88561   1.571   5.578   5.237
  126SBC   C07Y88562   1.549   5.610   5.037
  126SBC   H00H88563   1.538   5.716   5.057
  126SBC   C07688564   1.569   5.301   5.240
  126SBC   C06C88565   1.522   5.353   5.363
  126SBC   H00C88566   1.496   5.456   5.380
  126SBC   C06F88567   1.574   5.162   5.224
  126SBC   C06E88568   1.551   5.076   5.332
  126SBC   C06G88569   1.535   4.939   5.334
  126SBC   C06H88570   1.553   4.889   5.206
  126SBC   C06I88571   1.575   4.971   5.087
  126SBC   C06L88572   1.490   4.862   5.449
  126SBC   C06M88573   1.456   4.919   5.575
  126SBC   C06K88574   1.485   4.727   5.424
  126SBC   C05S88575   1.509   4.670   5.294
  126SBC   C05U88576   1.452   4.643   5.534
  126SBC   C05X88577   1.430   4.696   5.669
  126SBC   C05G88578   1.409   4.588   5.765
  126SBC   C05F88579   1.405   4.458   5.724
  126SBC   C05E88580   1.372   4.378   5.827
  126SBC   C04888581   1.333   4.241   5.810
  126SBC   C05688582   1.288   4.167   5.917
  126SBC   C04588583   1.266   4.034   5.896
  126SBC   C04788584   1.349   4.187   5.684
  126SBC   C04988585   1.386   4.271   5.579
  126SBC   C04B88586   1.401   4.221   5.457
  126SBC   C04688587   1.328   4.053   5.665
  126SBC   C04H88588   1.337   4.004   5.539
  126SBC   C05D88589   1.346   4.441   5.946
  126SBC   C04A88590   1.413   4.407   5.596
  126SBC   C05T88591   1.446   4.505   5.503
  126SBC   C05588592   1.464   4.444   5.382
  126SBC   C06D88593   1.506   5.129   5.450
  126SBC   C07W88594   1.581   5.107   5.096
  126SBC   C08588595   1.546   5.550   4.911
  126SBC   H00M88596   1.534   5.615   4.825
  126SBC   C08488597   1.571   5.153   4.617
  126SBC   H00J88598   1.560   5.218   4.532
  126SBC   C07A88599   1.585   5.190   4.982
  126SBC   C08388600   1.584   5.019   4.605
  126SBC   H00K88601   1.583   4.969   4.510
  126SBC   O00K88602   1.627   4.735   4.595
  126SBC   C0GO88603   1.656   4.604   4.586
  126SBC   C0GN88604   1.699   4.542   4.468
  126SBC   H01L88605   1.701   4.606   4.381
  126SBC   C0GM88606   1.739   4.407   4.457
  126SBC   C0GL88607   1.795   4.363   4.349
  126SBC   H01M88608   1.805   4.433   4.267
  126SBC   O00J88609   1.848   4.238   4.340
  126SBC   C0GK88610   1.831   4.155   4.451
  126SBC   H01N88611   1.875   4.057   4.451
  126SBC   C05K88612   1.756   4.190   4.556
  126SBC   C05J88613   1.709   4.099   4.659
  126SBC   C04Y88614   1.704   3.956   4.646
  126SBC   C04X88615   1.628   3.877   4.731
  126SBC   O00688616   1.764   3.895   4.539
  126SBC   C05388617   1.774   3.762   4.529
  126SBC   C04O88618   1.683   3.679   4.602
  126SBC   C03C88619   1.661   3.538   4.589
  126SBC   C03B88620   1.731   3.435   4.519
  126SBC   C05488621   1.853   3.451   4.449
  126SBC   C0GR88622   1.924   3.343   4.402
  126SBC   C03M88623   1.929   3.194   4.412
  126SBC   C03I88624   1.843   3.118   4.497
  126SBC   C03J88625   1.866   2.981   4.506
  126SBC   N00288626   1.814   2.898   4.611
  126SBC   C02U88627   1.861   2.766   4.633
  126SBC   C02T88628   1.804   2.688   4.744
  126SBC   C02Z88629   1.853   2.557   4.766
  126SBC   N00188630   1.814   2.483   4.878
  126SBC   C02R88631   1.872   2.355   4.905
  126SBC   C03288632   1.974   2.307   4.822
  126SBC   C03188633   2.006   2.384   4.706
  126SBC   H00788634   2.092   2.351   4.649
  126SBC   C03388635   2.035   2.186   4.870
  126SBC   H00388636   2.112   2.146   4.805
  126SBC   O00488637   1.992   2.110   4.967
  126SBC   C03488638   1.893   2.160   5.045
  126SBC   C03588639   1.855   2.084   5.163
  126SBC   C03688640   1.740   2.123   5.237
  126SBC   H00588641   1.687   2.069   5.314
  126SBC   C03788642   1.667   2.235   5.189
  126SBC   H00688643   1.567   2.249   5.227
  126SBC   C00D88644   1.713   2.323   5.090
  126SBC   C00C88645   1.665   2.451   5.071
  126SBC   C00B88646   1.571   2.518   5.167
  126SBC   C00A88647   1.492   2.486   5.289
  126SBC   C00988648   1.404   2.595   5.296
  126SBC   C00888649   1.342   2.649   5.415
  126SBC   C00788650   1.353   2.574   5.531
  126SBC   C00688651   1.285   2.622   5.643
  126SBC   C00588652   1.294   2.541   5.765
  126SBC   C00488653   1.380   2.429   5.772
  126SBC   C00388654   1.463   2.399   5.661
  126SBC   C00288655   1.557   2.300   5.675
  126SBC   C01C88656   1.567   2.230   5.795
  126SBC   C01B88657   1.647   2.116   5.799
  126SBC   H00088658   1.706   2.084   5.714
  126SBC   C00188659   1.657   2.303   5.579
  126SBC   C00088660   1.641   2.374   5.457
  126SBC   C01U88661   1.769   2.389   5.408
  126SBC   H00288662   1.813   2.449   5.331
  126SBC   C01T88663   1.864   2.344   5.519
  126SBC   O00288664   1.985   2.352   5.528
  126SBC   O00188665   1.789   2.283   5.616
  126SBC   C01S88666   1.444   2.466   5.539
  126SBC   C00N88667   1.295   2.781   5.403
  126SBC   C00M88668   1.317   2.862   5.285
  126SBC   C00J88669   1.375   2.814   5.172
  126SBC   C00I88670   1.419   2.891   5.071
  126SBC   C00H88671   1.502   2.837   4.973
  126SBC   C00G88672   1.554   2.708   4.996
  126SBC   C00F88673   1.664   2.659   4.927
  126SBC   C01X88674   1.559   2.921   4.874
  126SBC   C01W88675   1.516   3.050   4.867
  126SBC   C01V88676   1.429   3.101   4.965
  126SBC   C02088677   1.407   3.240   4.971
  126SBC   C01Z88678   1.573   3.131   4.767
  126SBC   C02Y88679   1.534   3.260   4.770
  126SBC   C03988680   1.593   3.341   4.671
  126SBC   C02W88681   1.673   3.084   4.674
  126SBC   C01Y88682   1.658   2.865   4.793
  126SBC   C00U88683   1.384   3.024   5.070
  126SBC   C00S88684   1.323   3.081   5.176
  126SBC   C00T88685   1.302   3.219   5.184
  126SBC   C00R88686   1.298   2.999   5.289
  126SBC   C00Q88687   1.251   3.056   5.404
  126SBC   C00V88688   1.238   3.195   5.414
  126SBC   C02488689   1.192   3.257   5.531
  126SBC   C00X88690   1.165   3.177   5.636
  126SBC   C00P88691   1.225   2.974   5.515
  126SBC   C00O88692   1.248   2.834   5.519
  126SBC   C00K88693   1.411   2.681   5.182
  126SBC   N00088694   1.526   2.444   5.425
  126SBC   C00L88695   1.509   2.627   5.101
  126SBC   H00488696   1.905   1.992   5.186
  126SBC   C02Q88697   1.825   2.281   5.014
  126SBC   C00E88698   1.710   2.529   4.961
  126SBC   C03088699   1.945   2.502   4.672
  126SBC   O00388700   1.980   2.565   4.559
  126SBC   C02S88701   1.706   2.735   4.817
  126SBC   C03888702   1.951   2.700   4.545
  126SBC   C03L88703   1.983   2.781   4.442
  126SBC   H00888704   2.036   2.720   4.370
  126SBC   C02V88705   1.710   2.949   4.696
  126SBC   C03K88706   1.955   2.919   4.425
  126SBC   C0BK88707   2.013   2.994   4.325
  126SBC   H00T88708   2.079   2.947   4.254
  126SBC   C03H88709   1.742   3.169   4.584
  126SBC   C0BL88710   2.016   3.135   4.321
  126SBC   C0GU88711   2.090   3.206   4.218
  126SBC   H01O88712   2.143   3.155   4.139
  126SBC   C0GT88713   2.095   3.344   4.226
  126SBC   H01P88714   2.141   3.395   4.143
  126SBC   C0GS88715   2.023   3.403   4.315
  126SBC   C0GV88716   2.018   3.543   4.326
  126SBC   C0GW88717   2.106   3.643   4.272
  126SBC   H01Q88718   2.188   3.614   4.208
  126SBC   C0GX88719   2.058   3.770   4.285
  126SBC   H01R88720   2.098   3.856   4.233
  126SBC   O00L88721   1.943   3.809   4.362
  126SBC   C0GQ88722   1.906   3.576   4.404
  126SBC   C03A88723   1.698   3.306   4.578
  126SBC   C05L88724   1.866   3.713   4.424
  126SBC   C04W88725   1.654   4.158   4.775
  126SBC   C05I88726   1.643   4.294   4.795
  126SBC   C05O88727   1.670   4.378   4.690
  126SBC   C05288728   1.601   4.354   4.913
  126SBC   C04V88729   1.588   4.079   4.870
  126SBC   C04U88730   1.546   4.132   4.989
  126SBC   N00988731   1.712   4.323   4.566
  126SBC   C0GP88732   1.650   4.515   4.694
  126SBC   C05W88733   1.619   4.573   4.820
  126SBC   C07D88734   1.584   4.913   4.959
  126SBC   C06J88735   1.550   4.751   5.194
  126SBC   C05P88736   1.596   4.492   4.928
  126SBC   C05R88737   1.507   4.527   5.279
  126SBC   C04Z88738   1.562   4.271   5.016
  126SBC   C04C88739   1.440   4.302   5.357
  126SBC   C04G88740   1.381   4.084   5.434
  126SBC   C04J88741   1.334   3.819   5.390
  126SBC   C04T88742   1.481   4.059   5.081
  126SBC   N00388743   1.574   3.937   4.848
  126SBC   C04P88744   1.608   3.743   4.708
  126SBC   C03D88745   1.574   3.482   4.678
  126SBC   C02188746   1.462   3.316   4.869
  126SBC   C03F88747   1.404   3.656   5.005
  126SBC   C02288748   1.342   3.299   5.078
  126SBC   C02A88749   1.322   3.631   5.233
  126SBC   C02388750   1.257   3.273   5.301
  126SBC   C02588751   1.194   3.392   5.549
  126SBC   C02D88752   1.183   3.448   5.676
  126SBC   C02E88753   1.152   3.367   5.783
  126SBC   C02N88754   1.122   3.411   5.913
  126SBC   C04N88755   1.309   3.685   5.361
  126SBC   C02P88756   1.197   3.581   5.698
  126SBC   C04I88757   1.315   3.870   5.518
  126SBC   C04488758   1.284   3.979   5.772
  126SBC   C04388759   1.185   3.630   5.831
  126SBC   C05N88760   1.139   3.549   5.940
  126SBC   C09U88761   1.065   3.723   6.312
  126SBC   C09V88762   1.039   3.790   6.433
  126SBC   C09X88763   0.993   3.723   6.541
  126SBC   C09Y88764   0.984   3.774   6.671
  126SBC   C0A188765   0.987   3.910   6.682
  126SBC   C0A288766   1.021   3.981   6.566
  126SBC   C0A488767   1.029   4.118   6.580
  126SBC   C07188768   1.074   4.201   6.474
  126SBC   C0A588769   1.076   4.335   6.488
  126SBC   C0A988770   1.022   4.394   6.599
  126SBC   C0A888771   0.976   4.314   6.706
  126SBC   C0AP88772   0.947   4.372   6.830
  126SBC   C0BY88773   0.934   4.295   6.945
  126SBC   C0BX88774   0.951   4.159   6.941
  126SBC   C0C288775   0.954   4.085   7.056
  126SBC   C0C388776   0.965   3.948   7.049
  126SBC   C0CT88777   0.958   3.886   6.925
  126SBC   C0C188778   0.957   4.150   7.182
  126SBC   C0C088779   0.915   4.289   7.188
  126SBC   C0A788780   0.966   4.100   6.814
  126SBC   C0BZ88781   0.906   4.353   7.064
  126SBC   C0BO88782   0.899   4.490   7.077
  126SBC   C0BN88783   0.937   4.567   6.967
  126SBC   C0BM88784   0.951   4.700   6.995
  126SBC   C0B988785   0.991   4.782   6.888
  126SBC   C0B888786   1.008   4.726   6.762
  126SBC   C0AD88787   0.993   4.590   6.745
  126SBC   C0AF88788   1.059   4.809   6.662
  126SBC   C0AG88789   1.076   4.948   6.679
  126SBC   C0B788790   1.043   4.998   6.804
  126SBC   C0AE88791   1.111   4.742   6.549
  126SBC   C0AB88792   1.099   4.605   6.528
  126SBC   C0AA88793   1.146   4.545   6.409
  126SBC   C0AJ88794   1.168   4.817   6.456
  126SBC   C0AK88795   1.215   4.760   6.343
  126SBC   C06W88796   1.274   4.856   6.272
  126SBC   C0AI88797   1.178   4.958   6.455
  126SBC   C0BP88798   0.902   4.523   7.212
  126SBC   C0BQ88799   0.914   4.665   7.236
  126SBC   C0BW88800   0.954   4.507   6.845
  126SBC   C0AC88801   1.031   4.530   6.622
  126SBC   C0A688802   0.985   4.177   6.696
  126SBC   C0A388803   0.970   3.966   6.807
  126SBC   C09Z88804   0.956   3.699   6.785
  126SBC   C09W88805   1.060   3.923   6.445
  126SBC   C07288806   1.099   4.002   6.341
  126SBC   C09H88807   0.974   3.592   6.523
  126SBC   C09G88808   0.925   3.522   6.626
  126SBC   C09P88809   0.906   3.393   6.582
  126SBC   C02O88810   1.024   3.265   6.242
  126SBC   C02M88811   1.091   3.320   6.016
  126SBC   C02F88812   1.142   3.230   5.761
  126SBC   C00W88813   1.185   3.041   5.622
  126SBC   C01R88814   1.236   2.753   5.631
  126SBC   C01N88815   1.101   2.915   5.935
  126SBC   C01L88816   1.098   2.818   6.151
  126SBC   C01H88817   1.214   2.510   6.262
  126SBC   C01K88818   1.229   2.579   5.893
  126SBC   C01E88819   1.393   2.360   5.895
  126SBC   C01G88820   1.289   2.380   6.266
  126SBC   C01D88821   1.489   2.263   5.910
  126SBC   C01A88822   1.644   2.029   5.911
  126SBC   H00188823   1.699   1.936   5.910
  126SBC   C01F88824   1.436   2.134   6.256
  126SBC   C03P88825   1.470   1.970   6.476
  126SBC   C03T88826   1.375   2.136   6.614
  126SBC   C08I88827   1.308   2.260   6.857
  126SBC   C08J88828   1.283   2.334   6.970
  126SBC   C08L88829   1.204   2.541   7.083
  126SBC   C09388830   1.125   2.757   7.193
  126SBC   C08Z88831   1.035   2.834   6.941
  126SBC   C09T88832   0.987   3.222   7.234
  126SBC   C09S88833   0.892   3.112   6.911
  126SBC   C09Q88834   0.894   3.298   6.681
  126SBC   C09F88835   0.929   3.570   6.761
  126SBC   C09E88836   0.928   3.406   7.087
  126SBC   C0A088837   0.949   3.746   6.917
  126SBC   C0CU88838   0.972   3.868   7.167
  126SBC   C0CR88839   0.988   3.937   7.294
  126SBC   C0CZ88840   1.000   3.853   7.404
  126SBC   C0DA88841   0.980   3.377   7.215
  126SBC   C0D988842   0.869   3.441   7.546
  126SBC   H00V88843   0.789   3.372   7.526
  126SBC   C0CY88844   1.002   3.711   7.389
  126SBC   C0DF88845   0.858   3.541   7.651
  126SBC   C0DE88846   0.779   3.597   7.760
  126SBC   C0GI88847   0.665   3.551   7.830
  126SBC   H01K88848   0.625   3.452   7.814
  126SBC   C0GJ88849   0.612   3.634   7.919
  126SBC   H01J88850   0.528   3.606   7.981
  126SBC   O00I88851   0.660   3.761   7.944
  126SBC   C0GH88852   0.759   3.818   7.872
  126SBC   C0GG88853   0.786   3.958   7.902
  126SBC   O00G88854   0.709   4.011   8.000
  126SBC   C0G888855   0.720   4.137   8.037
  126SBC   C0G988856   0.652   4.167   8.151
  126SBC   H01G88857   0.596   4.091   8.202
  126SBC   C0GA88858   0.657   4.292   8.204
  126SBC   H01H88859   0.613   4.316   8.300
  126SBC   C0GB88860   0.711   4.405   8.135
  126SBC   C0EP88861   0.766   4.373   8.005
  126SBC   C0E888862   0.777   4.487   7.916
  126SBC   C0CK88863   0.814   4.509   7.776
  126SBC   C0CL88864   0.899   4.413   7.711
  126SBC   C0E988865   0.923   4.278   7.752
  126SBC   C0GE88866   0.855   4.189   7.850
  126SBC   C0E788867   0.783   4.618   7.969
  126SBC   C0CJ88868   0.822   4.716   7.873
  126SBC   C0E688869   0.847   4.846   7.923
  126SBC   H00Y88870   0.889   4.915   7.851
  126SBC   C0EO88871   0.842   4.866   8.066
  126SBC   H01188872   0.866   4.966   8.099
  126SBC   C0G688873   0.799   4.761   8.162
  126SBC   C0G588874   0.786   4.774   8.311
  126SBC   H01F88875   0.810   4.870   8.355
  126SBC   C0GD88876   0.737   4.674   8.386
  126SBC   H01I88877   0.732   4.689   8.492
  126SBC   O00H88878   0.701   4.551   8.330
  126SBC   C0EQ88879   0.760   4.634   8.108
  126SBC   C0GC88880   0.726   4.530   8.197
  126SBC   C0G788881   0.783   4.238   7.961
  126SBC   C0DD88882   0.825   3.737   7.780
  126SBC   C0GF88883   0.872   4.045   7.830
  126SBC   C0CO88884   1.028   4.235   7.670
  126SBC   C0D088885   1.009   3.923   7.523
  126SBC   C0C488886   0.989   4.081   7.298
  126SBC   C0CN88887   1.075   4.333   7.578
  126SBC   C0CP88888   0.904   4.401   7.281
  126SBC   C0CM88889   1.001   4.450   7.615
  126SBC   C0CI88890   0.824   4.649   7.743
  126SBC   C0CD88891   0.762   5.056   7.482
  126SBC   C0BR88892   0.893   4.716   7.368
  126SBC   C0CS88893   0.927   4.749   7.121
  126SBC   C0B688894   1.006   4.917   6.907
  126SBC   C0CG88895   0.866   5.077   7.270
  126SBC   C0CF88896   0.811   5.134   7.384
  126SBC   C0E588897   0.656   5.246   7.592
  126SBC   C0DT88898   0.597   5.513   7.598
  126SBC   C0DL88899   0.765   5.481   7.277
  126SBC   C0DM88900   0.781   5.562   7.158
  126SBC   C0DY88901   0.676   5.754   7.263
  126SBC   C0DU88902   0.570   5.643   7.595
  126SBC   C0F088903   0.436   5.825   7.683
  126SBC   C0F488904   0.291   6.053   7.646
  126SBC   C0FG88905   0.541   6.068   7.369
  126SBC   O00B88906   0.229   6.208   7.464
  126SBC   C0FN88907   0.519   6.136   7.256
  126SBC   C0DZ88908   0.638   5.886   7.253
  126SBC   O00C88909   0.683   5.954   6.894
  126SBC   C0FR88910   0.752   5.914   6.786
  126SBC   O00D88911   0.752   5.995   6.694
  126SBC   C0E088912   0.728   5.692   7.148
  126SBC   C0E388913   0.819   5.793   6.803
  126SBC   C0AW88914   0.901   5.748   6.700
  126SBC   C0AV88915   0.948   5.821   6.588
  126SBC   H00Q88916   0.926   5.925   6.570
  126SBC   C0AU88917   1.029   5.754   6.488
  126SBC   H00R88918   1.051   5.810   6.398
  126SBC   C0AT88919   1.071   5.625   6.509
  126SBC   C0AS88920   1.155   5.525   6.435
  126SBC   C0AR88921   1.269   5.558   6.358
  126SBC   C0BE88922   1.028   5.557   6.620
  126SBC   C0DN88923   0.837   5.502   7.044
  126SBC   C0AX88924   0.947   5.618   6.721
  126SBC   C0BB88925   0.953   5.317   6.937
  126SBC   C0BD88926   1.077   5.427   6.616
  126SBC   C0B288927   1.043   5.136   6.818
  126SBC   C0AH88928   1.127   5.026   6.572
  126SBC   C0BF88929   1.142   5.393   6.500
  126SBC   C0AL88930   1.249   4.984   6.334
  126SBC   C07U88931   1.278   5.325   6.239
  126SBC   C0AQ88932   1.312   5.460   6.259
  126SBC   C0BG88933   1.325   5.688   6.313
  126SBC   C0FY88934   1.379   5.774   5.973
  126SBC   C0BJ88935   1.280   5.825   6.312
  126SBC   H00S88936   1.226   5.883   6.385
  126SBC   C0FZ88937   1.326   5.897   5.961
  126SBC   C07S88938   1.379   5.675   5.880
  126SBC   C0G188939   1.245   5.891   5.607
  126SBC   C07K88940   1.222   5.566   5.432
  126SBC   C07H88941   1.326   5.478   5.680
  126SBC   C06B88942   1.489   5.264   5.460
  126SBC   C06N88943   1.451   5.065   5.565
  126SBC   C06688944   1.367   5.302   5.864
  126SBC   C06288945   1.351   5.027   6.025
  126SBC   C05Y88946   1.430   4.841   5.688
  126SBC   C06188947   1.392   4.897   6.062
  126SBC   C05H88948   1.380   4.572   5.903
  126SBC   C06V88949   1.334   4.810   6.153
  126SBC   C06Y88950   1.212   4.624   6.319
  126SBC   C05C88951   1.288   4.368   6.059
  126SBC   C06Z88952   1.132   4.411   6.391
  126SBC   C07088953   1.113   4.139   6.357
  126SBC   C05B88954   1.265   4.229   6.035
  126SBC   C05788955   1.220   3.954   6.004
  126SBC   C05988956   1.134   3.937   6.225
  127SBC   C05888957   6.380   1.601   9.896
  127SBC   C05A88958   6.507   1.637   9.850
  127SBC   C06Q88959   6.559   1.765   9.871
  127SBC   C06R88960   6.685   1.798   9.825
  127SBC   C06S88961   6.762   1.711   9.747
  127SBC   C06T88962   6.896   1.751   9.715
  127SBC   C06U88963   6.996   1.686   9.623
  127SBC   C06X88964   6.991   1.571   9.543
  127SBC   C06088965   7.115   1.548   9.469
  127SBC   C05Z88966   7.124   1.511   9.328
  127SBC   C06888967   7.210   1.617   9.268
  127SBC   C06788968   7.263   1.627   9.128
  127SBC   C06988969   7.230   1.531   9.025
  127SBC   C06A88970   7.257   1.536   8.880
  127SBC   C07388971   7.277   1.643   8.794
  127SBC   C07P88972   7.207   1.639   8.670
  127SBC   C07O88973   7.113   1.542   8.625
  127SBC   H00D88974   7.087   1.459   8.689
  127SBC   C07N88975   7.049   1.549   8.499
  127SBC   H00E88976   6.974   1.474   8.479
  127SBC   C07M88977   7.084   1.654   8.417
  127SBC   H00F88978   7.047   1.657   8.315
  127SBC   C07L88979   7.170   1.754   8.452
  127SBC   C07Q88980   7.201   1.870   8.373
  127SBC   H00G88981   7.164   1.875   8.272
  127SBC   O00F88982   7.291   1.971   8.409
  127SBC   C07J88983   7.357   1.949   8.529
  127SBC   C07I88984   7.325   1.842   8.611
  127SBC   N00488985   7.407   1.823   8.730
  127SBC   C07R88986   7.522   1.902   8.750
  127SBC   C07T88987   7.552   2.000   8.655
  127SBC   C0FX88988   7.653   2.087   8.664
  127SBC   C0FW88989   7.662   2.210   8.602
  127SBC   C0G088990   7.579   2.228   8.490
  127SBC   C0G288991   7.584   2.344   8.407
  127SBC   H01E88992   7.511   2.357   8.328
  127SBC   C0G388993   7.667   2.449   8.440
  127SBC   H01C88994   7.674   2.545   8.391
  127SBC   C0G488995   7.753   2.424   8.556
  127SBC   H01D88996   7.827   2.501   8.571
  127SBC   O00E88997   7.480   2.135   8.468
  127SBC   C0FV88998   7.751   2.311   8.641
  127SBC   C0FU88999   7.820   2.301   8.767
  127SBC   H01B89000   7.875   2.384   8.809
  127SBC   C0FT89001   7.809   2.176   8.829
  127SBC   C0FS89002   7.833   2.141   8.964
  127SBC   C0BI89003   7.802   2.001   8.979
  127SBC   C0BH89004   7.783   1.974   9.118
  127SBC   C07F89005   7.658   1.930   9.163
  127SBC   C07E89006   7.568   1.836   9.106
  127SBC   C07G89007   7.552   1.808   8.971
  127SBC   C07489008   7.429   1.752   8.961
  127SBC   C06589009   7.453   1.800   9.171
  127SBC   C06489010   7.424   1.867   9.291
  127SBC   C06389011   7.311   1.847   9.365
  127SBC   C07589012   7.314   1.961   9.462
  127SBC   C0AM89013   7.421   2.055   9.428
  127SBC   C0AN89014   7.445   2.186   9.485
  127SBC   C0AO89015   7.347   2.276   9.552
  127SBC   C0B189016   7.364   2.417   9.558
  127SBC   C0B089017   7.479   2.476   9.502
  127SBC   C0AZ89018   7.506   2.611   9.497
  127SBC   C0AY89019   7.627   2.655   9.446
  127SBC   N00789020   7.655   2.790   9.434
  127SBC   C0E289021   7.775   2.837   9.371
  127SBC   C0E189022   7.799   2.974   9.363
  127SBC   C0E489023   7.914   3.024   9.300
  127SBC   C0FF89024   7.928   3.161   9.291
  127SBC   C0FJ89025   8.023   3.245   9.207
  127SBC   C0FK89026   8.093   3.214   9.081
  127SBC   H01689027   8.089   3.114   9.039
  127SBC   C0FL89028   8.138   3.344   9.028
  127SBC   H01789029   8.176   3.358   8.928
  127SBC   C0FM89030   8.101   3.440   9.125
  127SBC   C0FH89031   8.062   3.579   9.147
  127SBC   C0FI89032   7.989   3.573   9.268
  127SBC   C0F389033   7.880   3.662   9.287
  127SBC   C0F289034   7.778   3.615   9.367
  127SBC   C0DW89035   7.763   3.479   9.404
  127SBC   C0FE89036   7.858   3.388   9.372
  127SBC   C0DV89037   7.641   3.432   9.436
  127SBC   C0DX89038   7.621   3.290   9.438
  127SBC   C0DK89039   7.495   3.244   9.473
  127SBC   C0DJ89040   7.391   3.335   9.494
  127SBC   C0DI89041   7.265   3.287   9.539
  127SBC   C0DH89042   7.249   3.153   9.567
  127SBC   C0DG89043   7.352   3.061   9.542
  127SBC   C0BV89044   7.335   2.928   9.556
  127SBC   C0BC89045   7.435   2.835   9.523
  127SBC   C0BA89046   7.217   2.878   9.613
  127SBC   C0B489047   7.200   2.741   9.635
  127SBC   C0B389048   7.300   2.652   9.597
  127SBC   C0B589049   7.084   2.700   9.699
  127SBC   C0BU89050   6.986   2.790   9.742
  127SBC   C0BT89051   7.003   2.929   9.710
  127SBC   C0BS89052   6.904   3.022   9.749
  127SBC   C0CC89053   6.911   3.156   9.706
  127SBC   C0CB89054   6.810   3.250   9.731
  127SBC   C0CH89055   6.807   3.363   9.646
  127SBC   C0DO89056   6.930   3.408   9.596
  127SBC   C0DP89057   6.940   3.541   9.550
  127SBC   C0EA89058   6.830   3.634   9.552
  127SBC   H01289059   6.733   3.603   9.589
  127SBC   O00989060   6.837   3.765   9.507
  127SBC   C0EH89061   6.956   3.803   9.463
  127SBC   C0EG89062   6.959   3.934   9.420
  127SBC   C0EJ89063   6.865   4.040   9.415
  127SBC   H01089064   6.762   4.037   9.449
  127SBC   C0EK89065   6.921   4.153   9.341
  127SBC   H00Z89066   6.875   4.245   9.307
  127SBC   C0EL89067   7.052   4.110   9.311
  127SBC   C0EM89068   7.160   4.172   9.238
  127SBC   C0EW89069   7.162   4.295   9.169
  127SBC   H01389070   7.071   4.353   9.175
  127SBC   C0EX89071   7.283   4.342   9.100
  127SBC   H01489072   7.290   4.440   9.055
  127SBC   C0F189073   7.399   4.255   9.097
  127SBC   C0EU89074   7.395   4.129   9.160
  127SBC   C0ET89075   7.497   4.032   9.166
  127SBC   C0ES89076   7.429   3.923   9.227
  127SBC   C0EE89077   7.299   3.955   9.265
  127SBC   C0ED89078   7.190   3.903   9.341
  127SBC   C0EC89079   7.191   3.775   9.405
  127SBC   C0EB89080   7.304   3.693   9.430
  127SBC   C0EN89081   7.442   3.737   9.395
  127SBC   C0ER89082   7.548   3.650   9.434
  127SBC   C0DS89083   7.296   3.560   9.472
  127SBC   C0DR89084   7.172   3.507   9.504
  127SBC   C0EY89085   7.504   3.836   9.306
  127SBC   C0EZ89086   7.640   3.808   9.286
  127SBC   C0F589087   7.741   3.847   9.193
  127SBC   C0F689088   7.733   3.964   9.109
  127SBC   N00889089   7.848   3.989   9.027
  127SBC   C0F789090   7.955   3.896   9.014
  127SBC   C0FQ89091   8.055   3.923   8.918
  127SBC   H01889092   8.138   3.853   8.923
  127SBC   C0FP89093   8.061   4.034   8.837
  127SBC   H01989094   8.143   4.048   8.767
  127SBC   C0FO89095   7.954   4.125   8.856
  127SBC   H01A89096   7.964   4.216   8.798
  127SBC   C0F889097   7.949   3.783   9.093
  127SBC   C0F989098   7.846   4.107   8.944
  127SBC   C0FA89099   7.747   4.206   8.954
  127SBC   H01589100   7.761   4.299   8.900
  127SBC   C0FB89101   7.633   4.184   9.038
  127SBC   C0FD89102   7.625   4.062   9.108
  127SBC   C0FC89103   7.525   4.288   9.037
  127SBC   O00A89104   7.541   4.402   8.984
  127SBC   C0EV89105   7.276   4.086   9.220
  127SBC   C0EF89106   7.072   3.981   9.363
  127SBC   C0EI89107   7.072   3.724   9.458
  127SBC   C0DQ89108   7.059   3.593   9.506
  127SBC   C0CE89109   7.039   3.324   9.588
  127SBC   H00U89110   6.716   3.420   9.650
  127SBC   C0CA89111   6.716   3.226   9.831
  127SBC   C0C989112   6.699   3.089   9.875
  127SBC   C0C889113   6.603   3.066   9.984
  127SBC   C0C789114   6.532   2.951  10.035
  127SBC   C0C689115   6.455   2.976  10.154
  127SBC   C0C589116   6.339   2.913  10.227
  127SBC   C0CQ89117   6.258   3.004  10.299
  127SBC   C0D189118   6.273   3.139  10.276
  127SBC   C0D889119   6.147   3.195  10.271
  127SBC   C0D789120   6.063   3.100  10.329
  127SBC   C0D689121   5.925   3.114  10.356
  127SBC   C0D589122   5.842   3.017  10.410
  127SBC   C0D489123   5.859   2.878  10.432
  127SBC   C0D389124   5.728   2.817  10.422
  127SBC   C0CX89125   5.747   2.677  10.378
  127SBC   C0CW89126   5.892   2.666  10.339
  127SBC   C0CV89127   5.993   2.563  10.302
  127SBC   C0D289128   5.958   2.424  10.309
  127SBC   C09D89129   5.844   2.367  10.368
  127SBC   C09C89130   5.832   2.223  10.373
  127SBC   C09B89131   5.724   2.151  10.439
  127SBC   C09A89132   5.626   2.233  10.500
  127SBC   C09989133   5.647   2.368  10.515
  127SBC   C09889134   5.521   2.424  10.532
  127SBC   C08Y89135   5.417   2.322  10.523
  127SBC   C08X89136   5.272   2.335  10.521
  127SBC   C08W89137   5.206   2.467  10.520
  127SBC   C08U89138   5.274   2.602  10.519
  127SBC   C08V89139   5.412   2.644  10.498
  127SBC   C0DC89140   5.417   2.778  10.544
  127SBC   H00W89141   5.510   2.830  10.562
  127SBC   C0DB89142   5.281   2.825  10.564
  127SBC   H00X89143   5.253   2.924  10.598
  127SBC   C08T89144   5.197   2.719  10.535
  127SBC   C08S89145   5.055   2.715  10.539
  127SBC   H00N89146   5.014   2.815  10.544
  127SBC   C08R89147   4.988   2.592  10.535
  127SBC   C08Q89148   4.847   2.583  10.550
  127SBC   H00O89149   4.807   2.683  10.558
  127SBC   C08P89150   4.767   2.465  10.547
  127SBC   C08O89151   4.627   2.456  10.551
  127SBC   H00P89152   4.565   2.540  10.577
  127SBC   C08N89153   4.567   2.329  10.542
  127SBC   C08M89154   4.427   2.322  10.544
  127SBC   O00889155   4.357   2.421  10.569
  127SBC   O00789156   4.359   2.198  10.514
  127SBC   C08H89157   4.429   2.085  10.500
  127SBC   C08G89158   4.365   1.962  10.457
  127SBC   C03V89159   4.226   1.935  10.455
  127SBC   H00989160   4.159   2.015  10.483
  127SBC   C03U89161   4.170   1.815  10.404
  127SBC   C03W89162   4.037   1.766  10.410
  127SBC   H00A89163   3.962   1.829  10.456
  127SBC   C03X89164   3.998   1.648  10.358
  127SBC   H00B89165   3.899   1.610  10.375
  127SBC   O00589166   4.088   1.561  10.300
  127SBC   C03O89167   4.218   1.602  10.300
  127SBC   C03N89168   4.307   1.515  10.242
  127SBC   O00089169   4.255   1.414  10.177
  127SBC   C01989170   4.332   1.333  10.099
  127SBC   C01889171   4.470   1.348  10.101
  127SBC   C01789172   4.531   1.449  10.182
  127SBC   C01689173   4.672   1.470  10.186
  127SBC   C01589174   4.747   1.377  10.113
  127SBC   C01489175   4.886   1.381  10.126
  127SBC   C01389176   4.953   1.475  10.210
  127SBC   C01289177   5.093   1.441  10.188
  127SBC   C01189178   5.090   1.327  10.106
  127SBC   C01089179   5.201   1.251  10.089
  127SBC   C00Z89180   5.213   1.130  10.021
  127SBC   C00Y89181   5.353   1.116  10.030
  127SBC   C01O89182   5.418   1.212  10.104
  127SBC   C01P89183   5.547   1.254  10.073
  127SBC   C02L89184   5.579   1.380  10.108
  127SBC   C02K89185   5.482   1.451  10.181
  127SBC   C01M89186   5.345   1.424  10.184
  127SBC   C02J89187   5.538   1.566  10.241
  127SBC   C02I89188   5.468   1.653  10.330
  127SBC   C02H89189   5.338   1.658  10.372
  127SBC   C01Q89190   5.225   1.587  10.328
  127SBC   C02G89191   5.105   1.657  10.375
  127SBC   C08989192   5.151   1.760  10.461
  127SBC   C08889193   5.054   1.863  10.466
  127SBC   C08789194   4.935   1.799  10.408
  127SBC   C08689195   4.805   1.847  10.419
  127SBC   C03S89196   4.680   1.783  10.390
  127SBC   N00689197   4.581   1.871  10.424
  127SBC   C08F89198   4.639   1.988  10.473
  127SBC   C01J89199   4.634   1.664  10.329
  127SBC   C03R89200   4.495   1.650  10.315
  127SBC   C03Q89201   4.402   1.743  10.364
  127SBC   C08E89202   4.771   1.983  10.459
  127SBC   C08D89203   4.853   2.099  10.486
  127SBC   C08K89204   4.778   2.216  10.515
  127SBC   C08C89205   4.992   2.110  10.501
  127SBC   C09189206   5.054   2.234  10.521
  127SBC   C09289207   4.983   2.361  10.528
  127SBC   C08B89208   5.084   2.010  10.497
  127SBC   C09089209   5.216   2.074  10.519
  127SBC   C09489210   5.342   2.008  10.514
  127SBC   C09589211   5.465   2.072  10.516
  127SBC   C09R89212   5.562   1.983  10.470
  127SBC   C09789213   5.507   1.858  10.444
  127SBC   C09689214   5.375   1.869  10.479
  127SBC   C01I89215   4.961   1.667  10.352
  127SBC   C08A89216   5.291   1.764  10.453
  127SBC   C09L89217   5.558   1.746  10.374
  127SBC   C09K89218   5.684   1.720  10.313
  127SBC   C09J89219   5.791   1.810  10.310
  127SBC   C09I89220   5.910   1.795  10.231
  127SBC   C09O89221   5.970   1.696  10.141
  127SBC   C09N89222   5.905   1.576  10.104
  127SBC   C09M89223   5.769   1.537  10.131
  127SBC   C06O89224   5.988   1.487  10.025
  127SBC   C05M89225   6.119   1.523   9.988
  127SBC   C06P89226   6.174   1.646  10.016
  127SBC   C04289227   6.199   1.437   9.907
  127SBC   C04189228   6.140   1.312   9.864
  127SBC   C04089229   6.217   1.229   9.778
  127SBC   C03Z89230   6.154   1.113   9.727
  127SBC   C03Y89231   6.019   1.087   9.753
  127SBC   C02789232   5.955   0.974   9.696
  127SBC   C02689233   5.830   0.940   9.728
  127SBC   C02889234   5.765   0.839   9.662
  127SBC   C02989235   5.830   0.763   9.569
  127SBC   C02B89236   5.761   0.677   9.486
  127SBC   C02C89237   5.827   0.606   9.387
  127SBC   C02X89238   5.754   0.523   9.306
  127SBC   C03E89239   5.824   0.463   9.207
  127SBC   C03G89240   5.956   0.473   9.185
  127SBC   C04Q89241   6.028   0.552   9.274
  127SBC   C04R89242   6.157   0.580   9.244
  127SBC   C04S89243   6.228   0.679   9.310
  127SBC   C04L89244   6.165   0.743   9.418
  127SBC   C04M89245   6.033   0.709   9.454
  127SBC   C04K89246   6.223   0.850   9.484
  127SBC   C04F89247   6.351   0.889   9.443
  127SBC   C04E89248   6.421   0.819   9.343
  127SBC   C04D89249   6.547   0.861   9.292
  127SBC   C05089250   6.604   0.794   9.190
  127SBC   C05189251   6.728   0.845   9.139
  127SBC   C05Q89252   6.785   0.784   9.029
  127SBC   C05V89253   6.896   0.841   8.968
  127SBC   N00589254   6.952   0.770   8.857
  127SBC   C07V89255   6.889   0.659   8.799
  127SBC   C08289256   6.951   0.598   8.692
  127SBC   C08189257   7.068   0.644   8.633
  127SBC   C07C89258   7.123   0.764   8.684
  127SBC   C07B89259   7.230   0.824   8.619
  127SBC   C08089260   7.299   0.761   8.516
  127SBC   C07Z89261   7.410   0.818   8.458
  127SBC   H00L89262   7.466   0.768   8.381
  127SBC   C07989263   7.446   0.954   8.479
  127SBC   C07889264   7.370   1.020   8.579
  127SBC   C07789265   7.407   1.153   8.607
  127SBC   C07X89266   7.501   1.227   8.533
  127SBC   H00I89267   7.525   1.331   8.548
  127SBC   C07Y89268   7.556   1.166   8.420
  127SBC   H00H89269   7.629   1.222   8.364
  127SBC   C07689270   7.336   1.213   8.709
  127SBC   C06C89271   7.346   1.355   8.727
  127SBC   H00C89272   7.396   1.427   8.664
  127SBC   C06F89273   7.249   1.143   8.790
  127SBC   C06E89274   7.190   1.201   8.899
  127SBC   C06G89275   7.103   1.142   8.984
  127SBC   C06H89276   7.057   1.015   8.949
  127SBC   C06I89277   7.115   0.949   8.838
  127SBC   C06L89278   7.061   1.206   9.107
  127SBC   C06M89279   7.101   1.336   9.146
  127SBC   C06K89280   6.956   1.134   9.179
  127SBC   C05S89281   6.901   1.017   9.129
  127SBC   C05U89282   6.901   1.193   9.295
  127SBC   C05X89283   6.953   1.321   9.338
  127SBC   C05G89284   6.881   1.370   9.454
  127SBC   C05F89285   6.781   1.292   9.514
  127SBC   C05E89286   6.716   1.368   9.614
  127SBC   C04889287   6.596   1.326   9.671
  127SBC   C05689288   6.524   1.420   9.742
  127SBC   C04589289   6.400   1.382   9.790
  127SBC   C04789290   6.543   1.208   9.624
  127SBC   C04989291   6.606   1.134   9.525
  127SBC   C04B89292   6.543   1.029   9.465
  127SBC   C04689293   6.413   1.177   9.662
  127SBC   C04H89294   6.351   1.068   9.604
  127SBC   C05D89295   6.774   1.494   9.627
  127SBC   C04A89296   6.725   1.178   9.465
  127SBC   C05T89297   6.790   1.131   9.351
  127SBC   C05589298   6.726   1.022   9.295
  127SBC   C06D89299   7.210   1.332   8.922
  127SBC   C07W89300   7.212   1.014   8.759
  127SBC   C08589301   7.536   1.029   8.400
  127SBC   H00M89302   7.594   0.982   8.321
  127SBC   C08489303   7.261   0.630   8.479
  127SBC   H00J89304   7.312   0.581   8.397
  127SBC   C07A89305   7.274   0.950   8.655
  127SBC   C08389306   7.143   0.577   8.532
  127SBC   H00K89307   7.108   0.483   8.493
  127SBC   O00K89308   6.898   0.487   8.634
  127SBC   C0GO89309   6.781   0.434   8.688
  127SBC   C0GN89310   6.725   0.322   8.639
  127SBC   H01L89311   6.778   0.278   8.556
  127SBC   C0GM89312   6.610   0.259   8.701
  127SBC   C0GL89313   6.568   0.135   8.665
  127SBC   H01M89314   6.630   0.078   8.596
  127SBC   O00J89315   6.453   0.074   8.715
  127SBC   C0GK89316   6.374   0.155   8.795
  127SBC   H01N89317   6.291   0.114   8.850
  127SBC   C05K89318   6.419   0.279   8.840
  127SBC   C05J89319   6.347   0.364   8.928
  127SBC   C04Y89320   6.210   0.349   8.954
  127SBC   C04X89321   6.146   0.422   9.053
  127SBC   O00689322   6.129   0.259   8.886
  127SBC   C05389323   5.992   0.249   8.889
  127SBC   C04O89324   5.928   0.328   8.979
  127SBC   C03C89325   5.790   0.350   8.997
  127SBC   C03B89326   5.677   0.305   8.926
  127SBC   C05489327   5.676   0.194   8.837
  127SBC   C0GR89328   5.554   0.137   8.792
  127SBC   C03M89329   5.407   0.165   8.802
  127SBC   C03I89330   5.345   0.258   8.892
  127SBC   C03J89331   5.202   0.273   8.890
  127SBC   N00289332   5.137   0.357   8.988
  127SBC   C02U89333   5.002   0.392   8.980
  127SBC   C02T89334   4.946   0.468   9.078
  127SBC   C02Z89335   4.819   0.516   9.055
  127SBC   N00189336   4.756   0.610   9.142
  127SBC   C02R89337   4.632   0.671   9.109
  127SBC   C03289338   4.562   0.627   8.998
  127SBC   C03189339   4.616   0.523   8.924
  127SBC   H00789340   4.552   0.491   8.843
  127SBC   C03389341   4.432   0.688   8.982
  127SBC   H00389342   4.379   0.677   8.888
  127SBC   O00489343   4.382   0.793   9.055
  127SBC   C03489344   4.467   0.847   9.150
  127SBC   C03589345   4.431   0.962   9.219
  127SBC   C03689346   4.515   1.023   9.316
  127SBC   H00589347   4.490   1.117   9.363
  127SBC   C03789348   4.633   0.951   9.351
  127SBC   H00689349   4.699   0.997   9.423
  127SBC   C00D89350   4.660   0.829   9.296
  127SBC   C00C89351   4.765   0.750   9.339
  127SBC   C00B89352   4.827   0.757   9.475
  127SBC   C00A89353   4.824   0.863   9.586
  127SBC   C00989354   4.951   0.841   9.649
  127SBC   C00889355   5.007   0.913   9.754
  127SBC   C00789356   4.933   1.010   9.816
  127SBC   C00689357   4.995   1.083   9.914
  127SBC   C00589358   4.911   1.181   9.976
  127SBC   C00489359   4.771   1.185   9.955
  127SBC   C00389360   4.711   1.104   9.858
  127SBC   C00289361   4.572   1.089   9.854
  127SBC   C01C89362   4.495   1.174   9.931
  127SBC   C01B89363   4.346   1.159   9.927
  127SBC   H00089364   4.279   1.100   9.867
  127SBC   C00189365   4.514   0.997   9.761
  127SBC   C00089366   4.597   0.926   9.669
  127SBC   C01U89367   4.504   0.843   9.601
  127SBC   H00289368   4.522   0.783   9.514
  127SBC   C01T89369   4.363   0.879   9.649
  127SBC   O00289370   4.258   0.842   9.597
  127SBC   O00189371   4.382   0.969   9.746
  127SBC   C01S89372   4.794   1.024   9.778
  127SBC   C00N89373   5.140   0.884   9.779
  127SBC   C00M89374   5.212   0.786   9.711
  127SBC   C00J89375   5.148   0.706   9.624
  127SBC   C00I89376   5.209   0.629   9.523
  127SBC   C00H89377   5.136   0.573   9.420
  127SBC   C00G89378   5.006   0.602   9.398
  127SBC   C00F89379   4.937   0.569   9.287
  127SBC   C01X89380   5.206   0.510   9.317
  127SBC   C01W89381   5.340   0.499   9.319
  127SBC   C01V89382   5.409   0.569   9.422
  127SBC   C02089383   5.550   0.578   9.422
  127SBC   C01Z89384   5.409   0.446   9.211
  127SBC   C02Y89385   5.542   0.448   9.220
  127SBC   C03989386   5.608   0.403   9.110
  127SBC   C02W89387   5.345   0.387   9.101
  127SBC   C01Y89388   5.142   0.474   9.201
  127SBC   C00U89389   5.343   0.632   9.522
  127SBC   C00S89390   5.418   0.707   9.616
  127SBC   C00T89391   5.558   0.718   9.609
  127SBC   C00R89392   5.351   0.779   9.712
  127SBC   C00Q89393   5.422   0.870   9.791
  127SBC   C00V89394   5.562   0.882   9.781
  127SBC   C02489395   5.633   0.984   9.849
  127SBC   C00X89396   5.560   1.062   9.936
  127SBC   C00P89397   5.348   0.954   9.873
  127SBC   C00O89398   5.209   0.963   9.866
  127SBC   C00K89399   5.012   0.730   9.602
  127SBC   N00089400   4.737   0.940   9.670
  127SBC   C00L89401   4.946   0.682   9.492
  127SBC   H00489402   4.336   1.012   9.205
  127SBC   C02Q89403   4.587   0.786   9.185
  127SBC   C00E89404   4.822   0.641   9.258
  127SBC   C03089405   4.742   0.468   8.948
  127SBC   O00389406   4.796   0.373   8.866
  127SBC   C02S89407   5.008   0.501   9.189
  127SBC   C03889408   4.932   0.344   8.870
  127SBC   C03L89409   4.992   0.259   8.775
  127SBC   H00889410   4.928   0.233   8.692
  127SBC   C02V89411   5.208   0.403   9.097
  127SBC   C03K89412   5.124   0.221   8.786
  127SBC   C0BK89413   5.190   0.130   8.707
  127SBC   H00T89414   5.133   0.086   8.626
  127SBC   C03H89415   5.412   0.331   8.994
  127SBC   C0BL89416   5.328   0.095   8.710
  127SBC   C0GU89417   5.380  -0.002   8.624
  127SBC   H01O89418   5.309  -0.054   8.560
  127SBC   C0GT89419   5.513  -0.039   8.617
  127SBC   H01P89420   5.533  -0.114   8.542
  127SBC   C0GS89421   5.597   0.034   8.701
  127SBC   C0GV89422   5.743   0.034   8.701
  127SBC   C0GW89423   5.834  -0.052   8.635
  127SBC   H01Q89424   5.790  -0.127   8.571
  127SBC   C0GX89425   5.969  -0.032   8.659
  127SBC   H01R89426   6.037  -0.102   8.613
  127SBC   O00L89427   6.019   0.072   8.733
  127SBC   C0GQ89428   5.795   0.126   8.796
  127SBC   C03A89429   5.559   0.343   8.996
  127SBC   C05L89430   5.933   0.150   8.809
  127SBC   C04W89431   6.414   0.473   8.999
  127SBC   C05I89432   6.538   0.515   8.962
  127SBC   C05O89433   6.601   0.451   8.853
  127SBC   C05289434   6.600   0.620   9.025
  127SBC   C04V89435   6.350   0.544   9.103
  127SBC   C04U89436   6.416   0.646   9.172
  127SBC   N00989437   6.544   0.335   8.801
  127SBC   C0GP89438   6.723   0.492   8.805
  127SBC   C05W89439   6.777   0.608   8.862
  127SBC   C07D89440   7.068   0.826   8.801
  127SBC   C06J89441   6.953   0.956   9.018
  127SBC   C05P89442   6.723   0.668   8.974
  127SBC   C05R89443   6.789   0.960   9.189
  127SBC   C04Z89444   6.540   0.685   9.131
  127SBC   C04C89445   6.608   0.969   9.352
  127SBC   C04G89446   6.416   0.992   9.502
  127SBC   C04J89447   6.155   0.928   9.574
  127SBC   C04T89448   6.358   0.716   9.274
  127SBC   N00389449   6.216   0.517   9.133
  127SBC   C04P89450   6.008   0.405   9.071
  127SBC   C03D89451   5.745   0.411   9.110
  127SBC   C02189452   5.616   0.517   9.320
  127SBC   C03F89453   5.964   0.618   9.376
  127SBC   C02289454   5.623   0.656   9.509
  127SBC   C02A89455   5.962   0.788   9.543
  127SBC   C02389456   5.629   0.810   9.684
  127SBC   C02589457   5.764   1.014   9.823
  127SBC   C02D89458   5.823   1.131   9.873
  127SBC   C02E89459   5.747   1.214   9.953
  127SBC   C02N89460   5.798   1.338  10.001
  127SBC   C04N89461   6.023   0.899   9.606
  127SBC   C02P89462   5.948   1.171   9.835
  127SBC   C04I89463   6.221   1.035   9.637
  127SBC   C04489464   6.347   1.258   9.752
  127SBC   C04389465   6.007   1.284   9.893
  127SBC   C05N89466   5.931   1.368   9.975
  127SBC   C09U89467   6.098   1.735  10.093
  127SBC   C09V89468   6.153   1.866  10.114
  127SBC   C09X89469   6.083   1.962  10.178
  127SBC   C09Y89470   6.116   2.099  10.192
  127SBC   C0A189471   6.237   2.141  10.139
  127SBC   C0A289472   6.321   2.041  10.080
  127SBC   C0A489473   6.438   2.076  10.032
  127SBC   C07189474   6.518   1.983   9.968
  127SBC   C0A589475   6.641   2.021   9.911
  127SBC   C0A989476   6.685   2.152   9.936
  127SBC   C0A889477   6.597   2.246   9.988
  127SBC   C0AP89478   6.626   2.381   9.988
  127SBC   C0BY89479   6.532   2.469  10.034
  127SBC   C0BX89480   6.414   2.442  10.093
  127SBC   C0C289481   6.325   2.542  10.142
  127SBC   C0C389482   6.204   2.510  10.198
  127SBC   C0CT89483   6.177   2.369  10.202
  127SBC   C0C189484   6.363   2.681  10.135
  127SBC   C0C089485   6.469   2.710  10.043
  127SBC   C0A789486   6.382   2.306  10.085
  127SBC   C0BZ89487   6.556   2.603  10.011
  127SBC   C0BO89488   6.668   2.643   9.946
  127SBC   C0BN89489   6.766   2.560   9.905
  127SBC   C0BM89490   6.868   2.616   9.837
  127SBC   C0B989491   6.965   2.525   9.798
  127SBC   C0B889492   6.946   2.384   9.819
  127SBC   C0AD89493   6.831   2.337   9.879
  127SBC   C0AF89494   7.030   2.293   9.752
  127SBC   C0AG89495   7.145   2.331   9.684
  127SBC   C0B789496   7.162   2.469   9.667
  127SBC   C0AE89497   7.000   2.160   9.764
  127SBC   C0AB89498   6.887   2.108   9.820
  127SBC   C0AA89499   6.850   1.975   9.805
  127SBC   C0AJ89500   7.087   2.068   9.714
  127SBC   C0AK89501   7.051   1.934   9.699
  127SBC   C06W89502   7.143   1.878   9.621
  127SBC   C0AI89503   7.197   2.095   9.637
  127SBC   C0BP89504   6.656   2.779   9.913
  127SBC   C0BQ89505   6.775   2.844   9.846
  127SBC   C0BW89506   6.741   2.425   9.925
  127SBC   C0AC89507   6.801   2.199   9.883
  127SBC   C0A689508   6.473   2.209  10.035
  127SBC   C0A389509   6.266   2.277  10.143
  127SBC   C09Z89510   6.030   2.195  10.250
  127SBC   C09W89511   6.273   1.908  10.062
  127SBC   C07289512   6.346   1.817   9.992
  127SBC   C09H89513   5.965   1.922  10.236
  127SBC   C09G89514   5.898   2.010  10.311
  127SBC   C09P89515   5.787   1.944  10.360
  127SBC   C02O89516   5.679   1.604  10.232
  127SBC   C02M89517   5.713   1.422  10.077
  127SBC   C02F89518   5.620   1.176   9.995
  127SBC   C00W89519   5.423   1.035   9.948
  127SBC   C01R89520   5.133   1.056   9.935
  127SBC   C01N89521   5.321   1.304  10.129
  127SBC   C01L89522   5.225   1.488  10.235
  127SBC   C01H89523   4.880   1.570  10.277
  127SBC   C01K89524   4.966   1.287  10.064
  127SBC   C01E89525   4.693   1.279  10.030
  127SBC   C01G89526   4.728   1.570  10.267
  127SBC   C01D89527   4.553   1.266  10.021
  127SBC   C01A89528   4.270   1.232  10.021
  127SBC   H00189529   4.163   1.224  10.034
  127SBC   C01F89530   4.447   1.534  10.251
  127SBC   C03P89531   4.264   1.726  10.350
  127SBC   C03T89532   4.445   1.857  10.419
  127SBC   C08I89533   4.570   2.095  10.500
  127SBC   C08J89534   4.640   2.211  10.521
  127SBC   C08L89535   4.842   2.344  10.531
  127SBC   C09389536   5.065   2.474  10.528
  127SBC   C08Z89537   5.192   2.219  10.520
  127SBC   C09T89538   5.532   2.557  10.492
  127SBC   C09S89539   5.498   2.205  10.528
  127SBC   C09Q89540   5.691   2.019  10.428
  127SBC   C09F89541   5.926   2.145  10.320
  127SBC   C09E89542   5.734   2.437  10.439
  127SBC   C0A089543   6.057   2.331  10.254
  127SBC   C0CU89544   6.121   2.606  10.253
  127SBC   C0CR89545   6.162   2.741  10.258
  127SBC   C0CZ89546   6.076   2.839  10.309
  127SBC   C0DA89547   5.673   2.572  10.441
  127SBC   C0D989548   5.638   2.919  10.365
  127SBC   H00V89549   5.544   2.900  10.317
  127SBC   C0CY89550   5.949   2.795  10.359
  127SBC   C0DF89551   5.709   3.049  10.379
  127SBC   C0DE89552   5.709   3.183  10.329
  127SBC   C0GI89553   5.603   3.282  10.320
  127SBC   H01K89554   5.505   3.257  10.358
  127SBC   C0GJ89555   5.637   3.408  10.280
  127SBC   H01J89556   5.557   3.479  10.262
  127SBC   O00I89557   5.759   3.435  10.218
  127SBC   C0GH89558   5.870   3.351  10.234
  127SBC   C0GG89559   5.993   3.396  10.187
  127SBC   O00G89560   5.994   3.514  10.128
  127SBC   C0G889561   6.106   3.563  10.057
  127SBC   C0G989562   6.092   3.692  10.016
  127SBC   H01G89563   6.003   3.751  10.026
  127SBC   C0GA89564   6.201   3.759   9.960
  127SBC   H01H89565   6.181   3.860   9.929
  127SBC   C0GB89566   6.326   3.693   9.938
  127SBC   C0EP89567   6.335   3.555   9.977
  127SBC   C0E889568   6.456   3.485   9.929
  127SBC   C0CK89569   6.500   3.351   9.920
  127SBC   C0CL89570   6.475   3.282  10.035
  127SBC   C0E989571   6.353   3.292  10.117
  127SBC   C0GE89572   6.231   3.377  10.126
  127SBC   C0E789573   6.575   3.555   9.905
  127SBC   C0CJ89574   6.687   3.479   9.887
  127SBC   C0E689575   6.814   3.542   9.887
  127SBC   H00Y89576   6.906   3.488   9.873
  127SBC   C0EO89577   6.804   3.687   9.867
  127SBC   H01189578   6.895   3.744   9.855
  127SBC   C0G689579   6.684   3.763   9.862
  127SBC   C0G589580   6.666   3.901   9.852
  127SBC   H01F89581   6.749   3.971   9.852
  127SBC   C0GD89582   6.543   3.956   9.846
  127SBC   H01I89583   6.544   4.064   9.836
  127SBC   O00H89584   6.426   3.896   9.852
  127SBC   C0EQ89585   6.564   3.692   9.887
  127SBC   C0GC89586   6.439   3.762   9.894
  127SBC   C0G789587   6.229   3.496  10.050
  127SBC   C0DD89588   5.842   3.222  10.299
  127SBC   C0GF89589   6.115   3.322  10.199
  127SBC   C0CO89590   6.372   3.187  10.202
  127SBC   C0D089591   6.120   2.974  10.310
  127SBC   C0C489592   6.289   2.778  10.206
  127SBC   C0CN89593   6.487   3.112  10.178
  127SBC   C0CP89594   6.532   2.826   9.977
  127SBC   C0CM89595   6.560   3.173  10.076
  127SBC   C0CI89596   6.637   3.344   9.872
  127SBC   C0CD89597   7.024   3.194   9.640
  127SBC   C0BR89598   6.789   2.984   9.824
  127SBC   C0CS89599   6.874   2.749   9.807
  127SBC   C0B689600   7.072   2.563   9.725
  127SBC   C0CG89601   7.118   2.970   9.648
  127SBC   C0CF89602   7.131   3.106   9.619
  127SBC   C0E589603   7.160   3.374   9.545
  127SBC   C0DT89604   7.405   3.472   9.476
  127SBC   C0DL89605   7.472   3.108   9.492
  127SBC   C0DM89606   7.578   3.018   9.453
  127SBC   C0DY89607   7.722   3.199   9.403
  127SBC   C0DU89608   7.530   3.515   9.453
  127SBC   C0F089609   7.667   3.701   9.375
  127SBC   C0F489610   7.856   3.767   9.193
  127SBC   C0FG89611   7.972   3.445   9.309
  127SBC   O00B89612   8.047   3.689   9.072
  127SBC   C0FN89613   8.050   3.372   9.232
  127SBC   C0DZ89614   7.843   3.252   9.361
  127SBC   O00C89615   8.003   2.928   9.256
  127SBC   C0FR89616   7.997   2.795   9.272
  127SBC   O00D89617   8.095   2.733   9.227
  127SBC   C0E089618   7.701   3.064   9.407
  127SBC   C0E389619   7.876   2.747   9.326
  127SBC   C0AW89620   7.855   2.609   9.348
  127SBC   C0AV89621   7.949   2.505   9.319
  127SBC   H00Q89622   8.047   2.517   9.275
  127SBC   C0AU89623   7.911   2.369   9.334
  127SBC   H00R89624   7.977   2.287   9.308
  127SBC   C0AT89625   7.784   2.338   9.381
  127SBC   C0AS89626   7.700   2.216   9.386
  127SBC   C0AR89627   7.718   2.110   9.294
  127SBC   C0BE89628   7.704   2.437   9.423
  127SBC   C0DN89629   7.555   2.885   9.468
  127SBC   C0AX89630   7.732   2.574   9.411
  127SBC   C0BB89631   7.414   2.698   9.541
  127SBC   C0BD89632   7.583   2.387   9.463
  127SBC   C0B289633   7.276   2.513   9.602
  127SBC   C0AH89634   7.227   2.238   9.620
  127SBC   C0BF89635   7.573   2.248   9.449
  127SBC   C0AL89636   7.244   1.972   9.583
  127SBC   C07U89637   7.496   1.979   9.334
  127SBC   C0AQ89638   7.621   2.005   9.274
  127SBC   C0BG89639   7.813   2.096   9.187
  127SBC   C0FY89640   7.718   1.967   8.868
  127SBC   C0BJ89641   7.831   2.202   9.091
  127SBC   H00S89642   7.833   2.308   9.110
  127SBC   C0FZ89643   7.729   2.077   8.779
  127SBC   C07S89644   7.606   1.883   8.865
  127SBC   C0G189645   7.463   2.027   8.550
  127SBC   C07K89646   7.233   1.746   8.581
  127SBC   C07H89647   7.370   1.735   8.832
  127SBC   C06B89648   7.275   1.408   8.835
  127SBC   C06N89649   7.176   1.399   9.040
  127SBC   C06689650   7.373   1.715   9.092
  127SBC   C06289651   7.245   1.714   9.371
  127SBC   C05Y89652   7.061   1.388   9.270
  127SBC   C06189653   7.192   1.660   9.499
  127SBC   C05H89654   6.882   1.485   9.535
  127SBC   C06V89655   7.115   1.747   9.583
  127SBC   C06Y89656   6.933   1.881   9.749
  127SBC   C05C89657   6.707   1.584   9.721
  127SBC   C06Z89658   6.724   1.929   9.847
  127SBC   C07089659   6.472   1.854   9.942
  127SBC   C05B89660   6.581   1.542   9.776
  127SBC   C05789661   6.327   1.472   9.867
  127SBC   C05989662   6.299   1.692   9.966
  128SBC   C05889663   7.611   9.910   8.032
  128SBC   C05A89664   7.679  10.009   7.964
  128SBC   C06Q89665   7.821   9.995   7.944
  128SBC   C06R89666   7.889  10.096   7.874
  128SBC   C06S89667   7.827  10.219   7.835
  128SBC   C06T89668   7.905  10.316   7.770
  128SBC   C06U89669   7.869  10.455   7.726
  128SBC   C06X89670   7.745  10.528   7.717
  128SBC   C06089671   7.764  10.660   7.673
  128SBC   C05Z89672   7.682  10.724   7.573
  128SBC   C06889673   7.787  10.795   7.497
  128SBC   C06789674   7.778  10.931   7.439
  128SBC   C06989675   7.655  10.989   7.411
  128SBC   C06A89676   7.616  11.128   7.373
  128SBC   C07389677   7.671  11.251   7.414
  128SBC   C07P89678   7.592  11.351   7.478
  128SBC   C07O89679   7.452  11.345   7.489
  128SBC   H00D89680   7.397  11.257   7.456
  128SBC   C07N89681   7.372  11.457   7.533
  128SBC   H00E89682   7.266  11.442   7.542
  128SBC   C07M89683   7.442  11.563   7.590
  128SBC   H00F89684   7.391  11.646   7.637
  128SBC   C07L89685   7.578  11.568   7.590
  128SBC   C07Q89686   7.648  11.683   7.646
  128SBC   H00G89687   7.589  11.763   7.689
  128SBC   O00F89688   7.786  11.694   7.642
  128SBC   C07J89689   7.854  11.593   7.575
  128SBC   C07I89690   7.790  11.482   7.512
  128SBC   N00489691   7.872  11.381   7.449
  128SBC   C07R89692   8.010  11.408   7.412
  128SBC   C07T89693   8.065  11.517   7.480
  128SBC   C0FX89694   8.202  11.536   7.472
  128SBC   C0FW89695   8.274  11.616   7.560
  128SBC   C0G089696   8.197  11.702   7.645
  128SBC   C0G289697   8.268  11.790   7.730
  128SBC   H01E89698   8.215  11.864   7.790
  128SBC   C0G389699   8.406  11.786   7.742
  128SBC   H01C89700   8.452  11.858   7.808
  128SBC   C0G489701   8.475  11.705   7.652
  128SBC   H01D89702   8.582  11.707   7.644
  128SBC   O00E89703   8.060  11.696   7.647
  128SBC   C0FV89704   8.417  11.610   7.565
  128SBC   C0FU89705   8.481  11.512   7.483
  128SBC   H01B89706   8.587  11.489   7.487
  128SBC   C0FT89707   8.415  11.435   7.390
  128SBC   C0FS89708   8.434  11.324   7.295
  128SBC   C0BI89709   8.309  11.297   7.226
  128SBC   C0BH89710   8.305  11.160   7.183
  128SBC   C07F89711   8.225  11.068   7.251
  128SBC   C07E89712   8.097  11.080   7.304
  128SBC   C07G89713   8.021  11.197   7.316
  128SBC   C07489714   7.904  11.158   7.381
  128SBC   C06589715   8.025  10.972   7.362
  128SBC   C06489716   8.100  10.855   7.378
  128SBC   C06389717   8.050  10.741   7.444
  128SBC   C07589718   8.166  10.650   7.431
  128SBC   C0AM89719   8.278  10.702   7.358
  128SBC   C0AN89720   8.404  10.635   7.320
  128SBC   C0AO89721   8.462  10.498   7.348
  128SBC   C0B189722   8.587  10.453   7.297
  128SBC   C0B089723   8.664  10.537   7.220
  128SBC   C0AZ89724   8.790  10.510   7.175
  128SBC   C0AY89725   8.867  10.606   7.107
  128SBC   N00789726   8.999  10.587   7.074
  128SBC   C0E289727   9.067  10.685   6.995
  128SBC   C0E189728   9.197  10.657   6.953
  128SBC   C0E489729   9.257  10.740   6.859
  128SBC   C0FF89730   9.387  10.714   6.815
  128SBC   C0FJ89731   9.464  10.766   6.702
  128SBC   C0FK89732   9.397  10.748   6.576
  128SBC   H01689733   9.297  10.717   6.551
  128SBC   C0FL89734   9.511  10.738   6.478
  128SBC   H01789735   9.505  10.711   6.374
  128SBC   C0FM89736   9.638  10.744   6.544
  128SBC   C0FH89737   9.756  10.662   6.542
  128SBC   C0FI89738   9.767  10.615   6.674
  128SBC   C0F389739   9.816  10.481   6.691
  128SBC   C0F289740   9.769  10.420   6.807
  128SBC   C0DW89741   9.654  10.458   6.879
  128SBC   C0FE89742   9.596  10.579   6.847
  128SBC   C0DV89743   9.582  10.365   6.951
  128SBC   C0DX89744   9.452  10.396   6.997
  128SBC   C0DK89745   9.382  10.299   7.069
  128SBC   C0DJ89746   9.437  10.173   7.086
  128SBC   C0DI89747   9.369  10.078   7.153
  128SBC   C0DH89748   9.239  10.103   7.200
  128SBC   C0DG89749   9.176  10.222   7.172
  128SBC   C0BV89750   9.045  10.249   7.211
  128SBC   C0BC89751   8.982  10.368   7.176
  128SBC   C0BA89752   8.974  10.153   7.278
  128SBC   C0B489753   8.845  10.175   7.322
  128SBC   C0B389754   8.782  10.297   7.289
  128SBC   C0B589755   8.772  10.078   7.395
  128SBC   C0BU89756   8.831   9.958   7.423
  128SBC   C0BT89757   8.960   9.931   7.384
  128SBC   C0BS89758   9.022   9.810   7.421
  128SBC   C0CC89759   9.155   9.785   7.375
  128SBC   C0CB89760   9.228   9.671   7.417
  128SBC   C0CH89761   9.363   9.673   7.384
  128SBC   C0DO89762   9.428   9.757   7.293
  128SBC   C0DP89763   9.550   9.723   7.232
  128SBC   C0EA89764   9.617   9.597   7.261
  128SBC   H01289765   9.575   9.525   7.331
  128SBC   O00989766   9.726   9.549   7.192
  128SBC   C0EH89767   9.757   9.621   7.074
  128SBC   C0EG89768   9.842   9.567   6.977
  128SBC   C0EJ89769   9.916   9.443   6.965
  128SBC   H01089770   9.914   9.366   7.041
  128SBC   C0EK89771   9.990   9.439   6.843
  128SBC   H00Z89772  10.050   9.362   6.798
  128SBC   C0EL89773   9.969   9.566   6.787
  128SBC   C0EM89774  10.019   9.636   6.670
  128SBC   C0EW89775  10.124   9.587   6.582
  128SBC   H01389776  10.167   9.489   6.592
  128SBC   C0EX89777  10.181   9.671   6.475
  128SBC   H01489778  10.261   9.637   6.411
  128SBC   C0F189779  10.118   9.802   6.457
  128SBC   C0EU89780  10.019   9.848   6.543
  128SBC   C0ET89781   9.980   9.982   6.562
  128SBC   C0ES89782   9.899   9.975   6.682
  128SBC   C0EE89783   9.886   9.844   6.729
  128SBC   C0ED89784   9.844   9.776   6.847
  128SBC   C0EC89785   9.761   9.834   6.942
  128SBC   C0EB89786   9.717   9.968   6.948
  128SBC   C0EN89787   9.788  10.072   6.880
  128SBC   C0ER89788   9.755  10.205   6.917
  128SBC   C0DS89789   9.615  10.015   7.030
  128SBC   C0DR89790   9.547   9.923   7.111
  128SBC   C0EY89791   9.882  10.086   6.769
  128SBC   C0EZ89792   9.892  10.221   6.723
  128SBC   C0F589793   9.934  10.290   6.602
  128SBC   C0F689794   9.998  10.226   6.493
  128SBC   N00889795  10.039  10.309   6.386
  128SBC   C0F789796   9.995  10.450   6.374
  128SBC   C0FQ89797  10.022  10.516   6.255
  128SBC   H01889798   9.977  10.613   6.243
  128SBC   C0FP89799  10.083  10.458   6.148
  128SBC   H01989800  10.088  10.516   6.057
  128SBC   C0FO89801  10.142  10.331   6.161
  128SBC   H01A89802  10.196  10.285   6.080
  128SBC   C0F889803   9.915  10.498   6.478
  128SBC   C0F989804  10.119  10.255   6.278
  128SBC   C0FA89805  10.172  10.126   6.281
  128SBC   H01589806  10.237  10.087   6.204
  128SBC   C0FB89807  10.121  10.041   6.378
  128SBC   C0FD89808  10.037  10.087   6.475
  128SBC   C0FC89809  10.167   9.902   6.367
  128SBC   O00A89810  10.249   9.874   6.284
  128SBC   C0EV89811   9.966   9.768   6.645
  128SBC   C0EF89812   9.879   9.643   6.870
  128SBC   C0EI89813   9.710   9.755   7.052
  128SBC   C0DQ89814   9.604   9.803   7.132
  128SBC   C0CE89815   9.357   9.864   7.249
  128SBC   H00U89816   9.423   9.595   7.428
  128SBC   C0CA89817   9.156   9.558   7.469
  128SBC   C0C989818   9.011   9.577   7.505
  128SBC   C0C889819   8.946   9.454   7.545
  128SBC   C0C789820   8.823   9.424   7.609
  128SBC   C0C689821   8.798   9.293   7.647
  128SBC   C0C589822   8.717   9.213   7.739
  128SBC   C0CQ89823   8.766   9.081   7.769
  128SBC   C0D189824   8.903   9.058   7.744
  128SBC   C0D889825   8.968   8.998   7.840
  128SBC   C0D789826   8.859   8.941   7.920
  128SBC   C0D689827   8.873   8.870   8.040
  128SBC   C0D589828   8.763   8.826   8.122
  128SBC   C0D489829   8.627   8.837   8.094
  128SBC   C0D389830   8.570   8.802   8.220
  128SBC   C0CX89831   8.453   8.888   8.239
  128SBC   C0CW89832   8.462   8.999   8.145
  128SBC   C0CV89833   8.396   9.125   8.118
  128SBC   C0D289834   8.283   9.162   8.192
  128SBC   C09D89835   8.220   9.091   8.300
  128SBC   C09C89836   8.094   9.136   8.353
  128SBC   C09B89837   8.007   9.060   8.435
  128SBC   C09A89838   8.054   8.933   8.483
  128SBC   C09989839   8.175   8.892   8.445
  128SBC   C09889840   8.185   8.752   8.457
  128SBC   C08Y89841   8.049   8.706   8.463
  128SBC   C08X89842   8.003   8.572   8.442
  128SBC   C08W89843   8.094   8.465   8.409
  128SBC   C08U89844   8.237   8.466   8.372
  128SBC   C08V89845   8.321   8.578   8.339
  128SBC   C0DC89846   8.451   8.528   8.343
  128SBC   H00W89847   8.542   8.585   8.330
  128SBC   C0DB89848   8.456   8.389   8.370
  128SBC   H00X89849   8.552   8.339   8.381
  128SBC   C08T89850   8.317   8.351   8.384
  128SBC   C08S89851   8.260   8.232   8.411
  128SBC   H00N89852   8.312   8.139   8.425
  128SBC   C08R89853   8.120   8.213   8.414
  128SBC   C08Q89854   8.063   8.087   8.423
  128SBC   H00O89855   8.127   8.000   8.412
  128SBC   C08P89856   7.921   8.056   8.415
  128SBC   C08O89857   7.848   7.928   8.409
  128SBC   H00P89858   7.911   7.841   8.398
  128SBC   C08N89859   7.706   7.923   8.397
  128SBC   C08M89860   7.648   7.791   8.358
  128SBC   O00889861   7.717   7.688   8.344
  128SBC   O00789862   7.506   7.788   8.343
  128SBC   C08H89863   7.424   7.906   8.360
  128SBC   C08G89864   7.283   7.901   8.351
  128SBC   C03V89865   7.196   7.788   8.334
  128SBC   H00989866   7.259   7.702   8.316
  128SBC   C03U89867   7.056   7.790   8.331
  128SBC   C03W89868   6.968   7.676   8.311
  128SBC   H00A89869   7.011   7.578   8.297
  128SBC   C03X89870   6.833   7.691   8.314
  128SBC   H00B89871   6.766   7.607   8.305
  128SBC   O00589872   6.774   7.817   8.311
  128SBC   C03O89873   6.857   7.927   8.332
  128SBC   C03N89874   6.798   8.055   8.336
  128SBC   O00089875   6.663   8.061   8.341
  128SBC   C01989876   6.599   8.180   8.349
  128SBC   C01889877   6.666   8.301   8.368
  128SBC   C01789878   6.803   8.295   8.374
  128SBC   C01689879   6.880   8.409   8.405
  128SBC   C01589880   6.799   8.529   8.402
  128SBC   C01489881   6.866   8.647   8.414
  128SBC   C01389882   7.011   8.653   8.435
  128SBC   C01289883   7.029   8.803   8.434
  128SBC   C01189884   6.902   8.861   8.436
  128SBC   C01089885   6.888   8.996   8.466
  128SBC   C00Z89886   6.773   9.070   8.448
  128SBC   C00Y89887   6.826   9.200   8.436
  128SBC   C01O89888   6.958   9.210   8.462
  128SBC   C01P89889   7.044   9.304   8.401
  128SBC   C02L89890   7.178   9.280   8.390
  128SBC   C02K89891   7.214   9.148   8.418
  128SBC   C01M89892   7.123   9.039   8.438
  128SBC   C02J89893   7.354   9.133   8.407
  128SBC   C02I89894   7.430   9.026   8.450
  128SBC   C02H89895   7.388   8.900   8.479
  128SBC   C01Q89896   7.267   8.835   8.472
  128SBC   C02G89897   7.292   8.691   8.484
  128SBC   C08989898   7.425   8.676   8.523
  128SBC   C08889899   7.478   8.551   8.495
  128SBC   C08789900   7.355   8.480   8.463
  128SBC   C08689901   7.349   8.342   8.449
  128SBC   C03S89902   7.229   8.263   8.426
  128SBC   N00689903   7.275   8.131   8.413
  128SBC   C08F89904   7.407   8.129   8.422
  128SBC   C01J89905   7.089   8.280   8.408
  128SBC   C03R89906   7.011   8.159   8.378
  128SBC   C03Q89907   7.071   8.030   8.366
  128SBC   C08E89908   7.462   8.248   8.444
  128SBC   C08D89909   7.607   8.272   8.439
  128SBC   C08K89910   7.691   8.162   8.416
  128SBC   C08C89911   7.673   8.399   8.443
  128SBC   C09189912   7.814   8.411   8.437
  128SBC   C09289913   7.900   8.302   8.425
  128SBC   C08B89914   7.623   8.536   8.459
  128SBC   C09089915   7.737   8.623   8.473
  128SBC   C09489916   7.732   8.751   8.537
  128SBC   C09589917   7.842   8.846   8.520
  128SBC   C09R89918   7.793   8.974   8.502
  128SBC   C09789919   7.656   8.965   8.486
  128SBC   C09689920   7.617   8.832   8.516
  128SBC   C01I89921   7.232   8.562   8.465
  128SBC   C08A89922   7.483   8.803   8.513
  128SBC   C09L89923   7.566   9.064   8.447
  128SBC   C09K89924   7.575   9.200   8.407
  128SBC   C09J89925   7.692   9.280   8.412
  128SBC   C09I89926   7.705   9.391   8.338
  128SBC   C09O89927   7.622   9.480   8.264
  128SBC   C09N89928   7.479   9.477   8.273
  128SBC   C09M89929   7.394   9.369   8.322
  128SBC   C06O89930   7.408   9.593   8.222
  128SBC   C05M89931   7.478   9.702   8.166
  128SBC   C06P89932   7.618   9.696   8.155
  128SBC   C04289933   7.412   9.819   8.125
  128SBC   C04189934   7.275   9.822   8.134
  128SBC   C04089935   7.205   9.933   8.083
  128SBC   C03Z89936   7.062   9.934   8.078
  128SBC   C03Y89937   6.994   9.825   8.121
  128SBC   C02789938   6.855   9.829   8.110
  128SBC   C02689939   6.783   9.729   8.168
  128SBC   C02889940   6.643   9.730   8.152
  128SBC   C02989941   6.579   9.825   8.074
  128SBC   C02B89942   6.440   9.817   8.058
  128SBC   C02C89943   6.377   9.908   7.978
  128SBC   C02X89944   6.240   9.892   7.952
  128SBC   C03E89945   6.182   9.989   7.881
  128SBC   C03G89946   6.247  10.086   7.811
  128SBC   C04Q89947   6.381  10.099   7.837
  128SBC   C04R89948   6.456  10.204   7.789
  128SBC   C04S89949   6.590  10.223   7.817
  128SBC   C04L89950   6.655  10.128   7.894
  128SBC   C04M89951   6.585  10.025   7.949
  128SBC   C04K89952   6.792  10.139   7.915
  128SBC   C04F89953   6.869  10.243   7.862
  128SBC   C04E89954   6.805  10.335   7.778
  128SBC   C04D89955   6.876  10.429   7.713
  128SBC   C05089956   6.818  10.502   7.611
  128SBC   C05189957   6.894  10.600   7.541
  128SBC   C05Q89958   6.836  10.675   7.447
  128SBC   C05V89959   6.914  10.769   7.378
  128SBC   N00589960   6.851  10.845   7.278
  128SBC   C07V89961   6.716  10.831   7.249
  128SBC   C08289962   6.654  10.904   7.149
  128SBC   C08189963   6.721  10.998   7.076
  128SBC   C07C89964   6.856  11.013   7.097
  128SBC   C07B89965   6.939  11.090   7.014
  128SBC   C08089966   6.885  11.158   6.904
  128SBC   C07Z89967   6.969  11.230   6.826
  128SBC   H00L89968   6.922  11.282   6.743
  128SBC   C07989969   7.103  11.250   6.854
  128SBC   C07889970   7.155  11.182   6.969
  128SBC   C07789971   7.284  11.219   7.014
  128SBC   C07X89972   7.359  11.308   6.932
  128SBC   H00I89973   7.458  11.339   6.963
  128SBC   C07Y89974   7.319  11.356   6.812
  128SBC   H00H89975   7.380  11.427   6.758
  128SBC   C07689976   7.337  11.154   7.125
  128SBC   C06C89977   7.459  11.203   7.185
  128SBC   H00C89978   7.521  11.286   7.155
  128SBC   C06F89979   7.257  11.056   7.189
  128SBC   C06E89980   7.313  10.985   7.291
  128SBC   C06G89981   7.252  10.886   7.366
  128SBC   C06H89982   7.116  10.877   7.332
  128SBC   C06I89983   7.055  10.949   7.231
  128SBC   C06L89984   7.323  10.809   7.460
  128SBC   C06M89985   7.464  10.819   7.477
  128SBC   C06K89986   7.249  10.715   7.530
  128SBC   C05S89987   7.111  10.708   7.506
  128SBC   C05U89988   7.314  10.627   7.624
  128SBC   C05X89989   7.457  10.628   7.634
  128SBC   C05G89990   7.495  10.515   7.708
  128SBC   C05F89991   7.407  10.432   7.780
  128SBC   C05E89992   7.474  10.334   7.848
  128SBC   C04889993   7.404  10.236   7.909
  128SBC   C05689994   7.478  10.127   7.948
  128SBC   C04589995   7.408  10.027   8.010
  128SBC   C04789996   7.268  10.237   7.900
  128SBC   C04989997   7.204  10.338   7.831
  128SBC   C04B89998   7.071  10.340   7.816
  128SBC   C04689999   7.199  10.136   7.961
  128SBC   C04H90000   7.062  10.135   7.953
  128SBC   C05D90001   7.609  10.342   7.823
  128SBC   C04A90002   7.274  10.439   7.771
  128SBC   C05T90003   7.228  10.533   7.686
  128SBC   C05590004   7.091  10.529   7.665
  128SBC   C06D90005   7.445  11.010   7.329
  128SBC   C07W90006   7.125  11.034   7.153
  128SBC   C08590007   7.183  11.335   6.777
  128SBC   H00M90008   7.141  11.388   6.692
  128SBC   C08490009   6.743  11.148   6.883
  128SBC   H00J90010   6.691  11.181   6.794
  128SBC   C07A90011   7.074  11.102   7.045
  128SBC   C08390012   6.661  11.072   6.972
  128SBC   H00K90013   6.556  11.063   6.947
  128SBC   O00K90014   6.520  10.896   7.122
  128SBC   C0GO90015   6.441  10.816   7.200
  128SBC   C0GN90016   6.307  10.799   7.168
  128SBC   H01L90017   6.279  10.845   7.074
  128SBC   C0GM90018   6.230  10.703   7.228
  128SBC   C0GL90019   6.103  10.694   7.184
  128SBC   H01M90020   6.070  10.761   7.106
  128SBC   O00J90021   6.024  10.593   7.237
  128SBC   C0GK90022   6.079  10.514   7.336
  128SBC   H01N90023   6.009  10.445   7.381
  128SBC   C05K90024   6.208  10.536   7.383
  128SBC   C05J90025   6.265  10.451   7.492
  128SBC   C04Y90026   6.194  10.350   7.571
  128SBC   C04X90027   6.255  10.268   7.665
  128SBC   O00690028   6.060  10.347   7.561
  128SBC   C05390029   5.978  10.247   7.615
  128SBC   C04O90030   6.034  10.156   7.709
  128SBC   C03C90031   5.968  10.054   7.785
  128SBC   C03B90032   5.840   9.982   7.776
  128SBC   C05490033   5.750  10.005   7.672
  128SBC   C0GR90034   5.632   9.930   7.652
  128SBC   C03M90035   5.583   9.800   7.706
  128SBC   C03I90036   5.652   9.710   7.789
  128SBC   C03J90037   5.594   9.579   7.816
  128SBC   N00290038   5.665   9.478   7.888
  128SBC   C02U90039   5.606   9.351   7.923
  128SBC   C02T90040   5.674   9.258   8.001
  128SBC   C02Z90041   5.614   9.143   8.040
  128SBC   N00190042   5.680   9.045   8.117
  128SBC   C02R90043   5.606   8.942   8.175
  128SBC   C03290044   5.475   8.915   8.136
  128SBC   C03190045   5.417   9.010   8.053
  128SBC   H00790046   5.311   8.999   8.037
  128SBC   C03390047   5.410   8.800   8.192
  128SBC   H00390048   5.310   8.767   8.168
  128SBC   O00490049   5.472   8.717   8.284
  128SBC   C03490050   5.600   8.740   8.312
  128SBC   C03590051   5.663   8.644   8.401
  128SBC   C03690052   5.800   8.664   8.423
  128SBC   H00590053   5.855   8.607   8.496
  128SBC   C03790054   5.872   8.770   8.370
  128SBC   H00690055   5.975   8.766   8.401
  128SBC   C00D90056   5.811   8.856   8.278
  128SBC   C00C90057   5.886   8.951   8.210
  128SBC   C00B90058   6.036   8.955   8.212
  128SBC   C00A90059   6.158   8.901   8.287
  128SBC   C00990060   6.250   9.011   8.283
  128SBC   C00890061   6.385   9.021   8.331
  128SBC   C00790062   6.450   8.902   8.357
  128SBC   C00690063   6.588   8.906   8.385
  128SBC   C00590064   6.656   8.785   8.393
  128SBC   C00490065   6.590   8.662   8.374
  128SBC   C00390066   6.450   8.654   8.347
  128SBC   C00290067   6.387   8.532   8.329
  128SBC   C01C90068   6.456   8.416   8.352
  128SBC   C01B90069   6.388   8.291   8.375
  128SBC   H00090070   6.282   8.285   8.397
  128SBC   C00190071   6.259   8.527   8.275
  128SBC   C00090072   6.193   8.649   8.257
  128SBC   C01U90073   6.081   8.612   8.179
  128SBC   H00290074   6.002   8.676   8.142
  128SBC   C01T90075   6.074   8.465   8.177
  128SBC   O00290076   5.982   8.385   8.148
  128SBC   O00190077   6.188   8.419   8.233
  128SBC   C01S90078   6.380   8.777   8.330
  128SBC   C00N90079   6.442   9.147   8.323
  128SBC   C00M90080   6.379   9.253   8.266
  128SBC   C00J90081   6.260   9.240   8.209
  128SBC   C00I90082   6.188   9.337   8.155
  128SBC   C00H90083   6.062   9.318   8.106
  128SBC   C00G90084   6.006   9.193   8.116
  128SBC   C00F90085   5.874   9.175   8.093
  128SBC   C01X90086   5.985   9.422   8.055
  128SBC   C01W90087   6.048   9.544   8.039
  128SBC   C01V90088   6.173   9.564   8.091
  128SBC   C02090089   6.235   9.687   8.069
  128SBC   C01Z90090   5.978   9.643   7.974
  128SBC   C02Y90091   6.040   9.759   7.963
  128SBC   C03990092   5.975   9.867   7.911
  128SBC   C02W90093   5.847   9.627   7.914
  128SBC   C01Y90094   5.860   9.399   8.004
  128SBC   C00U90095   6.247   9.459   8.149
  128SBC   C00S90096   6.373   9.487   8.197
  128SBC   C00T90097   6.436   9.606   8.169
  128SBC   C00R90098   6.444   9.377   8.252
  128SBC   C00Q90099   6.572   9.392   8.288
  128SBC   C00V90100   6.636   9.515   8.269
  128SBC   C02490101   6.773   9.520   8.288
  128SBC   C00X90102   6.838   9.412   8.335
  128SBC   C00P90103   6.637   9.286   8.349
  128SBC   C00O90104   6.575   9.157   8.361
  128SBC   C00K90105   6.203   9.113   8.201
  128SBC   N00090106   6.240   8.780   8.286
  128SBC   C00L90107   6.079   9.080   8.160
  128SBC   H00490108   5.608   8.566   8.452
  128SBC   C02Q90109   5.673   8.846   8.254
  128SBC   C00E90110   5.818   9.055   8.137
  128SBC   C03090111   5.478   9.121   8.000
  128SBC   O00390112   5.421   9.206   7.907
  128SBC   C02S90113   5.806   9.279   8.035
  128SBC   C03890114   5.473   9.332   7.884
  128SBC   C03L90115   5.403   9.427   7.813
  128SBC   H00890116   5.300   9.400   7.796
  128SBC   C02V90117   5.791   9.501   7.932
  128SBC   C03K90118   5.461   9.554   7.781
  128SBC   C0BK90119   5.393   9.656   7.716
  128SBC   H00T90120   5.290   9.647   7.682
  128SBC   C03H90121   5.779   9.731   7.844
  128SBC   C0BL90122   5.448   9.773   7.671
  128SBC   C0GU90123   5.383   9.855   7.579
  128SBC   H01O90124   5.286   9.826   7.541
  128SBC   C0GT90125   5.423   9.975   7.532
  128SBC   H01P90126   5.361  10.034   7.466
  128SBC   C0GS90127   5.549  10.015   7.573
  128SBC   C0GV90128   5.623  10.133   7.539
  128SBC   C0GW90129   5.578  10.246   7.459
  128SBC   H01Q90130   5.475  10.250   7.427
  128SBC   C0GX90131   5.668  10.341   7.442
  128SBC   H01R90132   5.646  10.422   7.374
  128SBC   O00L90133   5.801  10.344   7.493
  128SBC   C0GQ90134   5.749  10.127   7.592
  128SBC   C03A90135   5.856   9.858   7.839
  128SBC   C05L90136   5.845  10.240   7.567
  128SBC   C04W90137   6.403  10.463   7.521
  128SBC   C05I90138   6.481  10.557   7.454
  128SBC   C05O90139   6.430  10.636   7.355
  128SBC   C05290140   6.618  10.569   7.483
  128SBC   C04V90141   6.471  10.386   7.621
  128SBC   C04U90142   6.604  10.399   7.652
  128SBC   N00990143   6.294  10.625   7.323
  128SBC   C0GP90144   6.506  10.732   7.295
  128SBC   C05W90145   6.641  10.737   7.315
  128SBC   C07D90146   6.919  10.941   7.201
  128SBC   C06J90147   7.047  10.785   7.406
  128SBC   C05P90148   6.701  10.660   7.412
  128SBC   C05R90149   7.028  10.619   7.575
  128SBC   C04Z90150   6.683  10.489   7.580
  128SBC   C04C90151   7.014  10.435   7.729
  128SBC   C04G90152   7.003  10.241   7.880
  128SBC   C04J90153   6.856  10.036   7.993
  128SBC   C04T90154   6.665  10.320   7.753
  128SBC   N00390155   6.398  10.286   7.689
  128SBC   C04P90156   6.175  10.170   7.728
  128SBC   C03D90157   6.045   9.980   7.869
  128SBC   C02190158   6.169   9.781   8.001
  128SBC   C03F90159   6.447  10.012   7.916
  128SBC   C02290160   6.372   9.704   8.096
  128SBC   C02A90161   6.653   9.927   8.022
  128SBC   C02390162   6.574   9.618   8.197
  128SBC   C02590163   6.849   9.624   8.230
  128SBC   C02D90164   6.985   9.617   8.232
  128SBC   C02E90165   7.056   9.512   8.298
  128SBC   C02N90166   7.190   9.497   8.284
  128SBC   C04N90167   6.788   9.930   8.037
  128SBC   C02P90168   7.060   9.723   8.186
  128SBC   C04I90169   6.992  10.035   8.010
  128SBC   C04490170   7.273  10.033   8.019
  128SBC   C04390171   7.201   9.716   8.188
  128SBC   C05N90172   7.269   9.600   8.226
  128SBC   C09U90173   7.690   9.588   8.198
  128SBC   C09V90174   7.824   9.576   8.165
  128SBC   C09X90175   7.901   9.474   8.206
  128SBC   C09Y90176   8.032   9.442   8.169
  128SBC   C0A190177   8.090   9.528   8.082
  128SBC   C0A290178   8.024   9.645   8.049
  128SBC   C0A490179   8.083   9.738   7.968
  128SBC   C07190180   8.017   9.857   7.936
  128SBC   C0A590181   8.081   9.948   7.858
  128SBC   C0A990182   8.207   9.917   7.803
  128SBC   C0A890183   8.264   9.797   7.836
  128SBC   C0AP90184   8.389   9.762   7.781
  128SBC   C0BY90185   8.439   9.640   7.805
  128SBC   C0BX90186   8.383   9.542   7.875
  128SBC   C0C290187   8.443   9.419   7.897
  128SBC   C0C390188   8.383   9.328   7.985
  128SBC   C0CT90189   8.271   9.369   8.050
  128SBC   C0C190190   8.560   9.384   7.821
  128SBC   C0C090191   8.624   9.488   7.739
  128SBC   C0A790192   8.270   9.585   7.941
  128SBC   C0BZ90193   8.564   9.614   7.742
  128SBC   C0BO90194   8.633   9.706   7.671
  128SBC   C0BN90195   8.571   9.828   7.645
  128SBC   C0BM90196   8.640   9.909   7.554
  128SBC   C0B990197   8.580  10.031   7.524
  128SBC   C0B890198   8.460  10.067   7.579
  128SBC   C0AD90199   8.399   9.976   7.670
  128SBC   C0AF90200   8.405  10.185   7.548
  128SBC   C0AG90201   8.464  10.278   7.464
  128SBC   C0B790202   8.592  10.243   7.413
  128SBC   C0AE90203   8.290  10.212   7.609
  128SBC   C0AB90204   8.219  10.126   7.692
  128SBC   C0AA90205   8.091  10.158   7.750
  128SBC   C0AJ90206   8.229  10.337   7.589
  128SBC   C0AK90207   8.115  10.366   7.656
  128SBC   C06W90208   8.086  10.492   7.615
  128SBC   C0AI90209   8.283  10.442   7.511
  128SBC   C0BP90210   8.743   9.653   7.605
  128SBC   C0BQ90211   8.824   9.747   7.529
  128SBC   C0BW90212   8.453   9.856   7.701
  128SBC   C0AC90213   8.277  10.009   7.719
  128SBC   C0A690214   8.206   9.704   7.915
  128SBC   C0A390215   8.208   9.489   8.024
  128SBC   C09Z90216   8.099   9.330   8.214
  128SBC   C09W90217   7.891   9.667   8.084
  128SBC   C07290218   7.817   9.780   8.050
  128SBC   C09H90219   7.847   9.404   8.312
  128SBC   C09G90220   7.919   9.295   8.357
  128SBC   C09P90221   7.824   9.218   8.428
  128SBC   C02O90222   7.447   9.243   8.378
  128SBC   C02M90223   7.256   9.381   8.333
  128SBC   C02F90224   6.978   9.413   8.348
  128SBC   C00W90225   6.763   9.305   8.373
  128SBC   C01R90226   6.640   9.042   8.400
  128SBC   C01N90227   6.996   9.079   8.465
  128SBC   C01L90228   7.143   8.894   8.445
  128SBC   C01H90229   7.094   8.535   8.439
  128SBC   C01K90230   6.796   8.771   8.415
  128SBC   C01E90231   6.660   8.543   8.385
  128SBC   C01G90232   7.022   8.409   8.419
  128SBC   C01D90233   6.594   8.420   8.374
  128SBC   C01A90234   6.462   8.172   8.371
  128SBC   H00190235   6.410   8.077   8.367
  128SBC   C01F90236   6.874   8.176   8.361
  128SBC   C03P90237   6.996   7.916   8.344
  128SBC   C03T90238   7.211   8.020   8.367
  128SBC   C08I90239   7.493   8.025   8.395
  128SBC   C08J90240   7.633   8.039   8.403
  128SBC   C08L90241   7.836   8.174   8.420
  128SBC   C09390242   8.039   8.330   8.409
  128SBC   C08Z90243   7.861   8.543   8.451
  128SBC   C09T90244   8.288   8.718   8.363
  128SBC   C09S90245   7.976   8.823   8.501
  128SBC   C09Q90246   7.871   9.088   8.466
  128SBC   C09F90247   8.047   9.255   8.311
  128SBC   C09E90248   8.246   8.956   8.342
  128SBC   C0A090249   8.217   9.288   8.151
  128SBC   C0CU90250   8.444   9.206   8.010
  128SBC   C0CR90251   8.558   9.171   7.934
  128SBC   C0CZ90252   8.628   9.054   7.962
  128SBC   C0DA90253   8.335   8.849   8.306
  128SBC   C0D990254   8.677   8.796   8.324
  128SBC   H00V90255   8.661   8.802   8.430
  128SBC   C0CY90256   8.574   8.964   8.062
  128SBC   C0DF90257   8.803   8.802   8.255
  128SBC   C0DE90258   8.947   8.829   8.259
  128SBC   C0GI90259   9.055   8.803   8.349
  128SBC   H01K90260   9.017   8.767   8.444
  128SBC   C0GJ90261   9.180   8.820   8.309
  128SBC   H01J90262   9.252   8.802   8.388
  128SBC   O00I90263   9.216   8.857   8.179
  128SBC   C0GH90264   9.125   8.888   8.089
  128SBC   C0GG90265   9.184   8.950   7.970
  128SBC   O00G90266   9.323   8.954   7.965
  128SBC   C0G890267   9.385   9.009   7.854
  128SBC   C0G990268   9.520   8.976   7.833
  128SBC   H01G90269   9.574   8.918   7.906
  128SBC   C0GA90270   9.577   9.004   7.710
  128SBC   H01H90271   9.672   8.958   7.686
  128SBC   C0GB90272   9.517   9.080   7.614
  128SBC   C0EP90273   9.393   9.138   7.653
  128SBC   C0E890274   9.350   9.254   7.581
  128SBC   C0CK90275   9.239   9.342   7.595
  128SBC   C0CL90276   9.113   9.283   7.606
  128SBC   C0E990277   9.099   9.166   7.682
  128SBC   C0GE90278   9.180   9.083   7.767
  128SBC   C0E790279   9.397   9.279   7.456
  128SBC   C0CJ90280   9.337   9.383   7.386
  128SBC   C0E690281   9.366   9.401   7.252
  128SBC   H00Y90282   9.326   9.481   7.191
  128SBC   C0EO90283   9.468   9.325   7.198
  128SBC   H01190284   9.496   9.355   7.098
  128SBC   C0G690285   9.546   9.230   7.279
  128SBC   C0G590286   9.668   9.168   7.236
  128SBC   H01F90287   9.705   9.196   7.138
  128SBC   C0GD90288   9.726   9.074   7.316
  128SBC   H01I90289   9.822   9.037   7.285
  128SBC   O00H90290   9.685   9.040   7.441
  128SBC   C0EQ90291   9.506   9.198   7.408
  128SBC   C0GC90292   9.575   9.107   7.488
  128SBC   C0G790293   9.317   9.090   7.761
  128SBC   C0DD90294   8.984   8.868   8.122
  128SBC   C0GF90295   9.113   9.003   7.865
  128SBC   C0CO90296   8.968   9.138   7.660
  128SBC   C0D090297   8.743   9.020   7.887
  128SBC   C0C490298   8.609   9.256   7.825
  128SBC   C0CN90299   8.903   9.232   7.578
  128SBC   C0CP90300   8.738   9.513   7.649
  128SBC   C0CM90301   8.998   9.323   7.536
  128SBC   C0CI90302   9.240   9.440   7.485
  128SBC   C0CD90303   9.225   9.886   7.293
  128SBC   C0BR90304   8.953   9.708   7.486
  128SBC   C0CS90305   8.761   9.871   7.505
  128SBC   C0B690306   8.651  10.121   7.445
  128SBC   C0CG90307   9.031  10.028   7.305
  128SBC   C0CF90308   9.162  10.002   7.264
  128SBC   C0E590309   9.423   9.952   7.165
  128SBC   C0DT90310   9.559  10.142   7.031
  128SBC   C0DL90311   9.250  10.323   7.107
  128SBC   C0DM90312   9.192  10.448   7.074
  128SBC   C0DY90313   9.397  10.522   6.965
  128SBC   C0DU90314   9.628  10.244   6.972
  128SBC   C0F090315   9.816  10.291   6.822
  128SBC   C0F490316   9.892  10.425   6.595
  128SBC   C0FG90317   9.662  10.662   6.753
  128SBC   O00B90318   9.841  10.612   6.448
  128SBC   C0FN90319   9.598  10.759   6.685
  128SBC   C0DZ90320   9.464  10.609   6.876
  128SBC   O00C90321   9.193  10.847   6.811
  128SBC   C0FR90322   9.076  10.896   6.859
  128SBC   O00D90323   9.042  11.002   6.814
  128SBC   C0E090324   9.266  10.540   7.001
  128SBC   C0E390325   9.005  10.806   6.956
  128SBC   C0AW90326   8.875  10.837   7.002
  128SBC   C0AV90327   8.808  10.965   6.983
  128SBC   H00Q90328   8.856  11.041   6.923
  128SBC   C0AU90329   8.689  10.983   7.052
  128SBC   H00R90330   8.650  11.084   7.048
  128SBC   C0AT90331   8.625  10.877   7.116
  128SBC   C0AS90332   8.508  10.858   7.205
  128SBC   C0AR90333   8.428  10.968   7.233
  128SBC   C0BE90334   8.689  10.755   7.118
  128SBC   C0DN90335   9.057  10.465   7.105
  128SBC   C0AX90336   8.821  10.735   7.078
  128SBC   C0BB90337   8.852  10.392   7.211
  128SBC   C0BD90338   8.611  10.664   7.193
  128SBC   C0B290339   8.656  10.332   7.331
  128SBC   C0AH90340   8.408  10.404   7.438
  128SBC   C0BF90341   8.491  10.716   7.246
  128SBC   C0AL90342   8.193  10.550   7.529
  128SBC   C07U90343   8.230  10.833   7.326
  128SBC   C0AQ90344   8.292  10.945   7.264
  128SBC   C0BG90345   8.443  11.114   7.200
  128SBC   C0FY90346   8.203  11.365   7.296
  128SBC   C0BJ90347   8.524  11.212   7.272
  128SBC   H00S90348   8.623  11.205   7.313
  128SBC   C0FZ90349   8.272  11.456   7.381
  128SBC   C07S90350   8.074  11.325   7.327
  128SBC   C0G190351   7.992  11.604   7.568
  128SBC   C07K90352   7.652  11.465   7.529
  128SBC   C07H90353   7.809  11.259   7.416
  128SBC   C06B90354   7.511  11.120   7.283
  128SBC   C06N90355   7.523  10.927   7.408
  128SBC   C06690356   7.893  11.011   7.396
  128SBC   C06290357   7.921  10.737   7.521
  128SBC   C05Y90358   7.532  10.723   7.560
  128SBC   C06190359   7.905  10.670   7.645
  128SBC   C05H90360   7.625  10.466   7.754
  128SBC   C06V90361   7.959  10.539   7.665
  128SBC   C06Y90362   8.032  10.279   7.730
  128SBC   C05C90363   7.692  10.229   7.867
  128SBC   C06Z90364   8.020  10.063   7.826
  128SBC   C07090365   7.882   9.879   7.974
  128SBC   C05B90366   7.614  10.121   7.922
  128SBC   C05790367   7.475   9.918   8.055
  128SBC   C05990368   7.680   9.795   8.079
  129SBC   C05890369  12.511   2.168  15.220
  129SBC   C05A90370  12.462   2.254  15.319
  129SBC   C06Q90371  12.511   2.382  15.332
  129SBC   C06R90372  12.459   2.469  15.431
  129SBC   C06S90373  12.366   2.425  15.528
  129SBC   C06T90374  12.317   2.519  15.617
  129SBC   C06U90375  12.201   2.511  15.712
  129SBC   C06X90376  12.121   2.407  15.759
  129SBC   C06090377  12.013   2.457  15.840
  129SBC   C05Z90378  11.951   2.398  15.952
  129SBC   C06890379  11.957   2.508  16.059
  129SBC   C06790380  11.919   2.489  16.204
  129SBC   C06990381  11.831   2.375  16.243
  129SBC   C06A90382  11.774   2.341  16.369
  129SBC   C07390383  11.822   2.369  16.501
  129SBC   C07P90384  11.802   2.257  16.585
  129SBC   C07O90385  11.791   2.120  16.548
  129SBC   H00D90386  11.787   2.088  16.445
  129SBC   C07N90387  11.778   2.026  16.646
  129SBC   H00E90388  11.787   1.923  16.614
  129SBC   C07M90389  11.776   2.050  16.784
  129SBC   H00F90390  11.764   1.974  16.860
  129SBC   C07L90391  11.765   2.190  16.816
  129SBC   C07Q90392  11.732   2.237  16.949
  129SBC   H00G90393  11.692   2.163  17.017
  129SBC   O00F90394  11.738   2.369  16.988
  129SBC   C07J90395  11.784   2.461  16.895
  129SBC   C07I90396  11.810   2.420  16.764
  129SBC   N00490397  11.863   2.518  16.671
  129SBC   C07R90398  11.894   2.647  16.728
  129SBC   C07T90399  11.850   2.684  16.855
  129SBC   C0FX90400  11.843   2.817  16.893
  129SBC   C0FW90401  11.783   2.868  17.001
  129SBC   C0G090402  11.731   2.772  17.089
  129SBC   C0G290403  11.674   2.812  17.212
  129SBC   H01E90404  11.652   2.737  17.285
  129SBC   C0G390405  11.659   2.945  17.237
  129SBC   H01C90406  11.604   2.979  17.324
  129SBC   C0G490407  11.699   3.042  17.148
  129SBC   H01D90408  11.680   3.144  17.179
  129SBC   O00E90409  11.735   2.633  17.061
  129SBC   C0FV90410  11.774   3.009  17.032
  129SBC   C0FU90411  11.826   3.100  16.934
  129SBC   H01B90412  11.825   3.208  16.935
  129SBC   C0FT90413  11.901   3.045  16.828
  129SBC   C0FS90414  11.957   3.090  16.703
  129SBC   C0BI90415  12.047   2.979  16.658
  129SBC   C0BH90416  12.089   3.011  16.527
  129SBC   C07F90417  12.041   2.934  16.417
  129SBC   C07E90418  12.002   2.798  16.406
  129SBC   C07G90419  11.959   2.716  16.504
  129SBC   C07490420  11.923   2.597  16.447
  129SBC   C06590421  11.981   2.740  16.283
  129SBC   C06490422  12.018   2.816  16.166
  129SBC   C06390423  12.035   2.770  16.037
  129SBC   C07590424  12.106   2.884  15.970
  129SBC   C0AM90425  12.117   3.002  16.058
  129SBC   C0AN90426  12.183   3.129  16.031
  129SBC   C0AO90427  12.271   3.172  15.920
  129SBC   C0B190428  12.317   3.307  15.904
  129SBC   C0B090429  12.261   3.407  15.986
  129SBC   C0AZ90430  12.286   3.540  15.974
  129SBC   C0AY90431  12.234   3.629  16.070
  129SBC   N00790432  12.274   3.761  16.069
  129SBC   C0E290433  12.217   3.850  16.167
  129SBC   C0E190434  12.261   3.977  16.169
  129SBC   C0E490435  12.209   4.069  16.262
  129SBC   C0FF90436  12.258   4.202  16.275
  129SBC   C0FJ90437  12.218   4.323  16.343
  129SBC   C0FK90438  12.086   4.369  16.378
  129SBC   H01690439  11.997   4.308  16.379
  129SBC   C0FL90440  12.087   4.513  16.393
  129SBC   H01790441  12.004   4.581  16.401
  129SBC   C0FM90442  12.228   4.553  16.372
  129SBC   C0FH90443  12.313   4.662  16.311
  129SBC   C0FI90444  12.425   4.585  16.264
  129SBC   C0F390445  12.501   4.637  16.153
  129SBC   C0F290446  12.541   4.537  16.071
  129SBC   C0DW90447  12.519   4.401  16.081
  129SBC   C0FE90448  12.443   4.348  16.186
  129SBC   C0DV90449  12.535   4.321  15.972
  129SBC   C0DX90450  12.489   4.193  15.980
  129SBC   C0DK90451  12.519   4.116  15.869
  129SBC   C0DJ90452  12.579   4.164  15.755
  129SBC   C0DI90453  12.606   4.082  15.650
  129SBC   C0DH90454  12.585   3.945  15.657
  129SBC   C0DG90455  12.519   3.897  15.767
  129SBC   C0BV90456  12.483   3.763  15.772
  129SBC   C0BC90457  12.410   3.715  15.871
  129SBC   C0BA90458  12.527   3.681  15.672
  129SBC   C0B490459  12.500   3.544  15.680
  129SBC   C0B390460  12.429   3.493  15.786
  129SBC   C0B590461  12.557   3.454  15.584
  129SBC   C0BU90462  12.624   3.504  15.475
  129SBC   C0BT90463  12.632   3.643  15.457
  129SBC   C0BS90464  12.672   3.697  15.334
  129SBC   C0CC90465  12.697   3.836  15.328
  129SBC   C0CB90466  12.734   3.890  15.204
  129SBC   C0CH90467  12.789   4.018  15.212
  129SBC   C0DO90468  12.766   4.108  15.321
  129SBC   C0DP90469  12.778   4.246  15.302
  129SBC   C0EA90470  12.813   4.306  15.178
  129SBC   H01290471  12.838   4.245  15.093
  129SBC   O00990472  12.817   4.441  15.153
  129SBC   C0EH90473  12.794   4.521  15.259
  129SBC   C0EG90474  12.822   4.662  15.241
  129SBC   C0EJ90475  12.872   4.740  15.131
  129SBC   H01090476  12.904   4.694  15.039
  129SBC   C0EK90477  12.870   4.878  15.174
  129SBC   H00Z90478  12.895   4.965  15.115
  129SBC   C0EL90479  12.815   4.879  15.310
  129SBC   C0EM90480  12.781   4.986  15.403
  129SBC   C0EW90481  12.805   5.124  15.393
  129SBC   H01390482  12.843   5.161  15.299
  129SBC   C0EX90483  12.779   5.212  15.510
  129SBC   H01490484  12.821   5.312  15.515
  129SBC   C0F190485  12.719   5.160  15.627
  129SBC   C0EU90486  12.686   5.020  15.629
  129SBC   C0ET90487  12.633   4.948  15.741
  129SBC   C0ES90488  12.636   4.808  15.694
  129SBC   C0EE90489  12.686   4.806  15.561
  129SBC   C0ED90490  12.736   4.704  15.472
  129SBC   C0EC90491  12.727   4.559  15.496
  129SBC   C0EB90492  12.684   4.497  15.617
  129SBC   C0EN90493  12.659   4.573  15.737
  129SBC   C0ER90494  12.630   4.500  15.855
  129SBC   C0DS90495  12.670   4.356  15.628
  129SBC   C0DR90496  12.694   4.274  15.523
  129SBC   C0EY90497  12.649   4.713  15.780
  129SBC   C0EZ90498  12.603   4.722  15.916
  129SBC   C0F590499  12.538   4.820  16.001
  129SBC   C0F690500  12.534   4.957  15.970
  129SBC   N00890501  12.462   5.041  16.064
  129SBC   C0F790502  12.375   4.987  16.165
  129SBC   C0FQ90503  12.300   5.074  16.237
  129SBC   H01890504  12.233   5.043  16.316
  129SBC   C0FP90505  12.318   5.209  16.240
  129SBC   H01990506  12.256   5.261  16.311
  129SBC   C0FO90507  12.401   5.263  16.146
  129SBC   H01A90508  12.421   5.369  16.148
  129SBC   C0F890509  12.385   4.845  16.183
  129SBC   C0F990510  12.463   5.183  16.045
  129SBC   C0FA90511  12.534   5.247  15.943
  129SBC   H01590512  12.533   5.355  15.942
  129SBC   C0FB90513  12.600   5.166  15.843
  129SBC   C0FD90514  12.593   5.024  15.859
  129SBC   C0FC90515  12.675   5.236  15.739
  129SBC   O00A90516  12.694   5.358  15.750
  129SBC   C0EV90517  12.718   4.937  15.524
  129SBC   C0EF90518  12.789   4.741  15.348
  129SBC   C0EI90519  12.755   4.471  15.387
  129SBC   C0DQ90520  12.740   4.330  15.405
  129SBC   C0CE90521  12.703   4.053  15.432
  129SBC   H00U90522  12.840   4.055  15.125
  129SBC   C0CA90523  12.713   3.814  15.084
  129SBC   C0C990524  12.714   3.670  15.094
  129SBC   C0C890525  12.686   3.583  14.983
  129SBC   C0C790526  12.718   3.444  14.951
  129SBC   C0C690527  12.672   3.406  14.821
  129SBC   C0C590528  12.715   3.313  14.723
  129SBC   C0CQ90529  12.687   3.350  14.591
  129SBC   C0D190530  12.649   3.476  14.556
  129SBC   C0D890531  12.705   3.511  14.441
  129SBC   C0D790532  12.730   3.386  14.373
  129SBC   C0D690533  12.781   3.372  14.246
  129SBC   C0D590534  12.808   3.244  14.189
  129SBC   C0D490535  12.820   3.109  14.243
  129SBC   C0D390536  12.926   3.041  14.179
  129SBC   C0CX90537  12.977   2.937  14.267
  129SBC   C0CW90538  12.928   2.964  14.399
  129SBC   C0CV90539  12.924   2.907  14.532
  129SBC   C0D290540  12.956   2.767  14.556
  129SBC   C09D90541  13.023   2.674  14.466
  129SBC   C09C90542  13.023   2.533  14.492
  129SBC   C09B90543  13.064   2.432  14.403
  129SBC   C09A90544  13.107   2.480  14.278
  129SBC   C09990545  13.130   2.609  14.252
  129SBC   C09890546  13.133   2.628  14.113
  129SBC   C08Y90547  13.106   2.502  14.042
  129SBC   C08X90548  13.070   2.470  13.908
  129SBC   C08W90549  13.056   2.577  13.810
  129SBC   C08U90550  13.049   2.724  13.829
  129SBC   C08V90551  13.043   2.801  13.949
  129SBC   C0DC90552  13.075   2.931  13.901
  129SBC   H00W90553  13.099   3.005  13.976
  129SBC   C0DB90554  13.059   2.943  13.757
  129SBC   H00X90555  13.078   3.028  13.693
  129SBC   C08T90556  13.043   2.811  13.717
  129SBC   C08S90557  13.043   2.769  13.590
  129SBC   H00N90558  13.034   2.846  13.516
  129SBC   C08R90559  13.039   2.631  13.562
  129SBC   C08Q90560  13.028   2.583  13.431
  129SBC   H00O90561  13.034   2.656  13.352
  129SBC   C08P90562  13.013   2.453  13.390
  129SBC   C08O90563  13.007   2.405  13.249
  129SBC   H00P90564  13.007   2.473  13.165
  129SBC   C08N90565  12.984   2.270  13.224
  129SBC   C08M90566  12.973   2.232  13.087
  129SBC   O00890567  12.990   2.303  12.987
  129SBC   O00790568  12.944   2.099  13.069
  129SBC   C08H90569  12.922   2.013  13.169
  129SBC   C08G90570  12.864   1.888  13.149
  129SBC   C03V90571  12.818   1.827  13.030
  129SBC   H00990572  12.835   1.887  12.942
  129SBC   C03U90573  12.758   1.700  13.017
  129SBC   C03W90574  12.720   1.636  12.894
  129SBC   H00A90575  12.739   1.688  12.801
  129SBC   C03X90576  12.678   1.508  12.891
  129SBC   H00B90577  12.648   1.454  12.802
  129SBC   O00590578  12.655   1.439  13.008
  129SBC   C03O90579  12.680   1.501  13.129
  129SBC   C03N90580  12.643   1.438  13.249
  129SBC   O00090581  12.581   1.320  13.234
  129SBC   C01990582  12.539   1.256  13.345
  129SBC   C01890583  12.563   1.305  13.477
  129SBC   C01790584  12.628   1.430  13.487
  129SBC   C01690585  12.647   1.487  13.615
  129SBC   C01590586  12.596   1.409  13.721
  129SBC   C01490587  12.620   1.457  13.851
  129SBC   C01390588  12.695   1.576  13.881
  129SBC   C01290589  12.692   1.576  14.029
  129SBC   C01190590  12.622   1.461  14.067
  129SBC   C01090591  12.602   1.434  14.197
  129SBC   C00Z90592  12.519   1.343  14.252
  129SBC   C00Y90593  12.516   1.382  14.389
  129SBC   C01O90594  12.608   1.484  14.420
  129SBC   C01P90595  12.571   1.579  14.518
  129SBC   C02L90596  12.638   1.701  14.515
  129SBC   C02K90597  12.703   1.728  14.395
  129SBC   C01M90598  12.698   1.648  14.271
  129SBC   C02J90599  12.775   1.851  14.407
  129SBC   C02I90600  12.851   1.907  14.309
  129SBC   C02H90601  12.862   1.875  14.175
  129SBC   C01Q90602  12.811   1.774  14.093
  129SBC   C02G90603  12.843   1.803  13.956
  129SBC   C08990604  12.940   1.906  13.962
  129SBC   C08890605  12.953   1.971  13.839
  129SBC   C08790606  12.885   1.881  13.751
  129SBC   C08690607  12.891   1.887  13.608
  129SBC   C03S90608  12.841   1.797  13.508
  129SBC   N00690609  12.865   1.856  13.386
  129SBC   C08F90610  12.926   1.969  13.401
  129SBC   C01J90611  12.772   1.671  13.508
  129SBC   C03R90612  12.740   1.617  13.384
  129SBC   C03Q90613  12.773   1.682  13.259
  129SBC   C08E90614  12.936   1.999  13.535
  129SBC   C08D90615  12.982   2.131  13.574
  129SBC   C08K90616  12.989   2.224  13.469
  129SBC   C08C90617  13.003   2.179  13.704
  129SBC   C09190618  13.028   2.310  13.729
  129SBC   C09290619  13.027   2.409  13.628
  129SBC   C08B90620  13.009   2.106  13.824
  129SBC   C09090621  13.039   2.204  13.925
  129SBC   C09490622  13.066   2.181  14.068
  129SBC   C09590623  13.076   2.279  14.168
  129SBC   C09R90624  13.050   2.223  14.297
  129SBC   C09790625  12.994   2.098  14.277
  129SBC   C09690626  13.002   2.074  14.139
  129SBC   C01I90627  12.821   1.767  13.819
  129SBC   C08A90628  12.944   1.955  14.093
  129SBC   C09L90629  12.913   2.020  14.363
  129SBC   C09K90630  12.875   2.032  14.500
  129SBC   C09J90631  12.927   2.128  14.592
  129SBC   C09I90632  12.870   2.154  14.722
  129SBC   C09O90633  12.765   2.096  14.811
  129SBC   C09N90634  12.696   1.975  14.778
  129SBC   C09M90635  12.707   1.895  14.650
  129SBC   C06O90636  12.600   1.933  14.876
  129SBC   C05M90637  12.580   2.007  14.995
  129SBC   C06P90638  12.649   2.126  15.021
  129SBC   C04290639  12.476   1.969  15.081
  129SBC   C04190640  12.396   1.856  15.058
  129SBC   C04090641  12.295   1.812  15.147
  129SBC   C03Z90642  12.213   1.700  15.126
  129SBC   C03Y90643  12.242   1.623  15.013
  129SBC   C02790644  12.153   1.519  14.987
  129SBC   C02690645  12.175   1.439  14.874
  129SBC   C02890646  12.087   1.335  14.837
  129SBC   C02990647  11.979   1.309  14.921
  129SBC   C02B90648  11.890   1.209  14.882
  129SBC   C02C90649  11.785   1.180  14.961
  129SBC   C02X90650  11.690   1.090  14.914
  129SBC   C03E90651  11.579   1.072  14.992
  129SBC   C03G90652  11.547   1.137  15.103
  129SBC   C04Q90653  11.639   1.231  15.151
  129SBC   C04R90654  11.611   1.313  15.255
  129SBC   C04S90655  11.699   1.409  15.295
  129SBC   C04L90656  11.820   1.431  15.224
  129SBC   C04M90657  11.849   1.353  15.113
  129SBC   C04K90658  11.905   1.540  15.258
  129SBC   C04F90659  11.868   1.631  15.356
  129SBC   C04E90660  11.752   1.609  15.426
  129SBC   C04D90661  11.715   1.694  15.529
  129SBC   C05090662  11.597   1.678  15.592
  129SBC   C05190663  11.568   1.763  15.698
  129SBC   C05Q90664  11.448   1.749  15.765
  129SBC   C05V90665  11.422   1.833  15.874
  129SBC   N00590666  11.296   1.819  15.933
  129SBC   C07V90667  11.204   1.728  15.886
  129SBC   C08290668  11.080   1.722  15.953
  129SBC   C08190669  11.044   1.794  16.069
  129SBC   C07C90670  11.141   1.887  16.113
  129SBC   C07B90671  11.117   1.961  16.231
  129SBC   C08090672  10.996   1.945  16.298
  129SBC   C07Z90673  10.978   2.012  16.421
  129SBC   H00L90674  10.887   1.987  16.473
  129SBC   C07990675  11.069   2.107  16.467
  129SBC   C07890676  11.190   2.124  16.395
  129SBC   C07790677  11.295   2.207  16.443
  129SBC   C07X90678  11.270   2.286  16.561
  129SBC   H00I90679  11.343   2.354  16.601
  129SBC   C07Y90680  11.160   2.269  16.635
  129SBC   H00H90681  11.140   2.322  16.727
  129SBC   C07690682  11.413   2.216  16.372
  129SBC   C06C90683  11.527   2.290  16.427
  129SBC   H00C90684  11.530   2.325  16.529
  129SBC   C06F90685  11.431   2.145  16.253
  129SBC   C06E90686  11.542   2.166  16.176
  129SBC   C06G90687  11.570   2.107  16.058
  129SBC   C06H90688  11.478   2.008  16.017
  129SBC   C06I90689  11.361   1.988  16.090
  129SBC   C06L90690  11.692   2.130  15.989
  129SBC   C06M90691  11.787   2.226  16.033
  129SBC   C06K90692  11.726   2.043  15.886
  129SBC   C05S90693  11.632   1.947  15.842
  129SBC   C05U90694  11.843   2.063  15.807
  129SBC   C05X90695  11.931   2.173  15.838
  129SBC   C05G90696  12.040   2.184  15.751
  129SBC   C05F90697  12.072   2.080  15.663
  129SBC   C05E90698  12.178   2.110  15.587
  129SBC   C04890699  12.212   2.037  15.475
  129SBC   C05690700  12.313   2.083  15.394
  129SBC   C04590701  12.344   2.003  15.286
  129SBC   C04790702  12.130   1.929  15.455
  129SBC   C04990703  12.016   1.899  15.534
  129SBC   C04B90704  11.925   1.802  15.501
  129SBC   C04690705  12.164   1.853  15.346
  129SBC   C04H90706  12.073   1.749  15.315
  129SBC   C05D90707  12.220   2.238  15.611
  129SBC   C04A90708  11.981   1.976  15.636
  129SBC   C05T90709  11.867   1.974  15.704
  129SBC   C05590710  11.775   1.878  15.673
  129SBC   C06D90711  11.643   2.241  16.227
  129SBC   C07W90712  11.335   2.063  16.210
  129SBC   C08590713  11.059   2.185  16.586
  129SBC   H00M90714  10.968   2.180  16.645
  129SBC   C08490715  10.901   1.858  16.248
  129SBC   H00J90716  10.803   1.840  16.291
  129SBC   C07A90717  11.217   2.049  16.281
  129SBC   C08390718  10.925   1.784  16.135
  129SBC   H00K90719  10.846   1.729  16.085
  129SBC   O00K90720  10.985   1.636  15.902
  129SBC   C0GO90721  11.022   1.540  15.813
  129SBC   C0GN90722  10.930   1.435  15.777
  129SBC   H01L90723  10.827   1.445  15.809
  129SBC   C0GM90724  10.972   1.320  15.705
  129SBC   C0GL90725  10.890   1.212  15.693
  129SBC   H01M90726  10.787   1.208  15.725
  129SBC   O00J90727  10.943   1.105  15.621
  129SBC   C0GK90728  11.055   1.128  15.539
  129SBC   H01N90729  11.070   1.052  15.464
  129SBC   C05K90730  11.127   1.240  15.544
  129SBC   C05J90731  11.240   1.262  15.461
  129SBC   C04Y90732  11.271   1.187  15.346
  129SBC   C04X90733  11.395   1.196  15.280
  129SBC   O00690734  11.177   1.109  15.293
  129SBC   C05390735  11.198   1.024  15.185
  129SBC   C04O90736  11.319   1.038  15.114
  129SBC   C03C90737  11.350   0.985  14.986
  129SBC   C03B90738  11.283   0.907  14.885
  129SBC   C05490739  11.151   0.871  14.890
  129SBC   C0GR90740  11.085   0.812  14.775
  129SBC   C03M90741  11.118   0.767  14.640
  129SBC   C03I90742  11.244   0.778  14.578
  129SBC   C03J90743  11.255   0.727  14.443
  129SBC   N00290744  11.377   0.743  14.370
  129SBC   C02U90745  11.395   0.697  14.234
  129SBC   C02T90746  11.510   0.708  14.165
  129SBC   C02Z90747  11.519   0.664  14.033
  129SBC   N00190748  11.644   0.668  13.964
  129SBC   C02R90749  11.651   0.624  13.830
  129SBC   C03290750  11.538   0.564  13.767
  129SBC   C03190751  11.419   0.555  13.841
  129SBC   H00790752  11.346   0.492  13.792
  129SBC   C03390753  11.561   0.506  13.633
  129SBC   H00390754  11.481   0.459  13.578
  129SBC   O00490755  11.681   0.508  13.566
  129SBC   C03490756  11.789   0.552  13.639
  129SBC   C03590757  11.921   0.541  13.588
  129SBC   C03690758  12.033   0.592  13.647
  129SBC   H00590759  12.129   0.572  13.603
  129SBC   C03790760  12.016   0.655  13.771
  129SBC   H00690761  12.106   0.696  13.816
  129SBC   C00D90762  11.887   0.682  13.822
  129SBC   C00C90763  11.875   0.752  13.943
  129SBC   C00B90764  11.986   0.831  14.001
  129SBC   C00A90765  12.109   0.906  13.978
  129SBC   C00990766  12.155   0.954  14.107
  129SBC   C00890767  12.249   1.060  14.133
  129SBC   C00790768  12.310   1.122  14.035
  129SBC   C00690769  12.407   1.220  14.064
  129SBC   C00590770  12.478   1.277  13.949
  129SBC   C00490771  12.448   1.230  13.816
  129SBC   C00390772  12.352   1.131  13.796
  129SBC   C00290773  12.329   1.091  13.668
  129SBC   C01C90774  12.411   1.141  13.568
  129SBC   C01B90775  12.415   1.081  13.442
  129SBC   H00090776  12.373   0.981  13.436
  129SBC   C00190777  12.227   1.005  13.639
  129SBC   C00090778  12.145   0.964  13.741
  129SBC   C01U90779  12.030   0.920  13.676
  129SBC   H00290780  11.934   0.883  13.709
  129SBC   C01T90781  12.051   0.921  13.531
  129SBC   O00290782  11.981   0.883  13.437
  129SBC   O00190783  12.169   0.985  13.518
  129SBC   C01S90784  12.283   1.074  13.903
  129SBC   C00N90785  12.254   1.099  14.272
  129SBC   C00M90786  12.160   1.055  14.364
  129SBC   C00J90787  12.062   0.969  14.327
  129SBC   C00I90788  11.950   0.949  14.397
  129SBC   C00H90789  11.842   0.881  14.344
  129SBC   C00G90790  11.842   0.832  14.217
  129SBC   C00F90791  11.736   0.778  14.151
  129SBC   C01X90792  11.723   0.866  14.417
  129SBC   C01W90793  11.718   0.921  14.543
  129SBC   C01V90794  11.825   0.992  14.594
  129SBC   C02090795  11.818   1.048  14.720
  129SBC   C01Z90796  11.599   0.911  14.611
  129SBC   C02Y90797  11.599   0.959  14.737
  129SBC   C03990798  11.483   0.942  14.813
  129SBC   C02W90799  11.484   0.846  14.559
  129SBC   C01Y90800  11.611   0.805  14.357
  129SBC   C00U90801  11.939   1.008  14.520
  129SBC   C00S90802  12.039   1.090  14.567
  129SBC   C00T90803  12.026   1.159  14.687
  129SBC   C00R90804  12.151   1.116  14.488
  129SBC   C00Q90805  12.240   1.212  14.529
  129SBC   C00V90806  12.226   1.282  14.648
  129SBC   C02490807  12.306   1.392  14.682
  129SBC   C00X90808  12.406   1.428  14.590
  129SBC   C00P90809  12.331   1.255  14.435
  129SBC   C00O90810  12.341   1.202  14.305
  129SBC   C00K90811  12.071   0.911  14.202
  129SBC   N00090812  12.171   0.978  13.876
  129SBC   C00L90813  11.962   0.849  14.139
  129SBC   H00490814  11.926   0.481  13.498
  129SBC   C02Q90815  11.771   0.628  13.762
  129SBC   C00E90816  11.756   0.731  14.024
  129SBC   C03090817  11.404   0.599  13.975
  129SBC   O00390818  11.290   0.584  14.048
  129SBC   C02S90819  11.619   0.764  14.223
  129SBC   C03890820  11.285   0.631  14.174
  129SBC   C03L90821  11.171   0.615  14.243
  129SBC   H00890822  11.094   0.560  14.192
  129SBC   C02V90823  11.492   0.802  14.431
  129SBC   C03K90824  11.152   0.664  14.373
  129SBC   C0BK90825  11.034   0.654  14.445
  129SBC   H00T90826  10.956   0.602  14.393
  129SBC   C03H90827  11.361   0.835  14.634
  129SBC   C0BL90828  11.010   0.704  14.573
  129SBC   C0GU90829  10.879   0.691  14.632
  129SBC   H01O90830  10.799   0.648  14.575
  129SBC   C0GT90831  10.852   0.722  14.762
  129SBC   H01P90832  10.752   0.714  14.800
  129SBC   C0GS90833  10.955   0.782  14.831
  129SBC   C0GV90834  10.945   0.835  14.960
  129SBC   C0GW90835  10.837   0.820  15.054
  129SBC   H01Q90836  10.741   0.772  15.037
  129SBC   C0GX90837  10.857   0.882  15.173
  129SBC   H01R90838  10.777   0.880  15.245
  129SBC   O00L90839  10.967   0.953  15.216
  129SBC   C0GQ90840  11.065   0.888  15.003
  129SBC   C03A90841  11.366   0.885  14.769
  129SBC   C05L90842  11.078   0.953  15.131
  129SBC   C04W90843  11.334   1.362  15.493
  129SBC   C05I90844  11.305   1.454  15.593
  129SBC   C05O90845  11.184   1.443  15.664
  129SBC   C05290846  11.389   1.557  15.621
  129SBC   C04V90847  11.455   1.380  15.424
  129SBC   C04U90848  11.544   1.487  15.453
  129SBC   N00990849  11.096   1.337  15.640
  129SBC   C0GP90850  11.149   1.538  15.759
  129SBC   C05W90851  11.239   1.632  15.794
  129SBC   C07D90852  11.263   1.899  16.043
  129SBC   C06J90853  11.507   1.935  15.908
  129SBC   C05P90854  11.358   1.644  15.728
  129SBC   C05R90855  11.654   1.866  15.736
  129SBC   C04Z90856  11.511   1.575  15.559
  129SBC   C04C90857  11.804   1.794  15.567
  129SBC   C04G90858  11.955   1.726  15.389
  129SBC   C04J90859  12.021   1.561  15.183
  129SBC   C04T90860  11.670   1.496  15.395
  129SBC   N00390861  11.485   1.290  15.326
  129SBC   C04P90862  11.419   1.123  15.166
  129SBC   C03D90863  11.477   0.993  14.937
  129SBC   C02190864  11.702   1.031  14.792
  129SBC   C03F90865  11.766   1.246  15.080
  129SBC   C02290866  11.909   1.139  14.765
  129SBC   C02A90867  11.964   1.379  15.040
  129SBC   C02390868  12.116   1.255  14.723
  129SBC   C02590869  12.276   1.476  14.786
  129SBC   C02D90870  12.360   1.589  14.813
  129SBC   C02E90871  12.466   1.624  14.727
  129SBC   C02N90872  12.550   1.738  14.740
  129SBC   C04N90873  12.047   1.484  15.071
  129SBC   C02P90874  12.349   1.665  14.926
  129SBC   C04I90875  12.104   1.666  15.213
  129SBC   C04490876  12.273   1.886  15.259
  129SBC   C04390877  12.425   1.777  14.946
  129SBC   C05N90878  12.525   1.815  14.851
  129SBC   C09U90879  12.735   2.175  14.926
  129SBC   C09V90880  12.775   2.306  14.941
  129SBC   C09X90881  12.852   2.370  14.843
  129SBC   C09Y90882  12.869   2.509  14.823
  129SBC   C0A190883  12.823   2.587  14.923
  129SBC   C0A290884  12.762   2.529  15.035
  129SBC   C0A490885  12.726   2.612  15.139
  129SBC   C07190886  12.640   2.565  15.242
  129SBC   C0A590887  12.604   2.643  15.346
  129SBC   C0A990888  12.635   2.776  15.342
  129SBC   C0A890889  12.711   2.829  15.239
  129SBC   C0AP90890  12.740   2.964  15.234
  129SBC   C0BY90891  12.786   3.010  15.117
  129SBC   C0BX90892  12.801   2.940  15.001
  129SBC   C0C290893  12.826   3.003  14.877
  129SBC   C0C390894  12.854   2.928  14.766
  129SBC   C0CT90895  12.861   2.788  14.784
  129SBC   C0C190896  12.816   3.142  14.866
  129SBC   C0C090897  12.809   3.220  14.989
  129SBC   C0A790898  12.791   2.802  15.013
  129SBC   C0BZ90899  12.802   3.150  15.111
  129SBC   C0BO90900  12.771   3.240  15.212
  129SBC   C0BN90901  12.717   3.188  15.329
  129SBC   C0BM90902  12.660   3.283  15.413
  129SBC   C0B990903  12.585   3.228  15.516
  129SBC   C0B890904  12.566   3.091  15.527
  129SBC   C0AD90905  12.619   3.004  15.433
  129SBC   C0AF90906  12.483   3.047  15.624
  129SBC   C0AG90907  12.421   3.131  15.715
  129SBC   C0B790908  12.451   3.266  15.709
  129SBC   C0AE90909  12.464   2.914  15.630
  129SBC   C0AB90910  12.514   2.818  15.541
  129SBC   C0AA90911  12.466   2.687  15.532
  129SBC   C0AJ90912  12.372   2.871  15.724
  129SBC   C0AK90913  12.324   2.740  15.715
  129SBC   C06W90914  12.216   2.740  15.793
  129SBC   C0AI90915  12.290   2.954  15.803
  129SBC   C0BP90916  12.767   3.374  15.168
  129SBC   C0BQ90917  12.710   3.472  15.260
  129SBC   C0BW90918  12.703   3.051  15.340
  129SBC   C0AC90919  12.596   2.863  15.440
  129SBC   C0A690920  12.749   2.748  15.135
  129SBC   C0A390921  12.825   2.727  14.905
  129SBC   C09Z90922  12.921   2.569  14.708
  129SBC   C09W90923  12.731   2.393  15.039
  129SBC   C07290924  12.646   2.344  15.136
  129SBC   C09H90925  12.903   2.291  14.742
  129SBC   C09G90926  12.962   2.354  14.634
  129SBC   C09P90927  12.986   2.254  14.544
  129SBC   C02O90928  12.784   1.929  14.531
  129SBC   C02M90929  12.630   1.781  14.632
  129SBC   C02F90930  12.481   1.541  14.613
  129SBC   C00W90931  12.417   1.353  14.477
  129SBC   C01R90932  12.419   1.254  14.203
  129SBC   C01N90933  12.640   1.522  14.291
  129SBC   C01L90934  12.738   1.667  14.133
  129SBC   C01H90935  12.747   1.653  13.772
  129SBC   C01K90936  12.565   1.391  13.967
  129SBC   C01E90937  12.514   1.292  13.712
  129SBC   C01G90938  12.723   1.607  13.628
  129SBC   C01D90939  12.496   1.247  13.585
  129SBC   C01A90940  12.468   1.142  13.329
  129SBC   H00190941  12.462   1.088  13.236
  129SBC   C01F90942  12.673   1.498  13.377
  129SBC   C03P90943  12.741   1.629  13.136
  129SBC   C03T90944  12.829   1.810  13.260
  129SBC   C08I90945  12.943   2.053  13.298
  129SBC   C08J90946  12.975   2.183  13.335
  129SBC   C08L90947  13.005   2.363  13.496
  129SBC   C09390948  13.036   2.540  13.671
  129SBC   C08Z90949  13.049   2.338  13.863
  129SBC   C09T90950  13.073   2.754  14.089
  129SBC   C09S90951  13.105   2.411  14.155
  129SBC   C09Q90952  13.035   2.296  14.419
  129SBC   C09F90953  12.970   2.494  14.607
  129SBC   C09E90954  13.060   2.707  14.327
  129SBC   C0A090955  12.910   2.709  14.679
  129SBC   C0CU90956  12.870   2.987  14.638
  129SBC   C0CR90957  12.818   3.117  14.615
  129SBC   C0CZ90958  12.809   3.169  14.487
  129SBC   C0DA90959  13.042   2.808  14.230
  129SBC   C0D990960  13.011   3.146  14.127
  129SBC   H00V90961  13.118   3.158  14.128
  129SBC   C0CY90962  12.844   3.081  14.383
  129SBC   C0DF90963  12.927   3.266  14.114
  129SBC   C0DE90964  12.935   3.404  14.085
  129SBC   C0GI90965  12.987   3.476  13.978
  129SBC   H01K90966  13.034   3.424  13.896
  129SBC   C0GJ90967  12.960   3.602  13.970
  129SBC   H01J90968  12.958   3.636  13.868
  129SBC   O00I90969  12.907   3.680  14.070
  129SBC   C0GH90970  12.854   3.616  14.182
  129SBC   C0GG90971  12.796   3.696  14.289
  129SBC   O00G90972  12.803   3.827  14.270
  129SBC   C0G890973  12.786   3.921  14.367
  129SBC   C0G990974  12.806   4.054  14.327
  129SBC   H01G90975  12.849   4.064  14.229
  129SBC   C0GA90976  12.775   4.158  14.418
  129SBC   H01H90977  12.798   4.259  14.387
  129SBC   C0GB90978  12.732   4.127  14.552
  129SBC   C0EP90979  12.726   3.991  14.592
  129SBC   C0E890980  12.714   3.962  14.735
  129SBC   C0CK90981  12.728   3.848  14.825
  129SBC   C0CL90982  12.668   3.731  14.786
  129SBC   C0E990983  12.659   3.693  14.645
  129SBC   C0GE90984  12.707   3.744  14.514
  129SBC   C0E790985  12.680   4.067  14.820
  129SBC   C0CJ90986  12.651   4.021  14.947
  129SBC   C0E690987  12.578   4.108  15.033
  129SBC   H00Y90988  12.539   4.066  15.125
  129SBC   C0EO90989  12.569   4.242  14.989
  129SBC   H01190990  12.526   4.305  15.066
  129SBC   C0G690991  12.620   4.290  14.867
  129SBC   C0G590992  12.640   4.431  14.824
  129SBC   H01F90993  12.621   4.505  14.900
  129SBC   C0GD90994  12.671   4.455  14.701
  129SBC   H01I90995  12.685   4.559  14.675
  129SBC   O00H90996  12.690   4.359  14.600
  129SBC   C0EQ90997  12.664   4.198  14.776
  129SBC   C0GC90998  12.687   4.230  14.643
  129SBC   C0G790999  12.743   3.884  14.503
  129SBC   C0DD91000  12.856   3.475  14.179
  129SBC   C0GF91001  12.738   3.645  14.412
  129SBC   C0CO91002  12.613   3.560  14.655
  129SBC   C0D091003  12.746   3.295  14.478
  129SBC   C0C491004  12.788   3.194  14.735
  129SBC   C0CN91005  12.591   3.516  14.785
  129SBC   C0CP91006  12.799   3.363  15.027
  129SBC   C0CM91007  12.616   3.622  14.868
  129SBC   C0CI91008  12.703   3.890  14.961
  129SBC   C0CD91009  12.677   3.918  15.440
  129SBC   C0BR91010  12.712   3.612  15.231
  129SBC   C0CS91011  12.665   3.419  15.379
  129SBC   C0B691012  12.528   3.315  15.602
  129SBC   C0CG91013  12.588   3.730  15.559
  129SBC   C0CF91014  12.617   3.864  15.552
  129SBC   C0E591015  12.672   4.138  15.535
  129SBC   C0DT91016  12.609   4.297  15.746
  129SBC   C0DL91017  12.484   3.982  15.872
  129SBC   C0DM91018  12.403   3.934  15.975
  129SBC   C0DY91019  12.407   4.146  16.082
  129SBC   C0DU91020  12.589   4.367  15.857
  129SBC   C0F091021  12.597   4.589  15.954
  129SBC   C0F491022  12.483   4.770  16.116
  129SBC   C0FG91023  12.403   4.446  16.275
  129SBC   O00B91024  12.302   4.796  16.280
  129SBC   C0FN91025  12.296   4.433  16.352
  129SBC   C0DZ91026  12.374   4.231  16.194
  129SBC   O00C91027  12.113   4.032  16.346
  129SBC   C0FR91028  12.071   3.903  16.358
  129SBC   O00D91029  11.986   3.881  16.444
  129SBC   C0E091030  12.357   4.016  16.079
  129SBC   C0E391031  12.130   3.806  16.265
  129SBC   C0AW91032  12.102   3.672  16.277
  129SBC   C0AV91033  12.021   3.608  16.377
  129SBC   H00Q91034  11.986   3.654  16.469
  129SBC   C0AU91035  12.000   3.472  16.379
  129SBC   H00R91036  11.944   3.430  16.461
  129SBC   C0AT91037  12.063   3.396  16.282
  129SBC   C0AS91038  12.070   3.256  16.250
  129SBC   C0AR91039  12.041   3.153  16.347
  129SBC   C0BE91040  12.139   3.456  16.186
  129SBC   C0DN91041  12.363   3.803  15.968
  129SBC   C0AX91042  12.153   3.593  16.175
  129SBC   C0BB91043  12.372   3.584  15.874
  129SBC   C0BD91044  12.181   3.366  16.090
  129SBC   C0B291045  12.399   3.355  15.802
  129SBC   C0AH91046  12.331   3.091  15.820
  129SBC   C0BF91047  12.140   3.237  16.123
  129SBC   C0AL91048  12.197   2.864  15.867
  129SBC   C07U91049  12.049   2.958  16.173
  129SBC   C0AQ91050  12.035   3.016  16.306
  129SBC   C0BG91051  12.057   3.147  16.498
  129SBC   C0FY91052  11.985   2.861  16.704
  129SBC   C0BJ91053  11.966   3.188  16.602
  129SBC   H00S91054  11.918   3.285  16.609
  129SBC   C0FZ91055  11.909   2.908  16.813
  129SBC   C07S91056  11.949   2.743  16.641
  129SBC   C0G191057  11.788   2.591  16.941
  129SBC   C07K91058  11.800   2.286  16.722
  129SBC   C07H91059  11.882   2.488  16.533
  129SBC   C06B91060  11.642   2.289  16.356
  129SBC   C06N91061  11.755   2.283  16.161
  129SBC   C06691062  11.940   2.599  16.302
  129SBC   C06291063  12.005   2.635  15.994
  129SBC   C05Y91064  11.890   2.264  15.941
  129SBC   C06191065  12.026   2.595  15.856
  129SBC   C05H91066  12.140   2.281  15.720
  129SBC   C06V91067  12.147   2.621  15.786
  129SBC   C06Y91068  12.370   2.645  15.618
  129SBC   C05C91069  12.323   2.288  15.518
  129SBC   C06Z91070  12.512   2.595  15.436
  129SBC   C07091071  12.600   2.427  15.238
  129SBC   C05B91072  12.368   2.210  15.414
  129SBC   C05791073  12.445   2.046  15.200
  129SBC   C05991074  12.612   2.208  15.132
  130SBC   C05891075   2.170   5.450   5.789
  130SBC   C05A91076   2.184   5.316   5.746
  130SBC   C06Q91077   2.159   5.210   5.835
  130SBC   C06R91078   2.178   5.079   5.790
  130SBC   C06S91079   2.216   5.056   5.657
  130SBC   C06T91080   2.220   4.916   5.621
  130SBC   C06U91081   2.228   4.854   5.487
  130SBC   C06X91082   2.257   4.900   5.352
  130SBC   C06091083   2.219   4.806   5.251
  130SBC   C05Z91084   2.290   4.781   5.130
  130SBC   C06891085   2.311   4.631   5.132
  130SBC   C06791086   2.374   4.551   5.033
  130SBC   C06991087   2.407   4.607   4.899
  130SBC   C06A91088   2.487   4.549   4.789
  130SBC   C07391089   2.599   4.462   4.787
  130SBC   C07P91090   2.713   4.491   4.705
  130SBC   C07O91091   2.745   4.604   4.625
  130SBC   H00D91092   2.678   4.689   4.621
  130SBC   C07N91093   2.865   4.623   4.558
  130SBC   H00E91094   2.887   4.717   4.511
  130SBC   C07M91095   2.956   4.517   4.565
  130SBC   H00F91096   3.043   4.528   4.502
  130SBC   C07L91097   2.932   4.401   4.627
  130SBC   C07Q91098   3.017   4.286   4.610
  130SBC   H00G91099   3.102   4.298   4.543
  130SBC   O00F91100   3.005   4.176   4.684
  130SBC   C07J91101   2.891   4.166   4.757
  130SBC   C07I91102   2.790   4.267   4.764
  130SBC   N00491103   2.673   4.244   4.841
  130SBC   C07R91104   2.655   4.109   4.895
  130SBC   C07T91105   2.756   4.021   4.890
  130SBC   C0FX91106   2.751   3.901   4.956
  130SBC   C0FW91107   2.849   3.806   4.977
  130SBC   C0G091108   2.965   3.837   4.906
  130SBC   C0G291109   3.071   3.748   4.912
  130SBC   H01E91110   3.159   3.769   4.853
  130SBC   C0G391111   3.070   3.643   5.000
  130SBC   H01C91112   3.154   3.581   5.027
  130SBC   C0G491113   2.951   3.614   5.071
  130SBC   H01D91114   2.955   3.520   5.124
  130SBC   O00E91115   2.972   3.946   4.821
  130SBC   C0FV91116   2.836   3.692   5.059
  130SBC   C0FU91117   2.710   3.672   5.123
  130SBC   H01B91118   2.699   3.587   5.188
  130SBC   C0FT91119   2.597   3.757   5.095
  130SBC   C0FS91120   2.459   3.773   5.138
  130SBC   C0BI91121   2.404   3.874   5.056
  130SBC   C0BH91122   2.286   3.932   5.112
  130SBC   C07F91123   2.289   4.073   5.144
  130SBC   C07E91124   2.339   4.183   5.079
  130SBC   C07G91125   2.443   4.182   4.986
  130SBC   C07491126   2.473   4.315   4.957
  130SBC   C06591127   2.326   4.315   5.128
  130SBC   C06491128   2.263   4.325   5.251
  130SBC   C06391129   2.249   4.445   5.319
  130SBC   C07591130   2.198   4.402   5.453
  130SBC   C0AM91131   2.180   4.257   5.462
  130SBC   C0AN91132   2.129   4.176   5.577
  130SBC   C0AO91133   2.094   4.216   5.719
  130SBC   C0B191134   2.047   4.120   5.818
  130SBC   C0B091135   2.025   3.992   5.788
  130SBC   C0AZ91136   1.988   3.885   5.870
  130SBC   C0AY91137   1.983   3.751   5.826
  130SBC   N00791138   1.950   3.653   5.911
  130SBC   C0E291139   1.951   3.519   5.867
  130SBC   C0E191140   1.907   3.419   5.957
  130SBC   C0E491141   1.905   3.290   5.909
  130SBC   C0FF91142   1.861   3.182   5.996
  130SBC   C0FJ91143   1.869   3.039   5.981
  130SBC   C0FK91144   1.979   2.972   5.916
  130SBC   H01691145   2.049   3.012   5.844
  130SBC   C0FL91146   1.986   2.844   5.989
  130SBC   H01791147   2.064   2.769   5.985
  130SBC   C0FM91148   1.885   2.836   6.088
  130SBC   C0FH91149   1.852   2.788   6.223
  130SBC   C0FI91150   1.777   2.892   6.270
  130SBC   C0F391151   1.776   2.915   6.408
  130SBC   C0F291152   1.748   3.048   6.439
  130SBC   C0DW91153   1.763   3.156   6.353
  130SBC   C0FE91154   1.770   3.133   6.220
  130SBC   C0DV91155   1.782   3.285   6.392
  130SBC   C0DX91156   1.815   3.385   6.303
  130SBC   C0DK91157   1.849   3.513   6.356
  130SBC   C0DJ91158   1.843   3.537   6.493
  130SBC   C0DI91159   1.859   3.667   6.536
  130SBC   C0DH91160   1.883   3.774   6.446
  130SBC   C0DG91161   1.896   3.741   6.314
  130SBC   C0BV91162   1.913   3.845   6.223
  130SBC   C0BC91163   1.931   3.816   6.090
  130SBC   C0BA91164   1.935   3.972   6.268
  130SBC   C0B491165   1.965   4.078   6.181
  130SBC   C0B391166   1.979   4.052   6.044
  130SBC   C0B591167   1.977   4.204   6.229
  130SBC   C0BU91168   1.953   4.238   6.366
  130SBC   C0BT91169   1.916   4.135   6.454
  130SBC   C0BS91170   1.891   4.164   6.594
  130SBC   C0CC91171   1.886   4.058   6.686
  130SBC   C0CB91172   1.882   4.078   6.822
  130SBC   C0CH91173   1.931   3.967   6.898
  130SBC   C0DO91174   1.918   3.837   6.849
  130SBC   C0DP91175   1.910   3.735   6.942
  130SBC   C0EA91176   1.933   3.758   7.086
  130SBC   H01291177   1.967   3.852   7.125
  130SBC   O00991178   1.916   3.656   7.175
  130SBC   C0EH91179   1.885   3.531   7.130
  130SBC   C0EG91180   1.872   3.432   7.227
  130SBC   C0EJ91181   1.879   3.430   7.367
  130SBC   H01091182   1.895   3.523   7.421
  130SBC   C0EK91183   1.863   3.289   7.418
  130SBC   H00Z91184   1.850   3.255   7.520
  130SBC   C0EL91185   1.851   3.216   7.296
  130SBC   C0EM91186   1.846   3.071   7.269
  130SBC   C0EW91187   1.846   2.966   7.363
  130SBC   H01391188   1.830   2.978   7.469
  130SBC   C0EX91189   1.854   2.828   7.316
  130SBC   H01491190   1.864   2.741   7.379
  130SBC   C0F191191   1.862   2.797   7.170
  130SBC   C0EU91192   1.855   2.904   7.081
  130SBC   C0ET91193   1.861   2.901   6.941
  130SBC   C0ES91194   1.871   3.037   6.906
  130SBC   C0EE91195   1.860   3.120   7.022
  130SBC   C0ED91196   1.849   3.259   7.055
  130SBC   C0EC91197   1.853   3.363   6.954
  130SBC   C0EB91198   1.833   3.347   6.814
  130SBC   C0EN91199   1.811   3.215   6.750
  130SBC   C0ER91200   1.772   3.211   6.618
  130SBC   C0DS91201   1.838   3.454   6.722
  130SBC   C0DR91202   1.863   3.583   6.766
  130SBC   C0EY91203   1.820   3.082   6.788
  130SBC   C0EZ91204   1.797   2.991   6.678
  130SBC   C0F591205   1.828   2.849   6.638
  130SBC   C0F691206   1.870   2.755   6.733
  130SBC   N00891207   1.920   2.630   6.676
  130SBC   C0F791208   1.931   2.606   6.534
  130SBC   C0FQ91209   2.006   2.491   6.495
  130SBC   H01891210   2.029   2.481   6.390
  130SBC   C0FP91211   2.036   2.390   6.585
  130SBC   H01991212   2.076   2.299   6.543
  130SBC   C0FO91213   2.004   2.411   6.720
  130SBC   H01A91214   2.026   2.326   6.782
  130SBC   C0F891215   1.885   2.707   6.451
  130SBC   C0F991216   1.953   2.529   6.766
  130SBC   C0FA91217   1.935   2.537   6.907
  130SBC   H01591218   1.960   2.457   6.975
  130SBC   C0FB91219   1.897   2.662   6.965
  130SBC   C0FD91220   1.872   2.770   6.874
  130SBC   C0FC91221   1.880   2.671   7.109
  130SBC   O00A91222   1.886   2.570   7.177
  130SBC   C0EV91223   1.849   3.036   7.131
  130SBC   C0EF91224   1.853   3.303   7.190
  130SBC   C0EI91225   1.869   3.501   6.993
  130SBC   C0DQ91226   1.871   3.609   6.901
  130SBC   C0CE91227   1.891   3.819   6.722
  130SBC   H00U91228   1.963   3.989   6.999
  130SBC   C0CA91229   1.836   4.202   6.866
  130SBC   C0C991230   1.833   4.315   6.778
  130SBC   C0C891231   1.775   4.444   6.824
  130SBC   C0C791232   1.786   4.582   6.781
  130SBC   C0C691233   1.719   4.679   6.863
  130SBC   C0C591234   1.728   4.821   6.893
  130SBC   C0CQ91235   1.681   4.859   7.023
  130SBC   C0D191236   1.665   4.762   7.122
  130SBC   C0D891237   1.712   4.801   7.241
  130SBC   C0D791238   1.720   4.944   7.226
  130SBC   C0D691239   1.781   5.031   7.320
  130SBC   C0D591240   1.789   5.166   7.303
  130SBC   C0D491241   1.756   5.254   7.194
  130SBC   C0D391242   1.828   5.376   7.221
  130SBC   C0CX91243   1.848   5.432   7.085
  130SBC   C0CW91244   1.848   5.320   6.995
  130SBC   C0CV91245   1.880   5.299   6.856
  130SBC   C0D291246   1.933   5.404   6.776
  130SBC   C09D91247   1.945   5.540   6.812
  130SBC   C09C91248   1.995   5.635   6.721
  130SBC   C09B91249   1.994   5.776   6.740
  130SBC   C09A91250   1.937   5.817   6.859
  130SBC   C09991251   1.902   5.737   6.957
  130SBC   C09891252   1.816   5.800   7.047
  130SBC   C08Y91253   1.771   5.928   6.987
  130SBC   C08X91254   1.646   6.005   7.006
  130SBC   C08W91255   1.548   5.960   7.103
  130SBC   C08U91256   1.543   5.830   7.174
  130SBC   C08V91257   1.608   5.698   7.156
  130SBC   C0DC91258   1.575   5.624   7.270
  130SBC   H00W91259   1.615   5.525   7.281
  130SBC   C0DB91260   1.486   5.693   7.357
  130SBC   H00X91261   1.438   5.673   7.452
  130SBC   C08T91262   1.461   5.817   7.286
  130SBC   C08S91263   1.361   5.913   7.316
  130SBC   H00N91264   1.296   5.906   7.402
  130SBC   C08R91265   1.346   6.026   7.236
  130SBC   C08Q91266   1.231   6.111   7.236
  130SBC   H00O91267   1.151   6.091   7.305
  130SBC   C08P91268   1.216   6.232   7.165
  130SBC   C08O91269   1.099   6.318   7.176
  130SBC   H00P91270   1.027   6.290   7.252
  130SBC   C08N91271   1.087   6.442   7.094
  130SBC   C08M91272   0.970   6.526   7.112
  130SBC   O00891273   0.874   6.501   7.186
  130SBC   O00791274   0.973   6.643   7.040
  130SBC   C08H91275   1.072   6.676   6.953
  130SBC   C08G91276   1.067   6.788   6.863
  130SBC   C03V91277   0.970   6.886   6.865
  130SBC   H00991278   0.901   6.874   6.947
  130SBC   C03U91279   0.964   6.989   6.772
  130SBC   C03W91280   0.874   7.108   6.777
  130SBC   H00A91281   0.814   7.117   6.866
  130SBC   C03X91282   0.874   7.190   6.671
  130SBC   H00B91283   0.822   7.284   6.678
  130SBC   O00591284   0.947   7.175   6.554
  130SBC   C03O91285   1.043   7.074   6.558
  130SBC   C03N91286   1.136   7.063   6.450
  130SBC   O00091287   1.126   7.159   6.356
  130SBC   C01991288   1.201   7.155   6.245
  130SBC   C01891289   1.299   7.051   6.225
  130SBC   C01791290   1.321   6.955   6.325
  130SBC   C01691291   1.414   6.850   6.312
  130SBC   C01591292   1.488   6.862   6.195
  130SBC   C01491293   1.603   6.784   6.188
  130SBC   C01391294   1.624   6.681   6.282
  130SBC   C01291295   1.734   6.602   6.222
  130SBC   C01191296   1.764   6.668   6.109
  130SBC   C01091297   1.863   6.630   6.026
  130SBC   C00Z91298   1.891   6.667   5.898
  130SBC   C00Y91299   1.990   6.573   5.853
  130SBC   C01O91300   2.017   6.477   5.946
  130SBC   C01P91301   2.046   6.341   5.920
  130SBC   C02L91302   2.031   6.252   6.017
  130SBC   C02K91303   1.973   6.300   6.132
  130SBC   C01M91304   1.902   6.428   6.153
  130SBC   C02J91305   1.982   6.209   6.239
  130SBC   C02I91306   1.941   6.223   6.365
  130SBC   C02H91307   1.860   6.319   6.427
  130SBC   C01Q91308   1.799   6.432   6.379
  130SBC   C02G91309   1.706   6.478   6.478
  130SBC   C08991310   1.732   6.407   6.596
  130SBC   C08891311   1.628   6.409   6.683
  130SBC   C08791312   1.540   6.518   6.623
  130SBC   C08691313   1.427   6.568   6.691
  130SBC   C03S91314   1.347   6.682   6.646
  130SBC   N00691315   1.256   6.706   6.747
  130SBC   C08F91316   1.269   6.612   6.843
  130SBC   C01J91317   1.336   6.761   6.533
  130SBC   C03R91318   1.241   6.869   6.543
  130SBC   C03Q91319   1.154   6.882   6.653
  130SBC   C08E91320   1.369   6.519   6.812
  130SBC   C08D91321   1.390   6.402   6.883
  130SBC   C08K91322   1.296   6.378   6.988
  130SBC   C08C91323   1.500   6.312   6.877
  130SBC   C09191324   1.509   6.202   6.964
  130SBC   C09291325   1.418   6.173   7.061
  130SBC   C08B91326   1.609   6.308   6.790
  130SBC   C09091327   1.696   6.197   6.827
  130SBC   C09491328   1.823   6.159   6.767
  130SBC   C09591329   1.888   6.034   6.783
  130SBC   C09R91330   1.962   6.002   6.670
  130SBC   C09791331   1.945   6.100   6.574
  130SBC   C09691332   1.861   6.195   6.635
  130SBC   C01I91333   1.587   6.565   6.493
  130SBC   C08A91334   1.816   6.301   6.558
  130SBC   C09L91335   1.984   6.111   6.435
  130SBC   C09K91336   2.035   6.015   6.348
  130SBC   C09J91337   2.067   5.887   6.382
  130SBC   C09I91338   2.092   5.784   6.284
  130SBC   C09O91339   2.106   5.773   6.140
  130SBC   C09N91340   2.094   5.883   6.047
  130SBC   C09M91341   2.060   6.019   6.079
  130SBC   C06O91342   2.134   5.851   5.919
  130SBC   C05M91343   2.149   5.720   5.879
  130SBC   C06P91344   2.129   5.607   5.964
  130SBC   C04291345   2.174   5.690   5.744
  130SBC   C04191346   2.181   5.790   5.649
  130SBC   C04091347   2.194   5.764   5.511
  130SBC   C03Z91348   2.194   5.864   5.418
  130SBC   C03Y91349   2.175   5.996   5.451
  130SBC   C02791350   2.161   6.092   5.355
  130SBC   C02691351   2.141   6.225   5.391
  130SBC   C02891352   2.119   6.322   5.293
  130SBC   C02991353   2.122   6.287   5.155
  130SBC   C02B91354   2.096   6.383   5.060
  130SBC   C02C91355   2.089   6.347   4.929
  130SBC   C02X91356   2.043   6.445   4.838
  130SBC   C03E91357   2.024   6.398   4.706
  130SBC   C03G91358   2.040   6.265   4.669
  130SBC   C04Q91359   2.097   6.179   4.758
  130SBC   C04R91360   2.119   6.048   4.720
  130SBC   C04S91361   2.161   5.954   4.813
  130SBC   C04L91362   2.176   5.991   4.943
  130SBC   C04M91363   2.151   6.122   4.983
  130SBC   C04K91364   2.204   5.897   5.041
  130SBC   C04F91365   2.216   5.767   5.006
  130SBC   C04E91366   2.196   5.732   4.872
  130SBC   C04D91367   2.221   5.597   4.839
  130SBC   C05091368   2.205   5.561   4.704
  130SBC   C05191369   2.230   5.424   4.666
  130SBC   C05Q91370   2.215   5.383   4.534
  130SBC   C05V91371   2.242   5.251   4.500
  130SBC   N00591372   2.246   5.220   4.362
  130SBC   C07V91373   2.206   5.314   4.267
  130SBC   C08291374   2.208   5.281   4.129
  130SBC   C08191375   2.243   5.155   4.083
  130SBC   C07C91376   2.281   5.060   4.181
  130SBC   C07B91377   2.321   4.928   4.143
  130SBC   C08091378   2.326   4.891   4.003
  130SBC   C07Z91379   2.368   4.760   3.975
  130SBC   H00L91380   2.377   4.728   3.873
  130SBC   C07991381   2.406   4.665   4.069
  130SBC   C07891382   2.404   4.704   4.204
  130SBC   C07791383   2.445   4.611   4.304
  130SBC   C07X91384   2.501   4.487   4.270
  130SBC   H00I91385   2.537   4.421   4.348
  130SBC   C07Y91386   2.513   4.448   4.134
  130SBC   H00H91387   2.562   4.354   4.111
  130SBC   C07691388   2.426   4.651   4.437
  130SBC   C06C91389   2.454   4.559   4.538
  130SBC   H00C91390   2.491   4.458   4.529
  130SBC   C06F91391   2.374   4.775   4.475
  130SBC   C06E91392   2.351   4.809   4.603
  130SBC   C06G91393   2.315   4.932   4.650
  130SBC   C06H91394   2.296   5.026   4.551
  130SBC   C06I91395   2.306   4.990   4.414
  130SBC   C06L91396   2.306   4.956   4.792
  130SBC   C06M91397   2.321   4.856   4.890
  130SBC   C06K91398   2.288   5.087   4.828
  130SBC   C05S91399   2.270   5.187   4.731
  130SBC   C05U91400   2.294   5.131   4.961
  130SBC   C05X91401   2.297   5.028   5.064
  130SBC   C05G91402   2.294   5.085   5.199
  130SBC   C05F91403   2.289   5.222   5.216
  130SBC   C05E91404   2.275   5.254   5.351
  130SBC   C04891405   2.252   5.383   5.389
  130SBC   C05691406   2.232   5.397   5.525
  130SBC   C04591407   2.216   5.531   5.567
  130SBC   C04791408   2.264   5.483   5.296
  130SBC   C04991409   2.271   5.446   5.159
  130SBC   C04B91410   2.256   5.537   5.062
  130SBC   C04691411   2.231   5.607   5.335
  130SBC   C04H91412   2.223   5.700   5.237
  130SBC   C05D91413   2.267   5.140   5.429
  130SBC   C04A91414   2.279   5.319   5.117
  130SBC   C05T91415   2.284   5.268   4.991
  130SBC   C05591416   2.264   5.366   4.894
  130SBC   C06D91417   2.390   4.720   4.702
  130SBC   C07W91418   2.346   4.866   4.375
  130SBC   C08591419   2.470   4.540   4.036
  130SBC   H00M91420   2.468   4.499   3.936
  130SBC   C08491421   2.279   4.989   3.914
  130SBC   H00J91422   2.267   4.956   3.812
  130SBC   C07A91423   2.358   4.834   4.242
  130SBC   C08391424   2.248   5.116   3.951
  130SBC   H00K91425   2.224   5.185   3.872
  130SBC   O00K91426   2.180   5.380   4.037
  130SBC   C0GO91427   2.126   5.498   4.083
  130SBC   C0GN91428   2.075   5.584   3.988
  130SBC   H01L91429   2.069   5.542   3.889
  130SBC   C0GM91430   2.009   5.704   4.026
  130SBC   C0GL91431   1.944   5.779   3.932
  130SBC   H01M91432   1.953   5.763   3.826
  130SBC   O00J91433   1.871   5.890   3.970
  130SBC   C0GK91434   1.899   5.940   4.099
  130SBC   H01N91435   1.851   6.035   4.120
  130SBC   C05K91436   1.979   5.871   4.191
  130SBC   C05J91437   2.007   5.915   4.324
  130SBC   C04Y91438   1.989   6.051   4.368
  130SBC   C04X91439   2.020   6.094   4.500
  130SBC   O00691440   1.952   6.144   4.279
  130SBC   C05391441   1.906   6.270   4.314
  130SBC   C04O91442   1.938   6.318   4.446
  130SBC   C03C91443   1.907   6.450   4.500
  130SBC   C03B91444   1.835   6.565   4.458
  130SBC   C05491445   1.771   6.571   4.338
  130SBC   C0GR91446   1.706   6.692   4.298
  130SBC   C03M91447   1.653   6.812   4.360
  130SBC   C03I91448   1.669   6.853   4.500
  130SBC   C03J91449   1.600   6.972   4.544
  130SBC   N00291450   1.615   7.013   4.682
  130SBC   C02U91451   1.545   7.122   4.737
  130SBC   C02T91452   1.553   7.158   4.870
  130SBC   C02Z91453   1.471   7.258   4.913
  130SBC   N00191454   1.469   7.286   5.051
  130SBC   C02R91455   1.373   7.377   5.096
  130SBC   C03291456   1.287   7.448   5.012
  130SBC   C03191457   1.301   7.426   4.874
  130SBC   H00791458   1.241   7.473   4.798
  130SBC   C03391459   1.191   7.543   5.077
  130SBC   H00391460   1.118   7.590   5.012
  130SBC   O00491461   1.182   7.566   5.211
  130SBC   C03491462   1.277   7.507   5.285
  130SBC   C03591463   1.274   7.539   5.424
  130SBC   C03691464   1.376   7.487   5.500
  130SBC   H00591465   1.394   7.513   5.604
  130SBC   C03791466   1.471   7.396   5.446
  130SBC   H00691467   1.548   7.365   5.514
  130SBC   C00D91468   1.456   7.344   5.319
  130SBC   C00C91469   1.530   7.238   5.279
  130SBC   C00B91470   1.605   7.154   5.369
  130SBC   C00A91471   1.631   7.134   5.514
  130SBC   C00991472   1.732   7.030   5.513
  130SBC   C00891473   1.770   6.939   5.618
  130SBC   C00791474   1.705   6.946   5.735
  130SBC   C00691475   1.744   6.861   5.841
  130SBC   C00591476   1.660   6.866   5.960
  130SBC   C00491477   1.547   6.952   5.977
  130SBC   C00391478   1.510   7.028   5.867
  130SBC   C00291479   1.402   7.113   5.875
  130SBC   C01C91480   1.336   7.135   5.997
  130SBC   C01B91481   1.234   7.233   6.020
  130SBC   H00091482   1.200   7.305   5.947
  130SBC   C00191483   1.353   7.160   5.754
  130SBC   C00091484   1.417   7.144   5.634
  130SBC   C01U91485   1.313   7.168   5.541
  130SBC   H00291486   1.320   7.156   5.433
  130SBC   C01T91487   1.198   7.223   5.614
  130SBC   O00291488   1.093   7.260   5.561
  130SBC   O00191489   1.233   7.213   5.745
  130SBC   C01S91490   1.591   7.024   5.747
  130SBC   C00N91491   1.861   6.837   5.583
  130SBC   C00M91492   1.908   6.816   5.453
  130SBC   C00J91493   1.866   6.896   5.351
  130SBC   C00I91494   1.865   6.866   5.215
  130SBC   C00H91495   1.789   6.939   5.126
  130SBC   C00G91496   1.710   7.042   5.166
  130SBC   C00F91497   1.628   7.113   5.086
  130SBC   C01X91498   1.788   6.910   4.991
  130SBC   C01W91499   1.859   6.798   4.950
  130SBC   C01V91500   1.932   6.721   5.044
  130SBC   C02091501   1.995   6.606   5.010
  130SBC   C01Z91502   1.857   6.765   4.815
  130SBC   C02Y91503   1.924   6.648   4.790
  130SBC   C03991504   1.914   6.604   4.658
  130SBC   C02W91505   1.779   6.836   4.718
  130SBC   C01Y91506   1.714   6.980   4.900
  130SBC   C00U91507   1.929   6.752   5.175
  130SBC   C00S91508   1.988   6.669   5.273
  130SBC   C00T91509   2.044   6.543   5.238
  130SBC   C00R91510   1.972   6.700   5.411
  130SBC   C00Q91511   2.006   6.610   5.504
  130SBC   C00V91512   2.058   6.486   5.466
  130SBC   C02491513   2.083   6.381   5.558
  130SBC   C00X91514   2.061   6.406   5.690
  130SBC   C00P91515   1.983   6.636   5.637
  130SBC   C00O91516   1.906   6.747   5.679
  130SBC   C00K91517   1.781   7.002   5.386
  130SBC   N00091518   1.547   7.101   5.630
  130SBC   C00L91519   1.702   7.074   5.302
  130SBC   H00491520   1.210   7.610   5.474
  130SBC   C02Q91521   1.375   7.410   5.231
  130SBC   C00E91522   1.545   7.209   5.144
  130SBC   C03091523   1.392   7.332   4.825
  130SBC   O00391524   1.380   7.296   4.692
  130SBC   C02S91525   1.636   7.086   4.949
  130SBC   C03891526   1.459   7.193   4.650
  130SBC   C03L91527   1.452   7.160   4.515
  130SBC   H00891528   1.391   7.223   4.452
  130SBC   C02V91529   1.712   6.949   4.765
  130SBC   C03K91530   1.524   7.045   4.464
  130SBC   C0BK91531   1.521   7.006   4.327
  130SBC   H00T91532   1.463   7.070   4.262
  130SBC   C03H91533   1.758   6.788   4.589
  130SBC   C0BL91534   1.582   6.893   4.271
  130SBC   C0GU91535   1.563   6.869   4.135
  130SBC   H01O91536   1.508   6.943   4.079
  130SBC   C0GT91537   1.597   6.752   4.077
  130SBC   H01P91538   1.570   6.732   3.975
  130SBC   C0GS91539   1.668   6.667   4.158
  130SBC   C0GV91540   1.716   6.535   4.116
  130SBC   C0GW91541   1.716   6.464   3.985
  130SBC   H01Q91542   1.680   6.505   3.893
  130SBC   C0GX91543   1.762   6.337   3.991
  130SBC   H01R91544   1.760   6.281   3.898
  130SBC   O00L91545   1.828   6.278   4.095
  130SBC   C0GQ91546   1.777   6.478   4.229
  130SBC   C03A91547   1.830   6.663   4.558
  130SBC   C05L91548   1.836   6.341   4.215
  130SBC   C04W91549   2.066   5.834   4.419
  130SBC   C05I91550   2.098   5.706   4.383
  130SBC   C05O91551   2.079   5.659   4.255
  130SBC   C05291552   2.154   5.612   4.473
  130SBC   C04V91553   2.105   5.873   4.546
  130SBC   C04U91554   2.150   5.785   4.643
  130SBC   N00991555   2.021   5.741   4.159
  130SBC   C0GP91556   2.117   5.528   4.219
  130SBC   C05W91557   2.163   5.439   4.309
  130SBC   C07D91558   2.276   5.086   4.320
  130SBC   C06J91559   2.264   5.153   4.597
  130SBC   C05P91560   2.180   5.478   4.438
  130SBC   C05R91561   2.260   5.326   4.762
  130SBC   C04Z91562   2.164   5.651   4.607
  130SBC   C04C91563   2.249   5.500   4.934
  130SBC   C04G91564   2.236   5.669   5.098
  130SBC   C04J91565   2.198   5.931   5.180
  130SBC   C04T91566   2.167   5.825   4.775
  130SBC   N00391567   2.082   6.005   4.587
  130SBC   C04P91568   2.004   6.228   4.536
  130SBC   C03D91569   1.966   6.485   4.615
  130SBC   C02191570   1.992   6.569   4.878
  130SBC   C03F91571   2.118   6.218   4.892
  130SBC   C02291572   2.051   6.511   5.101
  130SBC   C02A91573   2.153   6.156   5.117
  130SBC   C02391574   2.080   6.453   5.334
  130SBC   C02591575   2.124   6.254   5.523
  130SBC   C02D91576   2.132   6.154   5.624
  130SBC   C02E91577   2.119   6.185   5.757
  130SBC   C02N91578   2.113   6.090   5.854
  130SBC   C04N91579   2.174   6.059   5.220
  130SBC   C02P91580   2.157   6.023   5.585
  130SBC   C04I91581   2.205   5.830   5.281
  130SBC   C04491582   2.216   5.634   5.471
  130SBC   C04391583   2.162   5.926   5.685
  130SBC   C05N91584   2.143   5.954   5.819
  130SBC   C09U91585   2.115   5.636   6.101
  130SBC   C09V91586   2.095   5.528   6.189
  130SBC   C09X91587   2.074   5.539   6.324
  130SBC   C09Y91588   2.044   5.442   6.418
  130SBC   C0A191589   2.033   5.318   6.371
  130SBC   C0A291590   2.061   5.297   6.235
  130SBC   C0A491591   2.063   5.168   6.190
  130SBC   C07191592   2.101   5.139   6.057
  130SBC   C0A591593   2.114   5.009   6.014
  130SBC   C0A991594   2.083   4.906   6.102
  130SBC   C0A891595   2.043   4.932   6.230
  130SBC   C0AP91596   2.012   4.832   6.315
  130SBC   C0BY91597   1.971   4.862   6.440
  130SBC   C0BX91598   1.963   4.982   6.497
  130SBC   C0C291599   1.913   5.008   6.626
  130SBC   C0C391600   1.913   5.141   6.675
  130SBC   C0CT91601   1.966   5.240   6.597
  130SBC   C0C191602   1.861   4.902   6.703
  130SBC   C0C091603   1.888   4.766   6.652
  130SBC   C0A791604   1.998   5.086   6.413
  130SBC   C0BZ91605   1.941   4.757   6.524
  130SBC   C0BO91606   1.951   4.628   6.478
  130SBC   C0BN91607   1.984   4.594   6.353
  130SBC   C0BM91608   1.991   4.467   6.316
  130SBC   C0B991609   2.024   4.436   6.184
  130SBC   C0B891610   2.072   4.539   6.105
  130SBC   C0AD91611   2.070   4.671   6.147
  130SBC   C0AF91612   2.103   4.510   5.971
  130SBC   C0AG91613   2.079   4.381   5.916
  130SBC   C0B791614   2.036   4.280   6.002
  130SBC   C0AE91615   2.138   4.613   5.894
  130SBC   C0AB91616   2.136   4.744   5.933
  130SBC   C0AA91617   2.169   4.845   5.845
  130SBC   C0AJ91618   2.169   4.585   5.766
  130SBC   C0AK91619   2.200   4.686   5.680
  130SBC   C06W91620   2.202   4.628   5.558
  130SBC   C0AI91621   2.160   4.459   5.703
  130SBC   C0BP91622   1.910   4.541   6.578
  130SBC   C0BQ91623   1.908   4.398   6.542
  130SBC   C0BW91624   2.025   4.699   6.271
  130SBC   C0AC91625   2.099   4.772   6.061
  130SBC   C0A691626   2.032   5.062   6.277
  130SBC   C0A391627   1.995   5.218   6.461
  130SBC   C09Z91628   2.019   5.466   6.553
  130SBC   C09W91629   2.091   5.398   6.143
  130SBC   C07291630   2.117   5.372   6.010
  130SBC   C09H91631   2.083   5.666   6.367
  130SBC   C09G91632   2.063   5.693   6.502
  130SBC   C09P91633   2.057   5.826   6.516
  130SBC   C02O91634   2.025   6.071   6.216
  130SBC   C02M91635   2.065   6.119   5.983
  130SBC   C02F91636   2.087   6.312   5.790
  130SBC   C00W91637   2.010   6.531   5.722
  130SBC   C01R91638   1.846   6.768   5.808
  130SBC   C01N91639   1.929   6.511   6.046
  130SBC   C01L91640   1.813   6.483   6.256
  130SBC   C01H91641   1.541   6.667   6.405
  130SBC   C01K91642   1.680   6.777   6.074
  130SBC   C01E91643   1.470   6.956   6.089
  130SBC   C01G91644   1.434   6.760   6.421
  130SBC   C01D91645   1.368   7.048   6.105
  130SBC   C01A91646   1.166   7.245   6.141
  130SBC   H00191647   1.088   7.320   6.143
  130SBC   C01F91648   1.233   6.959   6.437
  130SBC   C03P91649   1.055   6.984   6.667
  130SBC   C03T91650   1.152   6.796   6.756
  130SBC   C08I91651   1.177   6.583   6.937
  130SBC   C08J91652   1.187   6.468   7.004
  130SBC   C08L91653   1.315   6.266   7.073
  130SBC   C09391654   1.439   6.048   7.130
  130SBC   C08Z91655   1.623   6.127   6.940
  130SBC   C09T91656   1.743   5.689   7.102
  130SBC   C09S91657   1.861   5.936   6.879
  130SBC   C09Q91658   2.016   5.876   6.643
  130SBC   C09F91659   2.030   5.596   6.596
  130SBC   C09E91660   1.887   5.606   6.928
  130SBC   C0A091661   1.972   5.371   6.645
  130SBC   C0CU91662   1.869   5.164   6.805
  130SBC   C0CR91663   1.821   5.055   6.880
  130SBC   C0CZ91664   1.772   5.083   7.006
  130SBC   C0DA91665   1.814   5.565   7.044
  130SBC   C0D991666   1.933   5.346   7.324
  130SBC   H00V91667   2.028   5.396   7.337
  130SBC   C0CY91668   1.788   5.214   7.062
  130SBC   C0DF91669   1.893   5.216   7.381
  130SBC   C0DE91670   1.942   5.104   7.461
  130SBC   C0GI91671   2.022   5.101   7.575
  130SBC   H01K91672   2.085   5.178   7.617
  130SBC   C0GJ91673   2.029   4.982   7.634
  130SBC   H01J91674   2.093   4.990   7.721
  130SBC   O00I91675   1.963   4.864   7.603
  130SBC   C0GH91676   1.878   4.864   7.494
  130SBC   C0GG91677   1.827   4.739   7.456
  130SBC   O00G91678   1.850   4.638   7.543
  130SBC   C0G891679   1.813   4.511   7.516
  130SBC   C0G991680   1.821   4.424   7.626
  130SBC   H01G91681   1.840   4.463   7.725
  130SBC   C0GA91682   1.790   4.291   7.607
  130SBC   H01H91683   1.782   4.218   7.686
  130SBC   C0GB91684   1.772   4.233   7.477
  130SBC   C0EP91685   1.786   4.325   7.369
  130SBC   C0E891686   1.793   4.265   7.235
  130SBC   C0CK91687   1.813   4.313   7.101
  130SBC   C0CL91688   1.737   4.424   7.068
  130SBC   C0E991689   1.727   4.538   7.157
  130SBC   C0GE91690   1.766   4.570   7.295
  130SBC   C0E791691   1.760   4.130   7.215
  130SBC   C0CJ91692   1.749   4.092   7.086
  130SBC   C0E691693   1.692   3.963   7.056
  130SBC   H00Y91694   1.672   3.929   6.955
  130SBC   C0EO91695   1.671   3.874   7.163
  130SBC   H01191696   1.636   3.773   7.148
  130SBC   C0G691697   1.697   3.912   7.296
  130SBC   C0G591698   1.681   3.829   7.415
  130SBC   H01F91699   1.648   3.727   7.403
  130SBC   C0GD91700   1.706   3.878   7.540
  130SBC   H01I91701   1.693   3.812   7.625
  130SBC   O00H91702   1.733   4.008   7.565
  130SBC   C0EQ91703   1.735   4.049   7.327
  130SBC   C0GC91704   1.747   4.089   7.456
  130SBC   C0G791705   1.787   4.464   7.384
  130SBC   C0DD91706   1.863   4.988   7.426
  130SBC   C0GF91707   1.761   4.709   7.333
  130SBC   C0CO91708   1.665   4.633   7.081
  130SBC   C0D091709   1.720   4.977   7.086
  130SBC   C0C491710   1.801   4.920   6.826
  130SBC   C0CN91711   1.648   4.596   6.948
  130SBC   C0CP91712   1.869   4.628   6.685
  130SBC   C0CM91713   1.688   4.460   6.934
  130SBC   C0CI91714   1.802   4.202   7.008
  130SBC   C0CD91715   1.889   3.926   6.633
  130SBC   C0BR91716   1.880   4.294   6.637
  130SBC   C0CS91717   1.949   4.370   6.410
  130SBC   C0B691718   2.015   4.306   6.136
  130SBC   C0CG91719   1.916   4.004   6.402
  130SBC   C0CF91720   1.893   3.901   6.493
  130SBC   C0E591721   1.862   3.694   6.673
  130SBC   C0DT91722   1.823   3.435   6.580
  130SBC   C0DL91723   1.881   3.613   6.268
  130SBC   C0DM91724   1.892   3.586   6.131
  130SBC   C0DY91725   1.830   3.355   6.167
  130SBC   C0DU91726   1.795   3.312   6.528
  130SBC   C0F091727   1.759   3.080   6.575
  130SBC   C0F491728   1.825   2.824   6.502
  130SBC   C0FG91729   1.762   2.999   6.181
  130SBC   O00B91730   1.904   2.694   6.306
  130SBC   C0FN91731   1.800   2.951   6.063
  130SBC   C0DZ91732   1.814   3.224   6.123
  130SBC   O00C91733   1.954   3.253   5.783
  130SBC   C0FR91734   1.986   3.344   5.694
  130SBC   O00D91735   2.015   3.295   5.586
  130SBC   C0E091736   1.876   3.456   6.085
  130SBC   C0E391737   1.987   3.483   5.736
  130SBC   C0AW91738   2.022   3.586   5.650
  130SBC   C0AV91739   2.075   3.567   5.518
  130SBC   H00Q91740   2.102   3.471   5.477
  130SBC   C0AU91741   2.116   3.677   5.437
  130SBC   H00R91742   2.158   3.655   5.340
  130SBC   C0AT91743   2.103   3.804   5.487
  130SBC   C0AS91744   2.137   3.940   5.449
  130SBC   C0AR91745   2.216   3.962   5.331
  130SBC   C0BE91746   2.056   3.819   5.618
  130SBC   C0DN91747   1.921   3.687   6.042
  130SBC   C0AX91748   2.019   3.712   5.701
  130SBC   C0BB91749   1.963   3.918   6.005
  130SBC   C0BD91750   2.053   3.953   5.655
  130SBC   C0B291751   2.019   4.151   5.955
  130SBC   C0AH91752   2.110   4.347   5.781
  130SBC   C0BF91753   2.109   4.033   5.556
  130SBC   C0AL91754   2.186   4.489   5.570
  130SBC   C07U91755   2.221   4.217   5.326
  130SBC   C0AQ91756   2.232   4.087   5.272
  130SBC   C0BG91757   2.267   3.863   5.234
  130SBC   C0FY91758   2.511   3.940   4.989
  130SBC   C0BJ91759   2.382   3.773   5.261
  130SBC   H00S91760   2.408   3.722   5.352
  130SBC   C0FZ91761   2.625   3.869   5.011
  130SBC   C07S91762   2.529   4.076   4.953
  130SBC   C0G191763   2.875   4.044   4.823
  130SBC   C07K91764   2.808   4.392   4.701
  130SBC   C07H91765   2.577   4.346   4.863
  130SBC   C06B91766   2.439   4.599   4.665
  130SBC   C06N91767   2.363   4.731   4.838
  130SBC   C06691768   2.386   4.406   5.034
  130SBC   C06291769   2.254   4.577   5.256
  130SBC   C05Y91770   2.305   4.887   5.027
  130SBC   C06191771   2.193   4.687   5.318
  130SBC   C05H91772   2.283   5.033   5.333
  130SBC   C06V91773   2.206   4.719   5.458
  130SBC   C06Y91774   2.199   4.818   5.717
  130SBC   C05C91775   2.234   5.162   5.570
  130SBC   C06Z91776   2.159   4.978   5.882
  130SBC   C07091777   2.118   5.242   5.966
  130SBC   C05B91778   2.223   5.289   5.614
  130SBC   C05791779   2.187   5.557   5.701
  130SBC   C05991780   2.134   5.475   5.921
  131SBC   C05891781   3.625   2.130   7.669
  131SBC   C05A91782   3.749   2.061   7.648
  131SBC   C06Q91783   3.868   2.119   7.698
  131SBC   C06R91784   3.993   2.060   7.675
  131SBC   C06S91785   4.004   1.939   7.597
  131SBC   C06T91786   4.134   1.893   7.570
  131SBC   C06U91787   4.176   1.762   7.511
  131SBC   C06X91788   4.108   1.644   7.468
  131SBC   C06091789   4.192   1.526   7.461
  131SBC   C05Z91790   4.194   1.429   7.360
  131SBC   C06891791   4.343   1.412   7.328
  131SBC   C06791792   4.408   1.332   7.226
  131SBC   C06991793   4.329   1.243   7.141
  131SBC   C06A91794   4.374   1.164   7.020
  131SBC   C07391795   4.466   1.208   6.926
  131SBC   C07P91796   4.425   1.194   6.787
  131SBC   C07O91797   4.301   1.164   6.729
  131SBC   H00D91798   4.219   1.148   6.797
  131SBC   C07N91799   4.278   1.139   6.596
  131SBC   H00E91800   4.182   1.111   6.555
  131SBC   C07M91801   4.383   1.158   6.511
  131SBC   H00F91802   4.373   1.138   6.406
  131SBC   C07L91803   4.503   1.208   6.556
  131SBC   C07Q91804   4.610   1.250   6.470
  131SBC   H00G91805   4.585   1.249   6.366
  131SBC   O00F91806   4.737   1.287   6.509
  131SBC   C07J91807   4.767   1.286   6.645
  131SBC   C07I91808   4.661   1.248   6.740
  131SBC   N00491809   4.693   1.254   6.880
  131SBC   C07R91810   4.834   1.256   6.912
  131SBC   C07T91811   4.930   1.285   6.815
  131SBC   C0FX91812   5.062   1.308   6.846
  131SBC   C0FW91813   5.161   1.355   6.760
  131SBC   C0G091814   5.120   1.372   6.624
  131SBC   C0G291815   5.207   1.426   6.524
  131SBC   H01E91816   5.200   1.431   6.417
  131SBC   C0G391817   5.341   1.451   6.566
  131SBC   H01C91818   5.418   1.508   6.516
  131SBC   C0G491819   5.372   1.443   6.703
  131SBC   H01D91820   5.472   1.476   6.727
  131SBC   O00E91821   4.988   1.336   6.590
  131SBC   C0FV91822   5.288   1.395   6.802
  131SBC   C0FU91823   5.313   1.389   6.944
  131SBC   H01B91824   5.398   1.443   6.982
  131SBC   C0FT91825   5.226   1.327   7.033
  131SBC   C0FS91826   5.204   1.323   7.177
  131SBC   C0BI91827   5.084   1.249   7.196
  131SBC   C0BH91828   5.036   1.266   7.324
  131SBC   C07F91829   4.899   1.327   7.344
  131SBC   C07E91830   4.779   1.294   7.277
  131SBC   C07G91831   4.768   1.255   7.145
  131SBC   C07491832   4.635   1.267   7.109
  131SBC   C06591833   4.653   1.352   7.305
  131SBC   C06491834   4.655   1.454   7.402
  131SBC   C06391835   4.559   1.531   7.445
  131SBC   C07591836   4.620   1.640   7.526
  131SBC   C0AM91837   4.761   1.624   7.540
  131SBC   C0AN91838   4.863   1.711   7.612
  131SBC   C0AO91839   4.844   1.839   7.692
  131SBC   C0B191840   4.949   1.897   7.770
  131SBC   C0B091841   5.075   1.846   7.769
  131SBC   C0AZ91842   5.189   1.895   7.835
  131SBC   C0AY91843   5.311   1.831   7.820
  131SBC   N00791844   5.423   1.887   7.882
  131SBC   C0E291845   5.549   1.825   7.869
  131SBC   C0E191846   5.661   1.895   7.920
  131SBC   C0E491847   5.785   1.845   7.894
  131SBC   C0FF91848   5.906   1.901   7.946
  131SBC   C0FJ91849   6.047   1.881   7.916
  131SBC   C0FK91850   6.104   1.843   7.788
  131SBC   H01691851   6.061   1.789   7.705
  131SBC   C0FL91852   6.245   1.891   7.789
  131SBC   H01791853   6.324   1.885   7.715
  131SBC   C0FM91854   6.264   1.955   7.915
  131SBC   C0FH91855   6.337   2.072   7.978
  131SBC   C0FI91856   6.237   2.113   8.075
  131SBC   C0F391857   6.230   2.254   8.107
  131SBC   C0F291858   6.101   2.289   8.150
  131SBC   C0DW91859   5.990   2.211   8.134
  131SBC   C0FE91860   5.994   2.084   8.086
  131SBC   C0DV91861   5.862   2.267   8.144
  131SBC   C0DX91862   5.752   2.197   8.104
  131SBC   C0DK91863   5.628   2.258   8.111
  131SBC   C0DJ91864   5.617   2.394   8.152
  131SBC   C0DI91865   5.490   2.453   8.155
  131SBC   C0DH91866   5.377   2.379   8.129
  131SBC   C0DG91867   5.386   2.247   8.087
  131SBC   C0BV91868   5.274   2.186   8.031
  131SBC   C0BC91869   5.286   2.067   7.962
  131SBC   C0BA91870   5.151   2.246   8.051
  131SBC   C0B491871   5.044   2.188   7.991
  131SBC   C0B391872   5.052   2.071   7.914
  131SBC   C0B591873   4.918   2.244   8.013
  131SBC   C0BU91874   4.903   2.359   8.095
  131SBC   C0BT91875   5.012   2.425   8.142
  131SBC   C0BS91876   5.005   2.548   8.213
  131SBC   C0CC91877   5.121   2.623   8.232
  131SBC   C0CB91878   5.115   2.746   8.286
  131SBC   C0CH91879   5.225   2.836   8.256
  131SBC   C0DO91880   5.354   2.778   8.242
  131SBC   C0DP91881   5.469   2.859   8.252
  131SBC   C0EA91882   5.461   3.002   8.289
  131SBC   H01291883   5.364   3.048   8.304
  131SBC   O00991884   5.575   3.073   8.316
  131SBC   C0EH91885   5.691   3.017   8.272
  131SBC   C0EG91886   5.811   3.090   8.297
  131SBC   C0EJ91887   5.837   3.218   8.360
  131SBC   H01091888   5.752   3.272   8.399
  131SBC   C0EK91889   5.979   3.242   8.349
  131SBC   H00Z91890   6.034   3.329   8.383
  131SBC   C0EL91891   6.031   3.129   8.277
  131SBC   C0EM91892   6.168   3.105   8.227
  131SBC   C0EW91893   6.284   3.184   8.239
  131SBC   H01391894   6.277   3.280   8.287
  131SBC   C0EX91895   6.411   3.136   8.185
  131SBC   H01491896   6.501   3.196   8.186
  131SBC   C0F191897   6.420   2.996   8.133
  131SBC   C0EU91898   6.302   2.921   8.131
  131SBC   C0ET91899   6.291   2.787   8.084
  131SBC   C0ES91900   6.149   2.764   8.095
  131SBC   C0EE91901   6.084   2.878   8.146
  131SBC   C0ED91902   5.951   2.917   8.185
  131SBC   C0EC91903   5.836   2.830   8.187
  131SBC   C0EB91904   5.841   2.690   8.177
  131SBC   C0EN91905   5.965   2.618   8.162
  131SBC   C0ER91906   5.964   2.484   8.170
  131SBC   C0DS91907   5.722   2.609   8.185
  131SBC   C0DR91908   5.600   2.669   8.193
  131SBC   C0EY91909   6.108   2.642   8.136
  131SBC   C0EZ91910   6.184   2.521   8.122
  131SBC   C0F591911   6.312   2.479   8.074
  131SBC   C0F691912   6.411   2.570   8.038
  131SBC   N00891913   6.535   2.506   7.978
  131SBC   C0F791914   6.548   2.366   7.942
  131SBC   C0FQ91915   6.675   2.322   7.881
  131SBC   H01891916   6.688   2.216   7.867
  131SBC   C0FP91917   6.784   2.407   7.866
  131SBC   H01991918   6.880   2.369   7.834
  131SBC   C0FO91919   6.769   2.545   7.905
  131SBC   H01A91920   6.858   2.606   7.908
  131SBC   C0F891921   6.434   2.290   7.982
  131SBC   C0F991922   6.655   2.594   7.969
  131SBC   C0FA91923   6.654   2.730   8.016
  131SBC   H01591924   6.739   2.796   8.005
  131SBC   C0FB91925   6.531   2.793   8.066
  131SBC   C0FD91926   6.412   2.711   8.066
  131SBC   C0FC91927   6.536   2.930   8.097
  131SBC   O00A91928   6.641   2.996   8.092
  131SBC   C0EV91929   6.181   2.974   8.168
  131SBC   C0EF91930   5.927   3.039   8.247
  131SBC   C0EI91931   5.707   2.886   8.223
  131SBC   C0DQ91932   5.592   2.804   8.222
  131SBC   C0CE91933   5.362   2.638   8.213
  131SBC   H00U91934   5.204   2.942   8.264
  131SBC   C0CA91935   4.998   2.786   8.359
  131SBC   C0C991936   4.877   2.713   8.343
  131SBC   C0C891937   4.769   2.741   8.441
  131SBC   C0C791938   4.625   2.714   8.431
  131SBC   C0C691939   4.537   2.767   8.532
  131SBC   C0C591940   4.401   2.822   8.543
  131SBC   C0CQ91941   4.383   2.930   8.628
  131SBC   C0D191942   4.496   3.008   8.659
  131SBC   C0D891943   4.466   3.144   8.659
  131SBC   C0D791944   4.323   3.149   8.665
  131SBC   C0D691945   4.244   3.264   8.657
  131SBC   C0D591946   4.105   3.262   8.673
  131SBC   C0D491947   4.014   3.157   8.671
  131SBC   C0D391948   3.885   3.219   8.644
  131SBC   C0CX91949   3.817   3.117   8.559
  131SBC   C0CW91950   3.911   3.017   8.503
  131SBC   C0CV91951   3.925   2.908   8.401
  131SBC   C0D291952   3.812   2.882   8.323
  131SBC   C09D91953   3.683   2.945   8.327
  131SBC   C09C91954   3.579   2.902   8.240
  131SBC   C09B91955   3.444   2.950   8.238
  131SBC   C09A91956   3.419   3.046   8.339
  131SBC   C09991957   3.517   3.106   8.412
  131SBC   C09891958   3.460   3.174   8.515
  131SBC   C08Y91959   3.319   3.134   8.527
  131SBC   C08X91960   3.226   3.165   8.631
  131SBC   C08W91961   3.260   3.242   8.749
  131SBC   C08U91962   3.393   3.278   8.797
  131SBC   C08V91963   3.528   3.245   8.749
  131SBC   C0DC91964   3.610   3.311   8.847
  131SBC   H00W91965   3.718   3.311   8.842
  131SBC   C0DB91966   3.540   3.378   8.947
  131SBC   H00X91967   3.578   3.431   9.033
  131SBC   C08T91968   3.405   3.357   8.916
  131SBC   C08S91969   3.298   3.402   8.985
  131SBC   H00N91970   3.310   3.469   9.069
  131SBC   C08R91971   3.171   3.364   8.953
  131SBC   C08Q91972   3.046   3.405   9.020
  131SBC   H00O91973   3.058   3.468   9.107
  131SBC   C08P91974   2.911   3.354   9.000
  131SBC   C08O91975   2.797   3.390   9.079
  131SBC   H00P91976   2.805   3.472   9.148
  131SBC   C08N91977   2.673   3.320   9.052
  131SBC   C08M91978   2.561   3.345   9.138
  131SBC   O00891979   2.559   3.427   9.234
  131SBC   O00791980   2.449   3.273   9.117
  131SBC   C08H91981   2.432   3.176   9.018
  131SBC   C08G91982   2.310   3.099   8.997
  131SBC   C03V91983   2.189   3.106   9.059
  131SBC   H00991984   2.187   3.184   9.134
  131SBC   C03U91985   2.085   3.018   9.044
  131SBC   C03W91986   1.960   3.017   9.118
  131SBC   H00A91987   1.958   3.090   9.197
  131SBC   C03X91988   1.860   2.933   9.087
  131SBC   H00B91989   1.766   2.935   9.141
  131SBC   O00591990   1.876   2.835   8.996
  131SBC   C03O91991   1.994   2.831   8.920
  131SBC   C03N91992   2.010   2.741   8.819
  131SBC   O00091993   1.919   2.633   8.819
  131SBC   C01991994   1.930   2.540   8.724
  131SBC   C01891995   2.042   2.529   8.641
  131SBC   C01791996   2.136   2.631   8.649
  131SBC   C01691997   2.249   2.619   8.566
  131SBC   C01591998   2.241   2.515   8.472
  131SBC   C01491999   2.349   2.506   8.379
  131SBC   C01392000   2.458   2.603   8.377
  131SBC   C01292001   2.533   2.560   8.264
  131SBC   C01192002   2.459   2.460   8.207
  131SBC   C01092003   2.501   2.403   8.094
  131SBC   C00Z92004   2.448   2.299   8.021
  131SBC   C00Y92005   2.536   2.267   7.919
  131SBC   C01O92006   2.639   2.364   7.915
  131SBC   C01P92007   2.770   2.327   7.878
  131SBC   C02L92008   2.867   2.405   7.920
  131SBC   C02K92009   2.835   2.502   8.018
  131SBC   C01M92010   2.712   2.514   8.089
  131SBC   C02J92011   2.941   2.591   8.039
  131SBC   C02I92012   2.939   2.710   8.116
  131SBC   C02H92013   2.848   2.757   8.207
  131SBC   C01Q92014   2.724   2.705   8.249
  131SBC   C02G92015   2.676   2.785   8.357
  131SBC   C08992016   2.768   2.891   8.371
  131SBC   C08892017   2.762   2.961   8.495
  131SBC   C08792018   2.642   2.896   8.550
  131SBC   C08692019   2.571   2.939   8.663
  131SBC   C03S92020   2.443   2.907   8.709
  131SBC   N00692021   2.416   2.992   8.817
  131SBC   C08F92022   2.526   3.069   8.841
  131SBC   C01J92023   2.342   2.814   8.678
  131SBC   C03R92024   2.223   2.832   8.750
  131SBC   C03Q92025   2.207   2.920   8.862
  131SBC   C08E92026   2.624   3.045   8.748
  131SBC   C08D92027   2.750   3.110   8.764
  131SBC   C08K92028   2.773   3.202   8.868
  131SBC   C08C92029   2.864   3.101   8.676
  131SBC   C09192030   2.990   3.163   8.702
  131SBC   C09292031   3.018   3.247   8.812
  131SBC   C08B92032   2.875   3.031   8.557
  131SBC   C09092033   3.010   3.057   8.509
  131SBC   C09492034   3.060   3.020   8.378
  131SBC   C09592035   3.195   3.007   8.347
  131SBC   C09R92036   3.213   2.925   8.229
  131SBC   C09792037   3.094   2.876   8.191
  131SBC   C09692038   2.999   2.928   8.281
  131SBC   C01I92039   2.583   2.786   8.471
  131SBC   C08A92040   2.873   2.868   8.285
  131SBC   C09L92041   3.068   2.766   8.105
  131SBC   C09K92042   3.148   2.680   8.022
  131SBC   C09J92043   3.287   2.690   8.013
  131SBC   C09I92044   3.376   2.596   7.956
  131SBC   C09O92045   3.366   2.473   7.875
  131SBC   C09N92046   3.237   2.410   7.849
  131SBC   C09M92047   3.108   2.446   7.900
  131SBC   C06O92048   3.248   2.292   7.772
  131SBC   C05M92049   3.371   2.245   7.727
  131SBC   C06P92050   3.495   2.300   7.775
  131SBC   C04292051   3.376   2.125   7.653
  131SBC   C04192052   3.264   2.059   7.617
  131SBC   C04092053   3.274   1.936   7.551
  131SBC   C03Z92054   3.160   1.853   7.524
  131SBC   C03Y92055   3.036   1.902   7.565
  131SBC   C02792056   2.921   1.824   7.539
  131SBC   C02692057   2.797   1.865   7.583
  131SBC   C02892058   2.686   1.784   7.575
  131SBC   C02992059   2.700   1.661   7.514
  131SBC   C02B92060   2.587   1.574   7.510
  131SBC   C02C92061   2.602   1.441   7.463
  131SBC   C02X92062   2.493   1.360   7.467
  131SBC   C03E92063   2.517   1.236   7.429
  131SBC   C03G92064   2.639   1.179   7.394
  131SBC   C04Q92065   2.745   1.267   7.380
  131SBC   C04R92066   2.865   1.214   7.347
  131SBC   C04S92067   2.972   1.297   7.346
  131SBC   C04L92068   2.958   1.431   7.395
  131SBC   C04M92069   2.833   1.482   7.433
  131SBC   C04K92070   3.073   1.511   7.413
  131SBC   C04F92071   3.195   1.459   7.375
  131SBC   C04E92072   3.209   1.330   7.332
  131SBC   C04D92073   3.334   1.280   7.307
  131SBC   C05092074   3.348   1.147   7.271
  131SBC   C05192075   3.475   1.094   7.246
  131SBC   C05Q92076   3.490   0.963   7.204
  131SBC   C05V92077   3.619   0.914   7.180
  131SBC   N00592078   3.629   0.784   7.130
  131SBC   C07V92079   3.520   0.700   7.135
  131SBC   C08292080   3.533   0.568   7.086
  131SBC   C08192081   3.646   0.516   7.034
  131SBC   C07C92082   3.755   0.603   7.029
  131SBC   C07B92083   3.878   0.560   6.973
  131SBC   C08092084   3.892   0.433   6.912
  131SBC   C07Z92085   4.011   0.404   6.847
  131SBC   H00L92086   4.022   0.300   6.818
  131SBC   C07992087   4.121   0.492   6.831
  131SBC   C07892088   4.106   0.623   6.891
  131SBC   C07792089   4.210   0.714   6.887
  131SBC   C07X92090   4.329   0.679   6.827
  131SBC   H00I92091   4.422   0.734   6.831
  131SBC   C07Y92092   4.343   0.563   6.759
  131SBC   H00H92093   4.435   0.528   6.716
  131SBC   C07692094   4.199   0.835   6.946
  131SBC   C06C92095   4.300   0.938   6.933
  131SBC   H00C92096   4.388   0.923   6.873
  131SBC   C06F92097   4.084   0.869   7.015
  131SBC   C06E92098   4.072   0.993   7.083
  131SBC   C06G92099   3.962   1.035   7.148
  131SBC   C06H92100   3.851   0.949   7.143
  131SBC   C06I92101   3.858   0.824   7.084
  131SBC   C06L92102   3.963   1.154   7.218
  131SBC   C06M92103   4.079   1.240   7.237
  131SBC   C06K92104   3.835   1.199   7.260
  131SBC   C05S92105   3.717   1.127   7.237
  131SBC   C05U92106   3.825   1.332   7.306
  131SBC   C05X92107   3.938   1.414   7.333
  131SBC   C05G92108   3.903   1.541   7.381
  131SBC   C05F92109   3.771   1.591   7.382
  131SBC   C05E92110   3.760   1.714   7.439
  131SBC   C04892111   3.638   1.776   7.459
  131SBC   C05692112   3.640   1.893   7.527
  131SBC   C04592113   3.514   1.956   7.543
  131SBC   C04792114   3.529   1.697   7.434
  131SBC   C04992115   3.540   1.566   7.389
  131SBC   C04B92116   3.430   1.486   7.369
  131SBC   C04692117   3.409   1.747   7.474
  131SBC   C04H92118   3.297   1.669   7.455
  131SBC   C05D92119   3.882   1.756   7.483
  131SBC   C04A92120   3.660   1.513   7.359
  131SBC   C05T92121   3.688   1.382   7.319
  131SBC   C05592122   3.571   1.305   7.299
  131SBC   C06D92123   4.183   1.076   7.091
  131SBC   C07W92124   3.976   0.782   7.019
  131SBC   C08592125   4.241   0.469   6.761
  131SBC   H00M92126   4.251   0.375   6.707
  131SBC   C08492127   3.788   0.344   6.932
  131SBC   H00J92128   3.805   0.244   6.896
  131SBC   C07A92129   3.985   0.652   6.963
  131SBC   C08392130   3.667   0.383   6.994
  131SBC   H00K92131   3.586   0.312   7.000
  131SBC   O00K92132   3.428   0.485   7.086
  131SBC   C0GO92133   3.305   0.525   7.125
  131SBC   C0GN92134   3.200   0.434   7.141
  131SBC   H01L92135   3.222   0.328   7.132
  131SBC   C0GM92136   3.072   0.476   7.191
  131SBC   C0GL92137   2.976   0.385   7.201
  131SBC   H01M92138   2.985   0.282   7.169
  131SBC   O00J92139   2.849   0.426   7.242
  131SBC   C0GK92140   2.841   0.563   7.278
  131SBC   H01N92141   2.745   0.576   7.325
  131SBC   C05K92142   2.937   0.653   7.253
  131SBC   C05J92143   2.916   0.796   7.278
  131SBC   C04Y92144   2.790   0.855   7.310
  131SBC   C04X92145   2.773   0.991   7.335
  131SBC   O00692146   2.678   0.777   7.319
  131SBC   C05392147   2.559   0.810   7.377
  131SBC   C04O92148   2.539   0.948   7.399
  131SBC   C03C92149   2.416   1.004   7.447
  131SBC   C03B92150   2.292   0.956   7.505
  131SBC   C05492151   2.265   0.821   7.522
  131SBC   C0GR92152   2.148   0.775   7.590
  131SBC   C03M92153   2.037   0.839   7.659
  131SBC   C03I92154   2.021   0.981   7.685
  131SBC   C03J92155   1.906   1.018   7.763
  131SBC   N00292156   1.890   1.154   7.810
  131SBC   C02U92157   1.785   1.191   7.902
  131SBC   C02T92158   1.773   1.320   7.945
  131SBC   C02Z92159   1.673   1.352   8.040
  131SBC   N00192160   1.665   1.483   8.097
  131SBC   C02R92161   1.560   1.512   8.187
  131SBC   C03292162   1.474   1.412   8.234
  131SBC   C03192163   1.493   1.281   8.187
  131SBC   H00792164   1.440   1.193   8.220
  131SBC   C03392165   1.374   1.453   8.322
  131SBC   H00392166   1.311   1.378   8.368
  131SBC   O00492167   1.341   1.584   8.347
  131SBC   C03492168   1.426   1.681   8.299
  131SBC   C03592169   1.405   1.811   8.345
  131SBC   C03692170   1.491   1.910   8.291
  131SBC   H00592171   1.476   2.014   8.318
  131SBC   C03792172   1.607   1.877   8.218
  131SBC   H00692173   1.668   1.960   8.186
  131SBC   C00D92174   1.634   1.743   8.187
  131SBC   C00C92175   1.752   1.706   8.122
  131SBC   C00B92176   1.857   1.806   8.091
  131SBC   C00A92177   1.923   1.937   8.133
  131SBC   C00992178   2.026   1.951   8.035
  131SBC   C00892179   2.134   2.039   8.040
  131SBC   C00792180   2.136   2.134   8.143
  131SBC   C00692181   2.245   2.224   8.144
  131SBC   C00592182   2.249   2.312   8.257
  131SBC   C00492183   2.144   2.322   8.354
  131SBC   C00392184   2.039   2.228   8.348
  131SBC   C00292185   1.935   2.227   8.446
  131SBC   C01C92186   1.933   2.342   8.527
  131SBC   C01B92187   1.823   2.359   8.614
  131SBC   H00092188   1.734   2.302   8.593
  131SBC   C00192189   1.851   2.115   8.456
  131SBC   C00092190   1.865   2.013   8.362
  131SBC   C01U92191   1.812   1.897   8.428
  131SBC   H00292192   1.815   1.795   8.393
  131SBC   C01T92193   1.755   1.947   8.557
  131SBC   O00292194   1.695   1.886   8.641
  131SBC   O00192195   1.788   2.078   8.565
  131SBC   C01S92196   2.039   2.130   8.242
  131SBC   C00N92197   2.229   2.020   7.938
  131SBC   C00M92198   2.232   1.912   7.854
  131SBC   C00J92199   2.129   1.822   7.853
  131SBC   C00I92200   2.132   1.698   7.795
  131SBC   C00H92201   2.035   1.607   7.819
  131SBC   C00G92202   1.940   1.632   7.913
  131SBC   C00F92203   1.852   1.539   7.962
  131SBC   C01X92204   2.043   1.481   7.765
  131SBC   C01W92205   2.150   1.455   7.686
  131SBC   C01V92206   2.244   1.556   7.651
  131SBC   C02092207   2.357   1.524   7.576
  131SBC   C01Z92208   2.172   1.326   7.654
  131SBC   C02Y92209   2.280   1.306   7.569
  131SBC   C03992210   2.299   1.177   7.531
  131SBC   C02W92211   2.085   1.220   7.688
  131SBC   C01Y92212   1.959   1.383   7.812
  131SBC   C00U92213   2.241   1.678   7.710
  131SBC   C00S92214   2.344   1.770   7.696
  131SBC   C00T92215   2.455   1.738   7.622
  131SBC   C00R92216   2.335   1.890   7.764
  131SBC   C00Q92217   2.439   1.975   7.766
  131SBC   C00V92218   2.557   1.938   7.697
  131SBC   C02492219   2.668   2.016   7.707
  131SBC   C00X92220   2.663   2.131   7.776
  131SBC   C00P92221   2.438   2.080   7.851
  131SBC   C00O92222   2.333   2.107   7.938
  131SBC   C00K92223   2.020   1.850   7.934
  131SBC   N00092224   1.938   2.027   8.243
  131SBC   C00L92225   1.935   1.757   7.981
  131SBC   H00492226   1.340   1.846   8.424
  131SBC   C02Q92227   1.538   1.643   8.220
  131SBC   C00E92228   1.762   1.579   8.059
  131SBC   C03092229   1.588   1.251   8.084
  131SBC   O00392230   1.602   1.120   8.046
  131SBC   C02S92231   1.861   1.413   7.909
  131SBC   C03892232   1.691   1.094   7.946
  131SBC   C03L92233   1.696   0.971   7.886
  131SBC   H00892234   1.625   0.895   7.916
  131SBC   C02V92235   1.978   1.253   7.769
  131SBC   C03K92236   1.808   0.928   7.801
  131SBC   C0BK92237   1.821   0.795   7.759
  131SBC   H00T92238   1.749   0.723   7.795
  131SBC   C03H92239   2.106   1.087   7.646
  131SBC   C0BL92240   1.934   0.748   7.695
  131SBC   C0GU92241   1.949   0.607   7.673
  131SBC   H01O92242   1.881   0.543   7.728
  131SBC   C0GT92243   2.061   0.549   7.620
  131SBC   H01P92244   2.063   0.441   7.620
  131SBC   C0GS92245   2.153   0.636   7.567
  131SBC   C0GV92246   2.264   0.599   7.487
  131SBC   C0GW92247   2.310   0.471   7.442
  131SBC   H01Q92248   2.267   0.376   7.473
  131SBC   C0GX92249   2.427   0.472   7.372
  131SBC   H01R92250   2.463   0.376   7.338
  131SBC   O00L92251   2.498   0.587   7.348
  131SBC   C0GQ92252   2.338   0.717   7.463
  131SBC   C03A92253   2.220   1.069   7.564
  131SBC   C05L92254   2.463   0.708   7.399
  131SBC   C04W92255   3.021   0.883   7.262
  131SBC   C05I92256   3.149   0.836   7.243
  131SBC   C05O92257   3.165   0.704   7.212
  131SBC   C05292258   3.258   0.924   7.232
  131SBC   C04V92259   3.008   1.020   7.291
  131SBC   C04U92260   3.117   1.110   7.293
  131SBC   N00992261   3.058   0.613   7.216
  131SBC   C0GP92262   3.286   0.665   7.163
  131SBC   C05W92263   3.396   0.752   7.163
  131SBC   C07D92264   3.749   0.736   7.081
  131SBC   C06J92265   3.732   0.997   7.185
  131SBC   C05P92266   3.384   0.879   7.201
  131SBC   C05R92267   3.589   1.172   7.261
  131SBC   C04Z92268   3.238   1.062   7.260
  131SBC   C04C92269   3.445   1.358   7.325
  131SBC   C04G92270   3.309   1.540   7.400
  131SBC   C04J92271   3.063   1.643   7.458
  131SBC   C04T92272   3.103   1.246   7.325
  131SBC   N00392273   2.880   1.077   7.322
  131SBC   C04P92274   2.651   1.039   7.376
  131SBC   C03D92275   2.415   1.142   7.462
  131SBC   C02192276   2.376   1.397   7.530
  131SBC   C03F92277   2.727   1.399   7.421
  131SBC   C02292278   2.465   1.611   7.567
  131SBC   C02A92279   2.824   1.614   7.480
  131SBC   C02392280   2.568   1.823   7.628
  131SBC   C02592281   2.789   1.984   7.649
  131SBC   C02D92282   2.906   2.062   7.675
  131SBC   C02E92283   2.900   2.176   7.756
  131SBC   C02N92284   3.010   2.256   7.790
  131SBC   C04N92285   2.934   1.694   7.492
  131SBC   C02P92286   3.027   2.021   7.630
  131SBC   C04I92287   3.175   1.722   7.477
  131SBC   C04492288   3.398   1.879   7.520
  131SBC   C04392289   3.138   2.103   7.664
  131SBC   C05N92290   3.132   2.216   7.746
  131SBC   C09U92291   3.493   2.410   7.855
  131SBC   C09V92292   3.615   2.463   7.908
  131SBC   C09X92293   3.623   2.578   7.980
  131SBC   C09Y92294   3.727   2.626   8.052
  131SBC   C0A192295   3.842   2.555   8.042
  131SBC   C0A292296   3.849   2.450   7.955
  131SBC   C0A492297   3.965   2.381   7.941
  131SBC   C07192298   3.968   2.268   7.857
  131SBC   C0A592299   4.094   2.214   7.826
  131SBC   C0A992300   4.207   2.254   7.893
  131SBC   C0A892301   4.198   2.357   7.987
  131SBC   C0AP92302   4.309   2.396   8.056
  131SBC   C0BY92303   4.293   2.496   8.150
  131SBC   C0BX92304   4.181   2.566   8.181
  131SBC   C0C292305   4.176   2.666   8.276
  131SBC   C0C392306   4.058   2.734   8.294
  131SBC   C0CT92307   3.945   2.707   8.213
  131SBC   C0C192308   4.289   2.705   8.350
  131SBC   C0C092309   4.417   2.651   8.307
  131SBC   C0A792310   4.070   2.529   8.101
  131SBC   C0BZ92311   4.409   2.540   8.215
  131SBC   C0BO92312   4.532   2.491   8.178
  131SBC   C0BN92313   4.544   2.388   8.090
  131SBC   C0BM92314   4.672   2.342   8.070
  131SBC   C0B992315   4.681   2.241   7.978
  131SBC   C0B892316   4.568   2.193   7.910
  131SBC   C0AD92317   4.442   2.241   7.941
  131SBC   C0AF92318   4.583   2.096   7.815
  131SBC   C0AG92319   4.705   2.027   7.793
  131SBC   C0B792320   4.815   2.075   7.861
  131SBC   C0AE92321   4.471   2.055   7.746
  131SBC   C0AB92322   4.344   2.105   7.771
  131SBC   C0AA92323   4.228   2.064   7.707
  131SBC   C0AJ92324   4.484   1.953   7.656
  131SBC   C0AK92325   4.372   1.907   7.596
  131SBC   C06W92326   4.409   1.791   7.538
  131SBC   C0AI92327   4.598   1.868   7.642
  131SBC   C0BP92328   4.633   2.562   8.241
  131SBC   C0BQ92329   4.770   2.523   8.213
  131SBC   C0BW92330   4.429   2.336   8.037
  131SBC   C0AC92331   4.333   2.201   7.866
  131SBC   C0A692332   4.079   2.421   8.008
  131SBC   C0A392333   3.951   2.595   8.121
  131SBC   C09Z92334   3.720   2.736   8.142
  131SBC   C09W92335   3.732   2.403   7.889
  131SBC   C07292336   3.737   2.289   7.804
  131SBC   C09H92337   3.502   2.637   7.999
  131SBC   C09G92338   3.499   2.756   8.069
  131SBC   C09P92339   3.365   2.788   8.081
  131SBC   C02O92340   3.072   2.570   7.974
  131SBC   C02M92341   2.997   2.367   7.875
  131SBC   C02F92342   2.773   2.216   7.797
  131SBC   C00W92343   2.545   2.155   7.845
  131SBC   C01R92344   2.344   2.205   8.040
  131SBC   C01N92345   2.623   2.425   8.038
  131SBC   C01L92346   2.662   2.593   8.202
  131SBC   C01H92347   2.465   2.705   8.480
  131SBC   C01K92348   2.351   2.414   8.276
  131SBC   C01E92349   2.142   2.421   8.455
  131SBC   C01G92350   2.352   2.714   8.577
  131SBC   C01D92351   2.039   2.428   8.540
  131SBC   C01A92352   1.822   2.454   8.717
  131SBC   H00192353   1.733   2.461   8.778
  131SBC   C01F92354   2.125   2.738   8.738
  131SBC   C03P92355   2.094   2.927   8.943
  131SBC   C03T92356   2.310   3.002   8.899
  131SBC   C08I92357   2.541   3.163   8.936
  131SBC   C08J92358   2.662   3.228   8.951
  131SBC   C08L92359   2.904   3.268   8.892
  131SBC   C09392360   3.150   3.283   8.839
  131SBC   C08Z92361   3.089   3.126   8.610
  131SBC   C09T92362   3.564   3.197   8.611
  131SBC   C09S92363   3.299   3.063   8.408
  131SBC   C09Q92364   3.333   2.884   8.177
  131SBC   C09F92365   3.605   2.798   8.154
  131SBC   C09E92366   3.638   3.047   8.427
  131SBC   C0A092367   3.824   2.778   8.229
  131SBC   C0CU92368   4.049   2.838   8.393
  131SBC   C0CR92369   4.162   2.870   8.472
  131SBC   C0CZ92370   4.155   2.980   8.563
  131SBC   C0DA92371   3.677   3.115   8.549
  131SBC   C0D992372   3.908   3.357   8.618
  131SBC   H00V92373   3.832   3.426   8.582
  131SBC   C0CY92374   4.032   3.042   8.584
  131SBC   C0DF92375   4.046   3.384   8.639
  131SBC   C0DE92376   4.161   3.478   8.628
  131SBC   C0GI92377   4.170   3.616   8.612
  131SBC   H01K92378   4.086   3.683   8.616
  131SBC   C0GJ92379   4.297   3.670   8.599
  131SBC   H01J92380   4.304   3.777   8.610
  131SBC   O00I92381   4.418   3.599   8.603
  131SBC   C0GH92382   4.415   3.460   8.625
  131SBC   C0GG92383   4.537   3.387   8.632
  131SBC   O00G92384   4.645   3.471   8.609
  131SBC   C0G892385   4.775   3.426   8.606
  131SBC   C0G992386   4.874   3.529   8.613
  131SBC   H01G92387   4.840   3.631   8.610
  131SBC   C0GA92388   5.006   3.494   8.611
  131SBC   H01H92389   5.084   3.567   8.625
  131SBC   C0GB92390   5.042   3.358   8.591
  131SBC   C0EP92391   4.936   3.259   8.575
  131SBC   C0E892392   4.979   3.128   8.527
  131SBC   C0CK92393   4.920   3.005   8.473
  131SBC   C0CL92394   4.810   2.964   8.551
  131SBC   C0E992395   4.712   3.051   8.604
  131SBC   C0GE92396   4.691   3.201   8.611
  131SBC   C0E792397   5.110   3.085   8.545
  131SBC   C0CJ92398   5.136   2.948   8.508
  131SBC   C0E692399   5.263   2.899   8.533
  131SBC   H00Y92400   5.283   2.794   8.516
  131SBC   C0EO92401   5.362   2.994   8.576
  131SBC   H01192402   5.462   2.955   8.591
  131SBC   C0G692403   5.337   3.134   8.588
  131SBC   C0G592404   5.444   3.237   8.610
  131SBC   H01F92405   5.549   3.210   8.616
  131SBC   C0GD92406   5.404   3.363   8.615
  131SBC   H01I92407   5.482   3.437   8.628
  131SBC   O00H92408   5.275   3.405   8.601
  131SBC   C0EQ92409   5.207   3.180   8.577
  131SBC   C0GC92410   5.179   3.317   8.589
  131SBC   C0G792411   4.802   3.292   8.592
  131SBC   C0DD92412   4.284   3.399   8.638
  131SBC   C0GF92413   4.562   3.248   8.644
  131SBC   C0CO92414   4.617   2.962   8.633
  131SBC   C0D092415   4.279   3.020   8.621
  131SBC   C0C492416   4.290   2.805   8.450
  131SBC   C0CN92417   4.640   2.827   8.618
  131SBC   C0CP92418   4.560   2.652   8.326
  131SBC   C0CM92419   4.771   2.825   8.561
  131SBC   C0CI92420   5.022   2.907   8.438
  131SBC   C0CD92421   5.245   2.568   8.200
  131SBC   C0BR92422   4.880   2.595   8.254
  131SBC   C0CS92423   4.781   2.408   8.128
  131SBC   C0B692424   4.805   2.185   7.953
  131SBC   C0CG92425   5.140   2.372   8.116
  131SBC   C0CF92426   5.254   2.443   8.150
  131SBC   C0E592427   5.485   2.588   8.184
  131SBC   C0DT92428   5.731   2.468   8.178
  131SBC   C0DL92429   5.513   2.191   8.068
  131SBC   C0DM92430   5.527   2.070   8.006
  131SBC   C0DY92431   5.762   2.074   8.042
  131SBC   C0DU92432   5.852   2.403   8.176
  131SBC   C0F092433   6.086   2.425   8.158
  131SBC   C0F492434   6.324   2.342   8.057
  131SBC   C0FG92435   6.124   2.031   8.072
  131SBC   O00B92436   6.437   2.158   7.938
  131SBC   C0FN92437   6.151   1.931   7.988
  131SBC   C0DZ92438   5.885   2.015   8.023
  131SBC   O00C92439   5.794   1.729   7.822
  131SBC   C0FR92440   5.689   1.651   7.786
  131SBC   O00D92441   5.715   1.543   7.725
  131SBC   C0E092442   5.649   2.012   7.989
  131SBC   C0E392443   5.559   1.706   7.802
  131SBC   C0AW92444   5.445   1.647   7.742
  131SBC   C0AV92445   5.438   1.518   7.675
  131SBC   H00Q92446   5.524   1.452   7.667
  131SBC   C0AU92447   5.319   1.473   7.612
  131SBC   H00R92448   5.318   1.381   7.555
  131SBC   C0AT92449   5.207   1.554   7.616
  131SBC   C0AS92450   5.073   1.549   7.561
  131SBC   C0AR92451   5.034   1.456   7.466
  131SBC   C0BE92452   5.216   1.673   7.686
  131SBC   C0DN92453   5.414   2.008   7.958
  131SBC   C0AX92454   5.329   1.712   7.757
  131SBC   C0BB92455   5.175   2.010   7.904
  131SBC   C0BD92456   5.094   1.740   7.686
  131SBC   C0B292457   4.937   2.008   7.848
  131SBC   C0AH92458   4.720   1.909   7.709
  131SBC   C0BF92459   4.999   1.668   7.615
  131SBC   C0AL92460   4.553   1.765   7.561
  131SBC   C07U92461   4.779   1.510   7.459
  131SBC   C0AQ92462   4.897   1.438   7.431
  131SBC   C0BG92463   5.123   1.359   7.397
  131SBC   C0FY92464   5.014   1.245   7.077
  131SBC   C0BJ92465   5.229   1.398   7.302
  131SBC   H00S92466   5.296   1.482   7.316
  131SBC   C0FZ92467   5.106   1.283   6.980
  131SBC   C07S92468   4.871   1.244   7.050
  131SBC   C0G192469   4.896   1.303   6.683
  131SBC   C07K92470   4.528   1.222   6.699
  131SBC   C07H92471   4.592   1.242   6.977
  131SBC   C06B92472   4.293   1.054   7.010
  131SBC   C06N92473   4.190   1.191   7.165
  131SBC   C06692474   4.552   1.311   7.216
  131SBC   C06292475   4.416   1.512   7.414
  131SBC   C05Y92476   4.073   1.357   7.310
  131SBC   C06192477   4.322   1.572   7.490
  131SBC   C05H92478   3.968   1.648   7.447
  131SBC   C06V92479   4.309   1.713   7.503
  131SBC   C06Y92480   4.238   1.961   7.620
  131SBC   C05C92481   3.884   1.888   7.549
  131SBC   C06Z92482   4.105   2.111   7.738
  131SBC   C07092483   3.857   2.223   7.786
  131SBC   C05B92484   3.758   1.949   7.567
  131SBC   C05792485   3.505   2.072   7.616
  131SBC   C05992486   3.620   2.242   7.748
  132SBC   C05892487   6.668  10.617  14.100
  132SBC   C05A92488   6.807  10.607  14.127
  132SBC   C06Q92489   6.902  10.594  14.031
  132SBC   C06R92490   7.038  10.576  14.057
  132SBC   C06S92491   7.085  10.592  14.185
  132SBC   C06T92492   7.224  10.574  14.212
  132SBC   C06U92493   7.302  10.600  14.334
  132SBC   C06X92494   7.268  10.640  14.468
  132SBC   C06092495   7.390  10.652  14.551
  132SBC   C05Z92496   7.411  10.605  14.684
  132SBC   C06892497   7.546  10.531  14.683
  132SBC   C06792498   7.627  10.479  14.797
  132SBC   C06992499   7.589  10.513  14.935
  132SBC   C06A92500   7.664  10.497  15.061
  132SBC   C07392501   7.744  10.388  15.104
  132SBC   C07P92502   7.719  10.348  15.233
  132SBC   C07O92503   7.609  10.387  15.319
  132SBC   H00D92504   7.523  10.439  15.280
  132SBC   C07N92505   7.590  10.347  15.449
  132SBC   H00E92506   7.505  10.379  15.508
  132SBC   C07M92507   7.684  10.262  15.504
  132SBC   H00F92508   7.657  10.228  15.603
  132SBC   C07L92509   7.787  10.213  15.431
  132SBC   C07Q92510   7.883  10.123  15.485
  132SBC   H00G92511   7.868  10.082  15.583
  132SBC   O00F92512   7.998  10.080  15.418
  132SBC   C07J92513   7.998  10.111  15.279
  132SBC   C07I92514   7.903  10.200  15.221
  132SBC   N00492515   7.931  10.244  15.087
  132SBC   C07R92516   8.051  10.202  15.022
  132SBC   C07T92517   8.132  10.103  15.076
  132SBC   C0FX92518   8.235  10.043  15.006
  132SBC   C0FW92519   8.309   9.938  15.045
  132SBC   C0G092520   8.285   9.893  15.182
  132SBC   C0G292521   8.371   9.791  15.235
  132SBC   H01E92522   8.362   9.763  15.339
  132SBC   C0G392523   8.469   9.730  15.155
  132SBC   H01C92524   8.523   9.645  15.193
  132SBC   C0G492525   8.494   9.784  15.025
  132SBC   H01D92526   8.566   9.731  14.964
  132SBC   O00E92527   8.185   9.956  15.259
  132SBC   C0FV92528   8.418   9.887  14.966
  132SBC   C0FU92529   8.428   9.934  14.829
  132SBC   H01B92530   8.501   9.894  14.761
  132SBC   C0FT92531   8.359  10.042  14.789
  132SBC   C0FS92532   8.333  10.124  14.674
  132SBC   C0BI92533   8.261  10.238  14.716
  132SBC   C0BH92534   8.213  10.319  14.611
  132SBC   C07F92535   8.071  10.336  14.592
  132SBC   C07E92536   7.972  10.354  14.688
  132SBC   C07G92537   7.976  10.320  14.823
  132SBC   C07492538   7.852  10.350  14.876
  132SBC   C06592539   7.843  10.397  14.657
  132SBC   C06492540   7.819  10.417  14.518
  132SBC   C06392541   7.711  10.476  14.458
  132SBC   C07592542   7.744  10.475  14.309
  132SBC   C0AM92543   7.868  10.401  14.275
  132SBC   C0AN92544   7.933  10.374  14.142
  132SBC   C0AO92545   7.883  10.390  14.000
  132SBC   C0B192546   7.961  10.362  13.884
  132SBC   C0B092547   8.090  10.311  13.899
  132SBC   C0AZ92548   8.175  10.275  13.798
  132SBC   C0AY92549   8.301  10.225  13.825
  132SBC   N00792550   8.385  10.186  13.724
  132SBC   C0E292551   8.505  10.115  13.753
  132SBC   C0E192552   8.577  10.073  13.643
  132SBC   C0E492553   8.697  10.006  13.669
  132SBC   C0FF92554   8.786   9.957  13.566
  132SBC   C0FJ92555   8.903   9.870  13.572
  132SBC   C0FK92556   8.931   9.771  13.671
  132SBC   H01692557   8.880   9.765  13.766
  132SBC   C0FL92558   9.004   9.660  13.605
  132SBC   H01792559   9.024   9.558  13.635
  132SBC   C0FM92560   9.033   9.712  13.468
  132SBC   C0FH92561   9.054   9.679  13.325
  132SBC   C0FI92562   8.993   9.786  13.254
  132SBC   C0F392563   8.927   9.763  13.134
  132SBC   C0F292564   8.821   9.846  13.113
  132SBC   C0DW92565   8.767   9.939  13.199
  132SBC   C0FE92566   8.823   9.952  13.323
  132SBC   C0DV92567   8.644  10.003  13.172
  132SBC   C0DX92568   8.574  10.063  13.276
  132SBC   C0DK92569   8.444  10.104  13.250
  132SBC   C0DJ92570   8.388  10.088  13.120
  132SBC   C0DI92571   8.265  10.149  13.091
  132SBC   C0DH92572   8.189  10.221  13.188
  132SBC   C0DG92573   8.244  10.224  13.320
  132SBC   C0BV92574   8.167  10.268  13.429
  132SBC   C0BC92575   8.213  10.260  13.563
  132SBC   C0BA92576   8.040  10.322  13.400
  132SBC   C0B492577   7.958  10.356  13.506
  132SBC   C0B392578   8.003  10.347  13.641
  132SBC   C0B592579   7.839  10.409  13.474
  132SBC   C0BU92580   7.789  10.429  13.341
  132SBC   C0BT92581   7.866  10.383  13.241
  132SBC   C0BS92582   7.811  10.388  13.110
  132SBC   C0CC92583   7.886  10.319  13.011
  132SBC   C0CB92584   7.825  10.287  12.888
  132SBC   C0CH92585   7.889  10.183  12.816
  132SBC   C0DO92586   8.018  10.143  12.830
  132SBC   C0DP92587   8.075  10.060  12.734
  132SBC   C0EA92588   8.000  10.022  12.613
  132SBC   H01292589   7.923  10.086  12.572
  132SBC   O00992590   8.046   9.923  12.530
  132SBC   C0EH92591   8.147   9.845  12.577
  132SBC   C0EG92592   8.183   9.738  12.498
  132SBC   C0EJ92593   8.135   9.672  12.375
  132SBC   H01092594   8.045   9.700  12.323
  132SBC   C0EK92595   8.229   9.567  12.333
  132SBC   H00Z92596   8.217   9.506  12.245
  132SBC   C0EL92597   8.327   9.563  12.438
  132SBC   C0EM92598   8.446   9.475  12.460
  132SBC   C0EW92599   8.483   9.362  12.386
  132SBC   H01392600   8.414   9.331  12.309
  132SBC   C0EX92601   8.610   9.296  12.406
  132SBC   H01492602   8.628   9.211  12.342
  132SBC   C0F192603   8.693   9.340  12.519
  132SBC   C0EU92604   8.644   9.442  12.601
  132SBC   C0ET92605   8.704   9.494  12.719
  132SBC   C0ES92606   8.615   9.605  12.754
  132SBC   C0EE92607   8.507   9.610  12.661
  132SBC   C0ED92608   8.390   9.696  12.638
  132SBC   C0EC92609   8.354   9.815  12.716
  132SBC   C0EB92610   8.430   9.871  12.826
  132SBC   C0EN92611   8.565   9.820  12.860
  132SBC   C0ER92612   8.631   9.884  12.969
  132SBC   C0DS92613   8.379   9.970  12.910
  132SBC   C0DR92614   8.256  10.023  12.885
  132SBC   C0EY92615   8.657   9.708  12.829
  132SBC   C0EZ92616   8.767   9.703  12.921
  132SBC   C0F592617   8.880   9.608  12.952
  132SBC   C0F692618   8.901   9.487  12.878
  132SBC   N00892619   9.016   9.414  12.928
  132SBC   C0F792620   9.074   9.433  13.060
  132SBC   C0FQ92621   9.166   9.336  13.108
  132SBC   H01892622   9.194   9.340  13.212
  132SBC   C0FP92623   9.220   9.240  13.023
  132SBC   H01992624   9.289   9.169  13.067
  132SBC   C0FO92625   9.173   9.228  12.890
  132SBC   H01A92626   9.219   9.147  12.836
  132SBC   C0F892627   9.033   9.544  13.127
  132SBC   C0F992628   9.072   9.313  12.843
  132SBC   C0FA92629   9.012   9.287  12.712
  132SBC   H01592630   9.049   9.198  12.663
  132SBC   C0FB92631   8.886   9.342  12.677
  132SBC   C0FD92632   8.832   9.444  12.759
  132SBC   C0FC92633   8.823   9.285  12.560
  132SBC   O00A92634   8.866   9.184  12.504
  132SBC   C0EV92635   8.527   9.509  12.567
  132SBC   C0EF92636   8.303   9.673  12.527
  132SBC   C0EI92637   8.233   9.882  12.687
  132SBC   C0DQ92638   8.192   9.992  12.764
  132SBC   C0CE92639   8.076  10.171  12.950
  132SBC   H00U92640   7.830  10.152  12.731
  132SBC   C0CA92641   7.719  10.372  12.844
  132SBC   C0C992642   7.643  10.450  12.934
  132SBC   C0C892643   7.546  10.544  12.882
  132SBC   C0C792644   7.416  10.587  12.944
  132SBC   C0C692645   7.324  10.642  12.852
  132SBC   C0C592646   7.181  10.657  12.845
  132SBC   C0CQ92647   7.137  10.676  12.718
  132SBC   C0D192648   7.214  10.653  12.602
  132SBC   C0D892649   7.136  10.588  12.508
  132SBC   C0D792650   7.000  10.617  12.540
  132SBC   C0D692651   6.879  10.572  12.470
  132SBC   C0D592652   6.749  10.619  12.494
  132SBC   C0D492653   6.701  10.679  12.616
  132SBC   C0D392654   6.557  10.650  12.625
  132SBC   C0CX92655   6.525  10.649  12.769
  132SBC   C0CW92656   6.652  10.647  12.841
  132SBC   C0CV92657   6.692  10.632  12.983
  132SBC   C0D292658   6.597  10.608  13.088
  132SBC   C09D92659   6.451  10.599  13.072
  132SBC   C09C92660   6.366  10.575  13.181
  132SBC   C09B92661   6.227  10.555  13.184
  132SBC   C09A92662   6.161  10.572  13.062
  132SBC   C09992663   6.238  10.583  12.947
  132SBC   C09892664   6.163  10.654  12.853
  132SBC   C08Y92665   6.032  10.694  12.913
  132SBC   C08X92666   5.936  10.788  12.865
  132SBC   C08W92667   5.952  10.857  12.740
  132SBC   C08U92668   6.073  10.864  12.657
  132SBC   C08V92669   6.212  10.819  12.671
  132SBC   C0DC92670   6.279  10.848  12.545
  132SBC   H00W92671   6.385  10.826  12.544
  132SBC   C0DB92672   6.192  10.911  12.449
  132SBC   H00X92673   6.206  10.955  12.352
  132SBC   C08T92674   6.067  10.927  12.527
  132SBC   C08S92675   5.950  10.988  12.485
  132SBC   H00N92676   5.957  11.023  12.383
  132SBC   C08R92677   5.832  10.990  12.556
  132SBC   C08Q92678   5.713  11.043  12.516
  132SBC   H00O92679   5.705  11.076  12.413
  132SBC   C08P92680   5.608  11.077  12.601
  132SBC   C08O92681   5.494  11.150  12.562
  132SBC   H00P92682   5.478  11.183  12.460
  132SBC   C08N92683   5.393  11.188  12.655
  132SBC   C08M92684   5.278  11.266  12.617
  132SBC   O00892685   5.243  11.294  12.504
  132SBC   O00792686   5.188  11.312  12.711
  132SBC   C08H92687   5.206  11.282  12.842
  132SBC   C08G92688   5.111  11.323  12.943
  132SBC   C03V92689   5.000  11.407  12.932
  132SBC   H00992690   4.977  11.443  12.833
  132SBC   C03U92691   4.933  11.450  13.048
  132SBC   C03W92692   4.825  11.543  13.043
  132SBC   H00A92693   4.804  11.580  12.944
  132SBC   C03X92694   4.753  11.577  13.153
  132SBC   H00B92695   4.674  11.650  13.141
  132SBC   O00592696   4.783  11.532  13.280
  132SBC   C03O92697   4.882  11.444  13.288
  132SBC   C03N92698   4.910  11.391  13.412
  132SBC   O00092699   4.835  11.437  13.512
  132SBC   C01992700   4.859  11.397  13.635
  132SBC   C01892701   4.967  11.305  13.667
  132SBC   C01792702   5.051  11.262  13.559
  132SBC   C01692703   5.154  11.171  13.585
  132SBC   C01592704   5.168  11.131  13.717
  132SBC   C01492705   5.271  11.045  13.742
  132SBC   C01392706   5.365  11.002  13.645
  132SBC   C01292707   5.458  10.928  13.722
  132SBC   C01192708   5.408  10.926  13.855
  132SBC   C01092709   5.464  10.857  13.952
  132SBC   C00Z92710   5.442  10.859  14.087
  132SBC   C00Y92711   5.553  10.791  14.138
  132SBC   C01O92712   5.634  10.742  14.039
  132SBC   C01P92713   5.773  10.726  14.051
  132SBC   C02L92714   5.847  10.717  13.940
  132SBC   C02K92715   5.786  10.741  13.818
  132SBC   C01M92716   5.650  10.792  13.803
  132SBC   C02J92717   5.866  10.700  13.708
  132SBC   C02I92718   5.828  10.687  13.579
  132SBC   C02H92719   5.717  10.740  13.517
  132SBC   C01Q92720   5.615  10.822  13.565
  132SBC   C02G92721   5.533  10.862  13.453
  132SBC   C08992722   5.584  10.797  13.345
  132SBC   C08892723   5.561  10.869  13.231
  132SBC   C08792724   5.456  10.959  13.274
  132SBC   C08692725   5.385  11.051  13.191
  132SBC   C03S92726   5.278  11.139  13.230
  132SBC   N00692727   5.244  11.203  13.107
  132SBC   C08F92728   5.334  11.172  13.006
  132SBC   C01J92729   5.203  11.170  13.342
  132SBC   C03R92730   5.095  11.262  13.322
  132SBC   C03Q92731   5.059  11.313  13.191
  132SBC   C08E92732   5.419  11.076  13.051
  132SBC   C08D92733   5.517  11.023  12.963
  132SBC   C08K92734   5.519  11.073  12.832
  132SBC   C08C92735   5.615  10.929  12.988
  132SBC   C09192736   5.718  10.910  12.896
  132SBC   C09292737   5.728  10.964  12.771
  132SBC   C08B92738   5.632  10.847  13.100
  132SBC   C09092739   5.760  10.773  13.073
  132SBC   C09492740   5.821  10.672  13.160
  132SBC   C09592741   5.948  10.622  13.148
  132SBC   C09R92742   6.002  10.587  13.271
  132SBC   C09792743   5.917  10.620  13.365
  132SBC   C09692744   5.805  10.672  13.299
  132SBC   C01I92745   5.439  10.963  13.418
  132SBC   C08A92746   5.702  10.728  13.380
  132SBC   C09L92747   5.929  10.628  13.507
  132SBC   C09K92748   6.037  10.608  13.596
  132SBC   C09J92749   6.164  10.570  13.559
  132SBC   C09I92750   6.282  10.595  13.639
  132SBC   C09O92751   6.311  10.626  13.775
  132SBC   C09N92752   6.206  10.645  13.873
  132SBC   C09M92753   6.065  10.663  13.851
  132SBC   C06O92754   6.257  10.665  14.008
  132SBC   C05M92755   6.393  10.651  14.037
  132SBC   C06P92756   6.489  10.628  13.939
  132SBC   C04292757   6.440  10.657  14.169
  132SBC   C04192758   6.351  10.678  14.273
  132SBC   C04092759   6.392  10.689  14.406
  132SBC   C03Z92760   6.308  10.720  14.514
  132SBC   C03Y92761   6.172  10.733  14.483
  132SBC   C02792762   6.092  10.770  14.588
  132SBC   C02692763   5.959  10.788  14.558
  132SBC   C02892764   5.877  10.830  14.661
  132SBC   C02992765   5.928  10.863  14.784
  132SBC   C02B92766   5.849  10.920  14.882
  132SBC   C02C92767   5.897  10.959  15.005
  132SBC   C02X92768   5.817  11.016  15.097
  132SBC   C03E92769   5.870  11.047  15.219
  132SBC   C03G92770   6.004  11.047  15.252
  132SBC   C04Q92771   6.081  10.982  15.157
  132SBC   C04R92772   6.216  10.974  15.176
  132SBC   C04S92773   6.303  10.911  15.086
  132SBC   C04L92774   6.245  10.858  14.969
  132SBC   C04M92775   6.111  10.881  14.938
  132SBC   C04K92776   6.325  10.812  14.867
  132SBC   C04F92777   6.461  10.804  14.892
  132SBC   C04E92778   6.517  10.845  15.015
  132SBC   C04D92779   6.654  10.830  15.036
  132SBC   C05092780   6.715  10.880  15.154
  132SBC   C05192781   6.851  10.872  15.170
  132SBC   C05Q92782   6.904  10.939  15.268
  132SBC   C05V92783   7.037  10.938  15.285
  132SBC   N00592784   7.097  11.016  15.388
  132SBC   C07V92785   7.021  11.093  15.476
  132SBC   C08292786   7.085  11.163  15.583
  132SBC   C08192787   7.220  11.154  15.614
  132SBC   C07C92788   7.294  11.073  15.530
  132SBC   C07B92789   7.431  11.048  15.562
  132SBC   C08092790   7.493  11.107  15.672
  132SBC   C07Z92791   7.630  11.081  15.694
  132SBC   H00L92792   7.683  11.142  15.766
  132SBC   C07992793   7.704  10.991  15.622
  132SBC   C07892794   7.637  10.929  15.512
  132SBC   C07792795   7.707  10.835  15.438
  132SBC   C07X92796   7.841  10.801  15.470
  132SBC   H00I92797   7.901  10.731  15.414
  132SBC   C07Y92798   7.909  10.860  15.579
  132SBC   H00H92799   8.010  10.830  15.602
  132SBC   C07692800   7.643  10.769  15.337
  132SBC   C06C92801   7.704  10.657  15.275
  132SBC   H00C92802   7.795  10.604  15.302
  132SBC   C06F92803   7.517  10.815  15.294
  132SBC   C06E92804   7.460  10.763  15.177
  132SBC   C06G92805   7.333  10.784  15.136
  132SBC   C06H92806   7.254  10.857  15.226
  132SBC   C06I92807   7.314  10.927  15.335
  132SBC   C06L92808   7.286  10.724  15.018
  132SBC   C06M92809   7.365  10.648  14.925
  132SBC   C06K92810   7.150  10.742  14.993
  132SBC   C05S92811   7.068  10.803  15.088
  132SBC   C05U92812   7.095  10.709  14.874
  132SBC   C05X92813   7.178  10.666  14.765
  132SBC   C05G92814   7.110  10.661  14.641
  132SBC   C05F92815   6.976  10.661  14.639
  132SBC   C05E92816   6.928  10.644  14.516
  132SBC   C04892817   6.791  10.642  14.486
  132SBC   C05692818   6.756  10.634  14.356
  132SBC   C04592819   6.618  10.643  14.332
  132SBC   C04792820   6.708  10.664  14.594
  132SBC   C04992821   6.763  10.691  14.723
  132SBC   C04B92822   6.677  10.734  14.821
  132SBC   C04692823   6.577  10.689  14.566
  132SBC   C04H92824   6.489  10.726  14.666
  132SBC   C05D92825   7.029  10.637  14.420
  132SBC   C04A92826   6.893  10.686  14.743
  132SBC   C05T92827   6.958  10.724  14.860
  132SBC   C05592828   6.874  10.765  14.961
  132SBC   C06D92829   7.530  10.663  15.102
  132SBC   C07W92830   7.444  10.902  15.373
  132SBC   C08592831   7.837  10.954  15.656
  132SBC   H00M92832   7.892  10.992  15.741
  132SBC   C08492833   7.416  11.189  15.753
  132SBC   H00J92834   7.462  11.229  15.841
  132SBC   C07A92835   7.505  10.959  15.484
  132SBC   C08392836   7.282  11.213  15.722
  132SBC   H00K92837   7.222  11.275  15.787
  132SBC   O00K92838   7.002  11.238  15.661
  132SBC   C0GO92839   6.872  11.249  15.638
  132SBC   C0GN92840   6.795  11.325  15.727
  132SBC   H01L92841   6.854  11.377  15.801
  132SBC   C0GM92842   6.650  11.335  15.712
  132SBC   C0GL92843   6.580  11.428  15.775
  132SBC   H01M92844   6.634  11.499  15.836
  132SBC   O00J92845   6.441  11.434  15.769
  132SBC   C0GK92846   6.382  11.351  15.680
  132SBC   H01N92847   6.276  11.366  15.668
  132SBC   C05K92848   6.452  11.255  15.609
  132SBC   C05J92849   6.390  11.164  15.520
  132SBC   C04Y92850   6.250  11.152  15.504
  132SBC   C04X92851   6.185  11.084  15.393
  132SBC   O00692852   6.168  11.205  15.597
  132SBC   C05392853   6.031  11.226  15.578
  132SBC   C04O92854   5.967  11.174  15.459
  132SBC   C03C92855   5.826  11.186  15.419
  132SBC   C03B92856   5.710  11.257  15.463
  132SBC   C05492857   5.716  11.348  15.566
  132SBC   C0GR92858   5.606  11.432  15.595
  132SBC   C03M92859   5.477  11.463  15.535
  132SBC   C03I92860   5.421  11.411  15.407
  132SBC   C03J92861   5.299  11.469  15.356
  132SBC   N00292862   5.244  11.425  15.227
  132SBC   C02U92863   5.126  11.482  15.180
  132SBC   C02T92864   5.070  11.450  15.056
  132SBC   C02Z92865   4.951  11.499  15.009
  132SBC   N00192866   4.898  11.466  14.883
  132SBC   C02R92867   4.781  11.526  14.832
  132SBC   C03292868   4.711  11.620  14.908
  132SBC   C03192869   4.771  11.652  15.033
  132SBC   H00792870   4.721  11.726  15.094
  132SBC   C03392871   4.588  11.671  14.851
  132SBC   H00392872   4.525  11.735  14.911
  132SBC   O00492873   4.541  11.633  14.728
  132SBC   C03492874   4.606  11.536  14.663
  132SBC   C03592875   4.551  11.502  14.539
  132SBC   C03692876   4.616  11.401  14.465
  132SBC   H00592877   4.580  11.388  14.364
  132SBC   C03792878   4.730  11.335  14.512
  132SBC   H00692879   4.755  11.244  14.459
  132SBC   C00D92880   4.792  11.380  14.629
  132SBC   C00C92881   4.911  11.328  14.680
  132SBC   C00B92882   5.001  11.245  14.594
  132SBC   C00A92883   5.006  11.185  14.455
  132SBC   C00992884   5.107  11.086  14.470
  132SBC   C00892885   5.196  11.038  14.363
  132SBC   C00792886   5.170  11.069  14.231
  132SBC   C00692887   5.249  11.011  14.128
  132SBC   C00592888   5.224  11.046  13.990
  132SBC   C00492889   5.123  11.138  13.964
  132SBC   C00392890   5.049  11.199  14.070
  132SBC   C00292891   4.947  11.296  14.041
  132SBC   C01C92892   4.918  11.322  13.903
  132SBC   C01B92893   4.804  11.399  13.868
  132SBC   H00092894   4.735  11.439  13.941
  132SBC   C00192895   4.893  11.373  14.148
  132SBC   C00092896   4.933  11.348  14.282
  132SBC   C01U92897   4.904  11.474  14.343
  132SBC   H00292898   4.922  11.492  14.448
  132SBC   C01T92899   4.803  11.542  14.253
  132SBC   O00292900   4.725  11.632  14.282
  132SBC   O00192901   4.813  11.483  14.137
  132SBC   C01S92902   5.072  11.166  14.205
  132SBC   C00N92903   5.309  10.976  14.405
  132SBC   C00M92904   5.355  10.974  14.535
  132SBC   C00J92905   5.274  11.025  14.636
  132SBC   C00I92906   5.322  11.058  14.759
  132SBC   C00H92907   5.259  11.151  14.839
  132SBC   C00G92908   5.143  11.211  14.794
  132SBC   C00F92909   5.083  11.315  14.860
  132SBC   C01X92910   5.313  11.190  14.958
  132SBC   C01W92911   5.430  11.131  15.001
  132SBC   C01V92912   5.503  11.051  14.914
  132SBC   C02092913   5.633  11.011  14.943
  132SBC   C01Z92914   5.485  11.175  15.121
  132SBC   C02Y92915   5.609  11.122  15.151
  132SBC   C03992916   5.662  11.157  15.271
  132SBC   C02W92917   5.421  11.264  15.203
  132SBC   C01Y92918   5.248  11.291  15.032
  132SBC   C00U92919   5.449  11.017  14.793
  132SBC   C00S92920   5.533  10.951  14.698
  132SBC   C00T92921   5.661  10.912  14.733
  132SBC   C00R92922   5.485  10.933  14.572
  132SBC   C00Q92923   5.561  10.875  14.477
  132SBC   C00V92924   5.691  10.839  14.508
  132SBC   C02492925   5.775  10.786  14.411
  132SBC   C00X92926   5.729  10.767  14.283
  132SBC   C00P92927   5.510  10.857  14.352
  132SBC   C00O92928   5.391  10.919  14.309
  132SBC   C00K92929   5.149  11.067  14.603
  132SBC   N00092930   5.002  11.236  14.318
  132SBC   C00L92931   5.094  11.177  14.666
  132SBC   H00492932   4.462  11.544  14.496
  132SBC   C02Q92933   4.729  11.479  14.712
  132SBC   C00E92934   4.965  11.366  14.804
  132SBC   C03092935   4.884  11.594  15.086
  132SBC   O00392936   4.937  11.635  15.210
  132SBC   C02S92937   5.134  11.354  14.981
  132SBC   C03892938   5.052  11.570  15.256
  132SBC   C03L92939   5.101  11.614  15.376
  132SBC   H00892940   5.039  11.684  15.431
  132SBC   C02V92941   5.308  11.324  15.156
  132SBC   C03K92942   5.222  11.559  15.429
  132SBC   C0BK92943   5.279  11.599  15.549
  132SBC   H00T92944   5.229  11.677  15.605
  132SBC   C03H92945   5.486  11.316  15.321
  132SBC   C0BL92946   5.396  11.559  15.605
  132SBC   C0GU92947   5.441  11.616  15.729
  132SBC   H01O92948   5.386  11.697  15.773
  132SBC   C0GT92949   5.567  11.582  15.785
  132SBC   H01P92950   5.596  11.624  15.880
  132SBC   C0GS92951   5.640  11.492  15.717
  132SBC   C0GV92952   5.773  11.446  15.756
  132SBC   C0GW92953   5.857  11.492  15.858
  132SBC   H01Q92954   5.823  11.567  15.929
  132SBC   C0GX92955   5.981  11.444  15.865
  132SBC   H01R92956   6.057  11.482  15.932
  132SBC   O00L92957   6.028  11.340  15.783
  132SBC   C0GQ92958   5.824  11.360  15.659
  132SBC   C03A92959   5.607  11.255  15.357
  132SBC   C05L92960   5.955  11.310  15.671
  132SBC   C04W92961   6.469  11.089  15.431
  132SBC   C05I92962   6.607  11.092  15.436
  132SBC   C05O92963   6.671  11.172  15.527
  132SBC   C05292964   6.685  11.021  15.345
  132SBC   C04V92965   6.413  11.023  15.319
  132SBC   C04U92966   6.495  10.952  15.226
  132SBC   N00992967   6.592  11.249  15.616
  132SBC   C0GP92968   6.811  11.170  15.539
  132SBC   C05W92969   6.886  11.096  15.457
  132SBC   C07D92970   7.239  11.009  15.416
  132SBC   C06J92971   7.119  10.866  15.203
  132SBC   C05P92972   6.825  11.021  15.355
  132SBC   C05R92973   6.931  10.811  15.073
  132SBC   C04Z92974   6.631  10.948  15.242
  132SBC   C04C92975   6.735  10.779  14.937
  132SBC   C04G92976   6.541  10.752  14.792
  132SBC   C04J92977   6.272  10.781  14.742
  132SBC   C04T92978   6.436  10.899  15.112
  132SBC   N00392979   6.270  11.026  15.300
  132SBC   C04P92980   6.049  11.100  15.369
  132SBC   C03D92981   5.789  11.125  15.302
  132SBC   C02192982   5.685  11.045  15.067
  132SBC   C03F92983   6.029  10.937  15.035
  132SBC   C02292984   5.713  10.942  14.852
  132SBC   C02A92985   6.061  10.850  14.811
  132SBC   C02392986   5.742  10.864  14.634
  132SBC   C02592987   5.908  10.768  14.432
  132SBC   C02D92988   5.994  10.727  14.330
  132SBC   C02E92989   5.951  10.712  14.199
  132SBC   C02N92990   6.036  10.694  14.089
  132SBC   C04N92991   6.139  10.796  14.712
  132SBC   C02P92992   6.128  10.717  14.353
  132SBC   C04I92993   6.356  10.736  14.642
  132SBC   C04492994   6.531  10.676  14.436
  132SBC   C04392995   6.212  10.690  14.244
  132SBC   C05N92996   6.167  10.684  14.117
  132SBC   C09U92997   6.448  10.626  13.804
  132SBC   C09V92998   6.544  10.611  13.704
  132SBC   C09X92999   6.517  10.606  13.570
  132SBC   C09Y93000   6.603  10.607  13.464
  132SBC   C0A193001   6.734  10.607  13.496
  132SBC   C0A293002   6.776  10.605  13.632
  132SBC   C0A493003   6.907  10.589  13.661
  132SBC   C07193004   6.948  10.578  13.796
  132SBC   C0A593005   7.079  10.553  13.821
  132SBC   C0A993006   7.175  10.550  13.717
  132SBC   C0A893007   7.130  10.562  13.582
  132SBC   C0AP93008   7.221  10.560  13.483
  132SBC   C0BY93009   7.174  10.572  13.354
  132SBC   C0BX93010   7.045  10.576  13.312
  132SBC   C0C293011   7.008  10.593  13.178
  132SBC   C0C393012   6.874  10.606  13.146
  132SBC   C0CT93013   6.782  10.602  13.254
  132SBC   C0C193014   7.108  10.604  13.080
  132SBC   C0C093015   7.243  10.570  13.123
  132SBC   C0A793016   6.955  10.582  13.415
  132SBC   C0BZ93017   7.269  10.568  13.260
  132SBC   C0BO93018   7.405  10.548  13.284
  132SBC   C0BN93019   7.450  10.525  13.414
  132SBC   C0BM93020   7.576  10.481  13.431
  132SBC   C0B993021   7.620  10.465  13.562
  132SBC   C0B893022   7.533  10.483  13.666
  132SBC   C0AD93023   7.400  10.511  13.638
  132SBC   C0AF93024   7.574  10.471  13.794
  132SBC   C0AG93025   7.708  10.440  13.829
  132SBC   C0B793026   7.793  10.424  13.720
  132SBC   C0AE93027   7.483  10.481  13.893
  132SBC   C0AB93028   7.350  10.509  13.871
  132SBC   C0AA93029   7.260  10.531  13.977
  132SBC   C0AJ93030   7.530  10.490  14.024
  132SBC   C0AK93031   7.441  10.524  14.125
  132SBC   C06W93032   7.512  10.538  14.235
  132SBC   C0AI93033   7.659  10.479  14.066
  132SBC   C0BP93034   7.470  10.518  13.171
  132SBC   C0BQ93035   7.610  10.487  13.188
  132SBC   C0BW93036   7.355  10.533  13.513
  132SBC   C0AC93037   7.306  10.521  13.740
  132SBC   C0A693038   6.997  10.580  13.552
  132SBC   C0A393039   6.820  10.597  13.390
  132SBC   C09Z93040   6.560  10.599  13.330
  132SBC   C09W93041   6.679  10.604  13.738
  132SBC   C07293042   6.720  10.605  13.872
  132SBC   C09H93043   6.382  10.593  13.543
  132SBC   C09G93044   6.343  10.573  13.416
  132SBC   C09P93045   6.204  10.559  13.421
  132SBC   C02O93046   5.999  10.651  13.722
  132SBC   C02M93047   5.984  10.692  13.959
  132SBC   C02F93048   5.817  10.728  14.176
  132SBC   C00W93049   5.598  10.808  14.261
  132SBC   C01R93050   5.353  10.929  14.174
  132SBC   C01N93051   5.581  10.791  13.926
  132SBC   C01L93052   5.582  10.850  13.696
  132SBC   C01H93053   5.349  11.034  13.503
  132SBC   C01K93054   5.295  10.999  13.874
  132SBC   C01E93055   5.097  11.179  13.827
  132SBC   C01G93056   5.239  11.128  13.477
  132SBC   C01D93057   4.993  11.265  13.802
  132SBC   C01A93058   4.770  11.436  13.737
  132SBC   H00193059   4.681  11.496  13.723
  132SBC   C01F93060   5.020  11.302  13.430
  132SBC   C03P93061   4.957  11.403  13.174
  132SBC   C03T93062   5.132  11.280  13.076
  132SBC   C08I93063   5.315  11.202  12.875
  132SBC   C08J93064   5.410  11.159  12.788
  132SBC   C08L93065   5.618  11.040  12.735
  132SBC   C09393066   5.840  10.936  12.690
  132SBC   C08Z93067   5.816  10.818  12.940
  132SBC   C09T93068   6.259  10.715  12.769
  132SBC   C09S93069   6.033  10.627  13.040
  132SBC   C09Q93070   6.141  10.562  13.292
  132SBC   C09F93071   6.428  10.582  13.303
  132SBC   C09E93072   6.372  10.616  12.951
  132SBC   C0A093073   6.647  10.603  13.220
  132SBC   C0CU93074   6.836  10.626  13.013
  132SBC   C0CR93075   6.939  10.634  12.911
  132SBC   C0CZ93076   6.901  10.650  12.775
  132SBC   C0DA93077   6.395  10.672  12.828
  132SBC   C0D993078   6.539  10.542  12.530
  132SBC   H00V93079   6.454  10.476  12.527
  132SBC   C0CY93080   6.759  10.648  12.743
  132SBC   C0DF93081   6.657  10.530  12.443
  132SBC   C0DE93082   6.731  10.436  12.363
  132SBC   C0GI93083   6.693  10.323  12.281
  132SBC   H01K93084   6.586  10.305  12.277
  132SBC   C0GJ93085   6.792  10.268  12.205
  132SBC   H01J93086   6.770  10.188  12.136
  132SBC   O00I93087   6.928  10.290  12.220
  132SBC   C0GH93088   6.972  10.386  12.312
  132SBC   C0GG93089   7.115  10.399  12.331
  132SBC   O00G93090   7.179  10.305  12.255
  132SBC   C0G893091   7.314  10.294  12.263
  132SBC   C0G993092   7.380  10.224  12.157
  132SBC   H01G93093   7.322  10.170  12.083
  132SBC   C0GA93094   7.519  10.220  12.163
  132SBC   H01H93095   7.563  10.166  12.081
  132SBC   C0GB93096   7.601  10.281  12.260
  132SBC   C0EP93097   7.529  10.330  12.374
  132SBC   C0E893098   7.609  10.344  12.493
  132SBC   C0CK93099   7.584  10.372  12.630
  132SBC   C0CL93100   7.507  10.485  12.646
  132SBC   C0E993101   7.390  10.512  12.556
  132SBC   C0GE93102   7.319  10.442  12.447
  132SBC   C0E793103   7.751  10.350  12.486
  132SBC   C0CJ93104   7.818  10.372  12.606
  132SBC   C0E693105   7.953  10.400  12.607
  132SBC   H00Y93106   8.004  10.407  12.703
  132SBC   C0EO93107   8.014  10.394  12.481
  132SBC   H01193108   8.120  10.413  12.477
  132SBC   C0G693109   7.948  10.361  12.360
  132SBC   C0G593110   8.018  10.347  12.233
  132SBC   H01F93111   8.125  10.366  12.229
  132SBC   C0GD93112   7.940  10.306  12.130
  132SBC   H01I93113   7.975  10.299  12.028
  132SBC   O00H93114   7.806  10.274  12.133
  132SBC   C0EQ93115   7.808  10.342  12.359
  132SBC   C0GC93116   7.745  10.300  12.249
  132SBC   C0G793117   7.389  10.349  12.371
  132SBC   C0DD93118   6.870  10.460  12.376
  132SBC   C0GF93119   7.183  10.482  12.420
  132SBC   C0CO93120   7.337  10.621  12.623
  132SBC   C0D093121   7.004  10.654  12.678
  132SBC   C0C493122   7.080  10.631  12.944
  132SBC   C0CN93123   7.405  10.665  12.740
  132SBC   C0CP93124   7.373  10.546  13.069
  132SBC   C0CM93125   7.522  10.585  12.749
  132SBC   C0CI93126   7.709  10.365  12.702
  132SBC   C0CD93127   8.008  10.261  13.038
  132SBC   C0BR93128   7.686  10.441  13.073
  132SBC   C0CS93129   7.654  10.468  13.319
  132SBC   C0B693130   7.755  10.437  13.584
  132SBC   C0CG93131   7.993  10.335  13.263
  132SBC   C0CF93132   8.067  10.278  13.163
  132SBC   C0E593133   8.203  10.116  12.972
  132SBC   C0DT93134   8.452  10.015  13.024
  132SBC   C0DL93135   8.370  10.169  13.352
  132SBC   C0DM93136   8.423  10.159  13.486
  132SBC   C0DY93137   8.622  10.057  13.406
  132SBC   C0DU93138   8.573   9.978  13.055
  132SBC   C0F093139   8.749   9.818  12.999
  132SBC   C0F493140   8.955   9.643  13.066
  132SBC   C0FG93141   8.942   9.879  13.347
  132SBC   O00B93142   9.073   9.558  13.261
  132SBC   C0FN93143   8.990   9.847  13.468
  132SBC   C0DZ93144   8.746   9.994  13.434
  132SBC   O00C93145   8.733   9.986  13.796
  132SBC   C0FR93146   8.670  10.008  13.903
  132SBC   O00D93147   8.714   9.966  14.010
  132SBC   C0E093148   8.542  10.097  13.513
  132SBC   C0E393149   8.545  10.081  13.883
  132SBC   C0AW93150   8.469  10.131  13.985
  132SBC   C0AV93151   8.504  10.133  14.127
  132SBC   H00Q93152   8.599  10.101  14.166
  132SBC   C0AU93153   8.421  10.188  14.228
  132SBC   H00R93154   8.458  10.202  14.328
  132SBC   C0AT93155   8.291  10.236  14.187
  132SBC   C0AS93156   8.162  10.277  14.246
  132SBC   C0AR93157   8.151  10.277  14.385
  132SBC   C0BE93158   8.265  10.240  14.046
  132SBC   C0DN93159   8.342  10.209  13.587
  132SBC   C0AX93160   8.349  10.189  13.952
  132SBC   C0BB93161   8.128  10.290  13.666
  132SBC   C0BD93162   8.138  10.290  14.030
  132SBC   C0B293163   7.918  10.381  13.750
  132SBC   C0AH93164   7.754  10.431  13.965
  132SBC   C0BF93165   8.062  10.317  14.148
  132SBC   C0AL93166   7.649  10.511  14.207
  132SBC   C07U93167   7.916  10.380  14.415
  132SBC   C0AQ93168   8.042  10.335  14.455
  132SBC   C0BG93169   8.259  10.256  14.489
  132SBC   C0FY93170   8.198  10.211  14.839
  132SBC   C0BJ93171   8.327  10.129  14.529
  132SBC   H00S93172   8.360  10.049  14.463
  132SBC   C0FZ93173   8.264  10.097  14.885
  132SBC   C07S93174   8.079  10.251  14.892
  132SBC   C0G193175   8.106  10.056  15.205
  132SBC   C07K93176   7.800  10.259  15.297
  132SBC   C07H93177   7.834  10.328  15.022
  132SBC   C06B93178   7.644  10.609  15.151
  132SBC   C06N93179   7.490  10.607  14.979
  132SBC   C06693180   7.761  10.418  14.777
  132SBC   C06293181   7.593  10.532  14.538
  132SBC   C05Y93182   7.319  10.638  14.792
  132SBC   C06193183   7.499  10.610  14.472
  132SBC   C05H93184   7.143  10.647  14.503
  132SBC   C06V93185   7.444  10.576  14.344
  132SBC   C06Y93186   7.306  10.541  14.109
  132SBC   C05C93187   6.988  10.616  14.282
  132SBC   C06Z93188   7.125  10.542  13.949
  132SBC   C07093189   6.857  10.592  13.901
  132SBC   C05B93190   6.851  10.621  14.255
  132SBC   C05793191   6.574  10.632  14.201
  132SBC   C05993192   6.626  10.614  13.969
  133SBC   C05893193   7.466   1.219   4.611
  133SBC   C05A93194   7.558   1.113   4.622
  133SBC   C06Q93195   7.549   1.008   4.528
  133SBC   C06R93196   7.642   0.902   4.531
  133SBC   C06S93197   7.750   0.905   4.627
  133SBC   C06T93198   7.845   0.801   4.627
  133SBC   C06U93199   7.965   0.773   4.708
  133SBC   C06X93200   8.021   0.838   4.825
  133SBC   C06093201   8.152   0.789   4.851
  133SBC   C05Z93202   8.204   0.752   4.980
  133SBC   C06893203   8.280   0.624   4.945
  133SBC   C06793204   8.397   0.559   5.013
  133SBC   C06993205   8.427   0.599   5.154
  133SBC   C06A93206   8.516   0.518   5.238
  133SBC   C07393207   8.597   0.400   5.220
  133SBC   C07P93208   8.616   0.312   5.337
  133SBC   C07O93209   8.525   0.307   5.441
  133SBC   H00D93210   8.429   0.355   5.445
  133SBC   C07N93211   8.563   0.239   5.559
  133SBC   H00E93212   8.500   0.242   5.647
  133SBC   C07M93213   8.685   0.170   5.566
  133SBC   H00F93214   8.707   0.118   5.658
  133SBC   C07L93215   8.773   0.170   5.461
  133SBC   C07Q93216   8.903   0.107   5.458
  133SBC   H00G93217   8.947   0.070   5.550
  133SBC   O00F93218   8.975   0.089   5.345
  133SBC   C07J93219   8.920   0.132   5.231
  133SBC   C07I93220   8.805   0.214   5.227
  133SBC   N00493221   8.772   0.278   5.106
  133SBC   C07R93222   8.854   0.247   4.992
  133SBC   C07T93223   8.952   0.143   4.997
  133SBC   C0FX93224   9.013   0.095   4.889
  133SBC   C0FW93225   9.095  -0.020   4.886
  133SBC   C0G093226   9.129  -0.069   5.014
  133SBC   C0G293227   9.207  -0.187   5.031
  133SBC   H01E93228   9.234  -0.228   5.128
  133SBC   C0G393229   9.241  -0.258   4.917
  133SBC   H01C93230   9.306  -0.344   4.922
  133SBC   C0G493231   9.206  -0.208   4.789
  133SBC   H01D93232   9.233  -0.261   4.699
  133SBC   O00E93233   9.097  -0.000   5.129
  133SBC   C0FV93234   9.134  -0.086   4.773
  133SBC   C0FU93235   9.089  -0.023   4.653
  133SBC   H01B93236   9.104  -0.073   4.558
  133SBC   C0FT93237   9.020   0.096   4.642
  133SBC   C0FS93238   8.948   0.174   4.547
  133SBC   C0BI93239   8.894   0.286   4.614
  133SBC   C0BH93240   8.769   0.315   4.549
  133SBC   C07F93241   8.651   0.342   4.624
  133SBC   C07E93242   8.630   0.403   4.749
  133SBC   C07G93243   8.713   0.389   4.861
  133SBC   C07493244   8.631   0.427   4.970
  133SBC   C06593245   8.502   0.441   4.798
  133SBC   C06493246   8.396   0.411   4.718
  133SBC   C06393247   8.264   0.443   4.739
  133SBC   C07593248   8.198   0.391   4.622
  133SBC   C0AM93249   8.279   0.299   4.543
  133SBC   C0AN93250   8.245   0.213   4.427
  133SBC   C0AO93251   8.117   0.200   4.355
  133SBC   C0B193252   8.091   0.098   4.259
  133SBC   C0B093253   8.183  -0.000   4.238
  133SBC   C0AZ93254   8.168  -0.107   4.155
  133SBC   C0AY93255   8.270  -0.201   4.140
  133SBC   N00793256   8.257  -0.305   4.053
  133SBC   C0E293257   8.360  -0.406   4.042
  133SBC   C0E193258   8.337  -0.515   3.958
  133SBC   C0E493259   8.438  -0.615   3.957
  133SBC   C0FF93260   8.422  -0.727   3.879
  133SBC   C0FJ93261   8.499  -0.854   3.881
  133SBC   C0FK93262   8.590  -0.917   3.980
  133SBC   H01693263   8.637  -0.871   4.065
  133SBC   C0FL93264   8.586  -1.055   3.943
  133SBC   H01793265   8.610  -1.140   4.006
  133SBC   C0FM93266   8.506  -1.077   3.827
  133SBC   C0FH93267   8.416  -1.165   3.752
  133SBC   C0FI93268   8.337  -1.072   3.672
  133SBC   C0F393269   8.200  -1.105   3.648
  133SBC   C0F293270   8.123  -0.998   3.611
  133SBC   C0DW93271   8.153  -0.868   3.659
  133SBC   C0FE93272   8.278  -0.839   3.708
  133SBC   C0DV93273   8.053  -0.776   3.678
  133SBC   C0DX93274   8.079  -0.662   3.753
  133SBC   C0DK93275   7.972  -0.576   3.779
  133SBC   C0DJ93276   7.843  -0.604   3.735
  133SBC   C0DI93277   7.747  -0.512   3.750
  133SBC   C0DH93278   7.775  -0.389   3.807
  133SBC   C0DG93279   7.899  -0.364   3.863
  133SBC   C0BV93280   7.915  -0.247   3.933
  133SBC   C0BC93281   8.035  -0.229   3.998
  133SBC   C0BA93282   7.813  -0.156   3.944
  133SBC   C0B493283   7.836  -0.045   4.028
  133SBC   C0B393284   7.956  -0.028   4.094
  133SBC   C0B593285   7.734   0.045   4.035
  133SBC   C0BU93286   7.617   0.033   3.957
  133SBC   C0BT93287   7.592  -0.078   3.879
  133SBC   C0BS93288   7.475  -0.094   3.808
  133SBC   C0CC93289   7.450  -0.217   3.750
  133SBC   C0CB93290   7.327  -0.245   3.695
  133SBC   C0CH93291   7.303  -0.383   3.687
  133SBC   C0DO93292   7.392  -0.483   3.687
  133SBC   C0DP93293   7.356  -0.612   3.659
  133SBC   C0EA93294   7.216  -0.655   3.644
  133SBC   H01293295   7.130  -0.590   3.641
  133SBC   O00993296   7.177  -0.782   3.633
  133SBC   C0EH93297   7.279  -0.874   3.624
  133SBC   C0EG93298   7.240  -1.006   3.610
  133SBC   C0EJ93299   7.111  -1.070   3.609
  133SBC   H01093300   7.015  -1.022   3.619
  133SBC   C0EK93301   7.139  -1.217   3.594
  133SBC   H00Z93302   7.065  -1.295   3.586
  133SBC   C0EL93303   7.278  -1.232   3.607
  133SBC   C0EM93304   7.358  -1.345   3.617
  133SBC   C0EW93305   7.314  -1.475   3.628
  133SBC   H01393306   7.209  -1.497   3.628
  133SBC   C0EX93307   7.410  -1.586   3.622
  133SBC   H01493308   7.381  -1.690   3.624
  133SBC   C0F193309   7.551  -1.548   3.635
  133SBC   C0EU93310   7.595  -1.418   3.636
  133SBC   C0ET93311   7.722  -1.365   3.636
  133SBC   C0ES93312   7.702  -1.223   3.618
  133SBC   C0EE93313   7.568  -1.193   3.624
  133SBC   C0ED93314   7.477  -1.088   3.622
  133SBC   C0EC93315   7.520  -0.948   3.628
  133SBC   C0EB93316   7.653  -0.904   3.631
  133SBC   C0EN93317   7.768  -0.993   3.601
  133SBC   C0ER93318   7.891  -0.935   3.605
  133SBC   C0DS93319   7.685  -0.769   3.662
  133SBC   C0DR93320   7.582  -0.672   3.677
  133SBC   C0EY93321   7.795  -1.134   3.577
  133SBC   C0EZ93322   7.934  -1.163   3.594
  133SBC   C0F593323   8.019  -1.278   3.640
  133SBC   C0F693324   7.967  -1.406   3.669
  133SBC   N00893325   8.069  -1.500   3.706
  133SBC   C0F793326   8.202  -1.459   3.732
  133SBC   C0FQ93327   8.291  -1.561   3.771
  133SBC   H01893328   8.393  -1.534   3.790
  133SBC   C0FP93329   8.252  -1.694   3.791
  133SBC   H01993330   8.325  -1.757   3.840
  133SBC   C0FO93331   8.124  -1.733   3.769
  133SBC   H01A93332   8.105  -1.838   3.784
  133SBC   C0F893333   8.243  -1.331   3.718
  133SBC   C0F993334   8.028  -1.634   3.730
  133SBC   C0FA93335   7.895  -1.674   3.706
  133SBC   H01593336   7.877  -1.779   3.728
  133SBC   C0FB93337   7.796  -1.585   3.661
  133SBC   C0FD93338   7.833  -1.451   3.648
  133SBC   C0FC93339   7.662  -1.639   3.652
  133SBC   O00A93340   7.640  -1.760   3.662
  133SBC   C0EV93341   7.499  -1.316   3.620
  133SBC   C0EF93342   7.337  -1.106   3.620
  133SBC   C0EI93343   7.421  -0.850   3.640
  133SBC   C0DQ93344   7.452  -0.714   3.660
  133SBC   C0CE93345   7.521  -0.447   3.718
  133SBC   H00U93346   7.199  -0.403   3.666
  133SBC   C0CA93347   7.240  -0.134   3.658
  133SBC   C0C993348   7.261  -0.003   3.708
  133SBC   C0C893349   7.180   0.107   3.651
  133SBC   C0C793350   7.147   0.242   3.702
  133SBC   C0C693351   7.045   0.314   3.634
  133SBC   C0C593352   6.942   0.418   3.661
  133SBC   C0CQ93353   6.832   0.422   3.572
  133SBC   C0D193354   6.801   0.304   3.512
  133SBC   C0D893355   6.671   0.266   3.535
  133SBC   C0D793356   6.607   0.384   3.578
  133SBC   C0D693357   6.471   0.407   3.616
  133SBC   C0D593358   6.417   0.530   3.654
  133SBC   C0D493359   6.480   0.650   3.700
  133SBC   C0D393360   6.387   0.728   3.778
  133SBC   C0CX93361   6.464   0.812   3.867
  133SBC   C0CW93362   6.607   0.773   3.847
  133SBC   C0CV93363   6.738   0.806   3.897
  133SBC   C0D293364   6.754   0.918   3.981
  133SBC   C09D93365   6.671   1.034   3.968
  133SBC   C09C93366   6.712   1.157   4.024
  133SBC   C09B93367   6.641   1.273   4.029
  133SBC   C09A93368   6.514   1.269   3.971
  133SBC   C09993369   6.469   1.160   3.902
  133SBC   C09893370   6.330   1.175   3.890
  133SBC   C08Y93371   6.285   1.288   3.971
  133SBC   C08X93372   6.156   1.325   4.032
  133SBC   C08W93373   6.046   1.232   4.017
  133SBC   C08U93374   6.047   1.095   3.961
  133SBC   C08V93375   6.150   1.002   3.910
  133SBC   C0DC93376   6.081   0.895   3.843
  133SBC   H00W93377   6.124   0.819   3.780
  133SBC   C0DB93378   5.939   0.909   3.860
  133SBC   H00X93379   5.855   0.850   3.825
  133SBC   C08T93380   5.925   1.034   3.931
  133SBC   C08S93381   5.803   1.084   3.963
  133SBC   H00N93382   5.714   1.026   3.943
  133SBC   C08R93383   5.796   1.203   4.035
  133SBC   C08Q93384   5.677   1.256   4.083
  133SBC   H00O93385   5.593   1.191   4.067
  133SBC   C08P93386   5.658   1.375   4.160
  133SBC   C08O93387   5.535   1.426   4.209
  133SBC   H00P93388   5.444   1.376   4.179
  133SBC   C08N93389   5.529   1.549   4.282
  133SBC   C08M93390   5.402   1.603   4.328
  133SBC   O00893391   5.294   1.547   4.315
  133SBC   O00793392   5.407   1.712   4.400
  133SBC   C08H93393   5.519   1.778   4.433
  133SBC   C08G93394   5.527   1.885   4.526
  133SBC   C03V93395   5.420   1.948   4.587
  133SBC   H00993396   5.321   1.908   4.571
  133SBC   C03U93397   5.436   2.068   4.669
  133SBC   C03W93398   5.330   2.149   4.715
  133SBC   H00A93399   5.227   2.143   4.683
  133SBC   C03X93400   5.352   2.244   4.807
  133SBC   H00B93401   5.269   2.301   4.845
  133SBC   O00593402   5.476   2.288   4.850
  133SBC   C03O93403   5.577   2.222   4.793
  133SBC   C03N93404   5.706   2.261   4.823
  133SBC   O00093405   5.712   2.351   4.927
  133SBC   C01993406   5.832   2.390   4.963
  133SBC   C01893407   5.952   2.329   4.914
  133SBC   C01793408   5.944   2.234   4.810
  133SBC   C01693409   6.063   2.174   4.757
  133SBC   C01593410   6.180   2.226   4.809
  133SBC   C01493411   6.307   2.174   4.768
  133SBC   C01393412   6.311   2.073   4.667
  133SBC   C01293413   6.454   2.051   4.641
  133SBC   C01193414   6.517   2.141   4.733
  133SBC   C01093415   6.650   2.152   4.736
  133SBC   C00Z93416   6.723   2.209   4.836
  133SBC   C00Y93417   6.852   2.156   4.810
  133SBC   C01O93418   6.859   2.073   4.697
  133SBC   C01P93419   6.945   1.963   4.695
  133SBC   C02L93420   6.912   1.859   4.611
  133SBC   C02K93421   6.783   1.865   4.554
  133SBC   C01M93422   6.675   1.957   4.584
  133SBC   C02J93423   6.759   1.753   4.464
  133SBC   C02I93424   6.650   1.736   4.378
  133SBC   C02H93425   6.526   1.796   4.374
  133SBC   C01Q93426   6.469   1.891   4.460
  133SBC   C02G93427   6.326   1.894   4.432
  133SBC   C08993428   6.307   1.813   4.317
  133SBC   C08893429   6.177   1.767   4.313
  133SBC   C08793430   6.114   1.861   4.410
  133SBC   C08693431   5.969   1.852   4.434
  133SBC   C03S93432   5.895   1.933   4.524
  133SBC   N00693433   5.759   1.895   4.503
  133SBC   C08F93434   5.754   1.793   4.418
  133SBC   C01J93435   5.923   2.039   4.616
  133SBC   C03R93436   5.805   2.094   4.676
  133SBC   C03Q93437   5.672   2.045   4.649
  133SBC   C08E93438   5.874   1.757   4.372
  133SBC   C08D93439   5.892   1.639   4.297
  133SBC   C08K93440   5.775   1.565   4.271
  133SBC   C08C93441   6.008   1.596   4.228
  133SBC   C09193442   6.005   1.476   4.153
  133SBC   C09293443   5.894   1.389   4.134
  133SBC   C08B93444   6.140   1.644   4.233
  133SBC   C09093445   6.217   1.551   4.155
  133SBC   C09493446   6.358   1.554   4.137
  133SBC   C09593447   6.441   1.461   4.081
  133SBC   C09R93448   6.569   1.481   4.119
  133SBC   C09793449   6.575   1.582   4.204
  133SBC   C09693450   6.449   1.637   4.207
  133SBC   C01I93451   6.203   1.938   4.493
  133SBC   C08A93452   6.425   1.742   4.294
  133SBC   C09L93453   6.678   1.624   4.294
  133SBC   C09K93454   6.813   1.580   4.323
  133SBC   C09J93455   6.869   1.475   4.258
  133SBC   C09I93456   6.975   1.405   4.312
  133SBC   C09O93457   7.073   1.428   4.419
  133SBC   C09N93458   7.076   1.541   4.510
  133SBC   C09M93459   6.981   1.647   4.516
  133SBC   C06O93460   7.177   1.539   4.607
  133SBC   C05M93461   7.273   1.429   4.613
  133SBC   C06P93462   7.267   1.323   4.517
  133SBC   C04293463   7.373   1.429   4.710
  133SBC   C04193464   7.378   1.528   4.808
  133SBC   C04093465   7.474   1.519   4.908
  133SBC   C03Z93466   7.481   1.612   5.009
  133SBC   C03Y93467   7.391   1.712   5.008
  133SBC   C02793468   7.395   1.810   5.111
  133SBC   C02693469   7.315   1.922   5.103
  133SBC   C02893470   7.316   2.012   5.210
  133SBC   C02993471   7.399   1.992   5.325
  133SBC   C02B93472   7.390   2.078   5.432
  133SBC   C02C93473   7.468   2.051   5.544
  133SBC   C02X93474   7.462   2.136   5.651
  133SBC   C03E93475   7.547   2.113   5.751
  133SBC   C03G93476   7.620   2.000   5.771
  133SBC   C04Q93477   7.626   1.910   5.662
  133SBC   C04R93478   7.704   1.799   5.673
  133SBC   C04S93479   7.719   1.722   5.559
  133SBC   C04L93480   7.645   1.748   5.440
  133SBC   C04M93481   7.555   1.852   5.440
  133SBC   C04K93482   7.651   1.662   5.331
  133SBC   C04F93483   7.743   1.559   5.336
  133SBC   C04E93484   7.816   1.532   5.453
  133SBC   C04D93485   7.906   1.419   5.451
  133SBC   C05093486   7.980   1.390   5.566
  133SBC   C05193487   8.065   1.282   5.561
  133SBC   C05Q93488   8.133   1.253   5.679
  133SBC   C05V93489   8.224   1.145   5.679
  133SBC   N00593490   8.290   1.104   5.798
  133SBC   C07V93491   8.279   1.183   5.917
  133SBC   C08293492   8.348   1.153   6.033
  133SBC   C08193493   8.431   1.040   6.041
  133SBC   C07C93494   8.446   0.964   5.929
  133SBC   C07B93495   8.541   0.860   5.929
  133SBC   C08093496   8.614   0.828   6.046
  133SBC   C07Z93497   8.690   0.719   6.043
  133SBC   H00L93498   8.746   0.705   6.134
  133SBC   C07993499   8.712   0.640   5.933
  133SBC   C07893500   8.643   0.675   5.816
  133SBC   C07793501   8.664   0.600   5.698
  133SBC   C07X93502   8.740   0.485   5.700
  133SBC   H00I93503   8.755   0.429   5.609
  133SBC   C07Y93504   8.807   0.450   5.819
  133SBC   H00H93505   8.862   0.358   5.806
  133SBC   C07693506   8.597   0.642   5.583
  133SBC   C06C93507   8.625   0.581   5.461
  133SBC   H00C93508   8.715   0.524   5.442
  133SBC   C06F93509   8.500   0.743   5.583
  133SBC   C06E93510   8.420   0.763   5.474
  133SBC   C06G93511   8.325   0.857   5.466
  133SBC   C06H93512   8.312   0.943   5.577
  133SBC   C06I93513   8.393   0.922   5.694
  133SBC   C06L93514   8.253   0.884   5.342
  133SBC   C06M93515   8.272   0.796   5.225
  133SBC   C06K93516   8.177   0.999   5.336
  133SBC   C05S93517   8.167   1.086   5.451
  133SBC   C05U93518   8.104   1.032   5.222
  133SBC   C05X93519   8.104   0.946   5.109
  133SBC   C05G93520   7.987   0.971   5.021
  133SBC   C05F93521   7.927   1.095   5.024
  133SBC   C05E93522   7.830   1.114   4.922
  133SBC   C04893523   7.755   1.222   4.907
  133SBC   C05693524   7.661   1.217   4.812
  133SBC   C04593525   7.571   1.319   4.804
  133SBC   C04793526   7.768   1.312   5.007
  133SBC   C04993527   7.859   1.299   5.113
  133SBC   C04B93528   7.846   1.374   5.225
  133SBC   C04693529   7.665   1.409   5.010
  133SBC   C04H93530   7.666   1.493   5.118
  133SBC   C05D93531   7.831   0.998   4.845
  133SBC   C04A93532   7.947   1.191   5.122
  133SBC   C05T93533   8.026   1.154   5.227
  133SBC   C05593534   8.014   1.234   5.336
  133SBC   C06D93535   8.436   0.682   5.363
  133SBC   C07W93536   8.479   0.813   5.701
  133SBC   C08593537   8.796   0.525   5.932
  133SBC   H00M93538   8.848   0.513   6.026
  133SBC   C08493539   8.579   0.895   6.162
  133SBC   H00J93540   8.610   0.855   6.257
  133SBC   C07A93541   8.555   0.782   5.813
  133SBC   C08393542   8.507   1.009   6.158
  133SBC   H00K93543   8.489   1.072   6.244
  133SBC   O00K93544   8.330   1.227   6.151
  133SBC   C0GO93545   8.244   1.335   6.147
  133SBC   C0GN93546   8.224   1.410   6.268
  133SBC   H01L93547   8.275   1.369   6.353
  133SBC   C0GM93548   8.138   1.522   6.262
  133SBC   C0GL93549   8.120   1.587   6.377
  133SBC   H01M93550   8.172   1.551   6.465
  133SBC   O00J93551   8.036   1.695   6.379
  133SBC   C0GK93552   7.976   1.730   6.263
  133SBC   H01N93553   7.903   1.808   6.282
  133SBC   C05K93554   7.987   1.661   6.149
  133SBC   C05J93555   7.910   1.702   6.037
  133SBC   C04Y93556   7.827   1.818   6.018
  133SBC   C04X93557   7.760   1.854   5.900
  133SBC   O00693558   7.816   1.907   6.121
  133SBC   C05393559   7.737   2.018   6.124
  133SBC   C04O93560   7.668   2.055   6.006
  133SBC   C03C93561   7.581   2.171   5.992
  133SBC   C03B93562   7.521   2.264   6.077
  133SBC   C05493563   7.529   2.251   6.218
  133SBC   C0GR93564   7.447   2.327   6.303
  133SBC   C03M93565   7.333   2.414   6.289
  133SBC   C03I93566   7.257   2.438   6.167
  133SBC   C03J93567   7.126   2.504   6.181
  133SBC   N00293568   7.043   2.533   6.070
  133SBC   C02U93569   6.916   2.594   6.077
  133SBC   C02T93570   6.828   2.608   5.970
  133SBC   C02Z93571   6.700   2.661   5.991
  133SBC   N00193572   6.611   2.668   5.888
  133SBC   C02R93573   6.484   2.713   5.913
  133SBC   C03293574   6.441   2.768   6.037
  133SBC   C03193575   6.530   2.756   6.140
  133SBC   H00793576   6.496   2.797   6.234
  133SBC   C03393577   6.308   2.823   6.045
  133SBC   H00393578   6.261   2.849   6.138
  133SBC   O00493579   6.218   2.814   5.945
  133SBC   C03493580   6.253   2.737   5.838
  133SBC   C03593581   6.146   2.703   5.756
  133SBC   C03693582   6.168   2.609   5.653
  133SBC   H00593583   6.076   2.567   5.614
  133SBC   C03793584   6.303   2.573   5.623
  133SBC   H00693585   6.318   2.494   5.550
  133SBC   C00D93586   6.417   2.621   5.697
  133SBC   C00C93587   6.546   2.598   5.661
  133SBC   C00B93588   6.588   2.557   5.525
  133SBC   C00A93589   6.544   2.521   5.382
  133SBC   C00993590   6.657   2.479   5.312
  133SBC   C00893591   6.677   2.418   5.187
  133SBC   C00793592   6.559   2.398   5.112
  133SBC   C00693593   6.574   2.327   4.993
  133SBC   C00593594   6.444   2.294   4.935
  133SBC   C00493595   6.318   2.343   4.984
  133SBC   C00393596   6.315   2.426   5.097
  133SBC   C00293597   6.195   2.485   5.145
  133SBC   C01C93598   6.075   2.449   5.083
  133SBC   C01B93599   5.952   2.501   5.133
  133SBC   H00093600   5.935   2.563   5.219
  133SBC   C00193601   6.198   2.576   5.253
  133SBC   C00093602   6.318   2.592   5.320
  133SBC   C01U93603   6.310   2.715   5.377
  133SBC   H00293604   6.383   2.767   5.437
  133SBC   C01T93605   6.172   2.758   5.373
  133SBC   O00293606   6.110   2.846   5.434
  133SBC   O00193607   6.105   2.670   5.286
  133SBC   C01S93608   6.437   2.447   5.164
  133SBC   C00N93609   6.804   2.374   5.153
  133SBC   C00M93610   6.905   2.381   5.245
  133SBC   C00J93611   6.889   2.442   5.367
  133SBC   C00I93612   6.977   2.436   5.473
  133SBC   C00H93613   6.950   2.492   5.594
  133SBC   C00G93614   6.820   2.537   5.621
  133SBC   C00F93615   6.776   2.576   5.743
  133SBC   C01X93616   7.034   2.473   5.703
  133SBC   C01W93617   7.154   2.405   5.684
  133SBC   C01V93618   7.181   2.352   5.556
  133SBC   C02093619   7.285   2.266   5.541
  133SBC   C01Z93620   7.240   2.389   5.793
  133SBC   C02Y93621   7.353   2.317   5.765
  133SBC   C03993622   7.435   2.290   5.870
  133SBC   C02W93623   7.216   2.435   5.926
  133SBC   C01Y93624   7.001   2.510   5.831
  133SBC   C00U93625   7.091   2.360   5.449
  133SBC   C00S93626   7.110   2.292   5.332
  133SBC   C00T93627   7.217   2.202   5.321
  133SBC   C00R93628   7.022   2.306   5.225
  133SBC   C00Q93629   7.040   2.229   5.111
  133SBC   C00V93630   7.142   2.129   5.106
  133SBC   C02493631   7.140   2.042   4.998
  133SBC   C00X93632   7.047   2.049   4.890
  133SBC   C00P93633   6.940   2.241   5.011
  133SBC   C00O93634   6.820   2.315   5.030
  133SBC   C00K93635   6.762   2.495   5.396
  133SBC   N00093636   6.433   2.521   5.288
  133SBC   C00L93637   6.723   2.531   5.519
  133SBC   H00493638   6.049   2.745   5.777
  133SBC   C02Q93639   6.387   2.694   5.813
  133SBC   C00E93640   6.646   2.611   5.758
  133SBC   C03093641   6.657   2.699   6.119
  133SBC   O00393642   6.747   2.686   6.222
  133SBC   C02S93643   6.870   2.568   5.848
  133SBC   C03893644   6.873   2.637   6.202
  133SBC   C03L93645   6.958   2.620   6.311
  133SBC   H00893646   6.928   2.661   6.407
  133SBC   C02V93647   7.092   2.497   5.940
  133SBC   C03K93648   7.079   2.555   6.303
  133SBC   C0BK93649   7.171   2.540   6.411
  133SBC   H00T93650   7.144   2.595   6.500
  133SBC   C03H93651   7.294   2.404   6.038
  133SBC   C0BL93652   7.287   2.466   6.411
  133SBC   C0GU93653   7.351   2.441   6.539
  133SBC   H01O93654   7.310   2.483   6.630
  133SBC   C0GT93655   7.461   2.361   6.551
  133SBC   H01P93656   7.514   2.355   6.645
  133SBC   C0GS93657   7.510   2.313   6.431
  133SBC   C0GV93658   7.619   2.220   6.422
  133SBC   C0GW93659   7.706   2.169   6.523
  133SBC   H01Q93660   7.690   2.209   6.622
  133SBC   C0GX93661   7.785   2.073   6.488
  133SBC   H01R93662   7.844   2.023   6.563
  133SBC   O00L93663   7.810   2.036   6.357
  133SBC   C0GQ93664   7.628   2.179   6.287
  133SBC   C03A93665   7.415   2.327   6.005
  133SBC   C05L93666   7.728   2.084   6.255
  133SBC   C04W93667   7.924   1.621   5.921
  133SBC   C05I93668   8.012   1.511   5.912
  133SBC   C05O93669   8.090   1.479   6.026
  133SBC   C05293670   8.033   1.438   5.795
  133SBC   C04V93671   7.858   1.650   5.796
  133SBC   C04U93672   7.871   1.575   5.679
  133SBC   N00993673   8.066   1.550   6.141
  133SBC   C0GP93674   8.173   1.369   6.028
  133SBC   C05W93675   8.187   1.290   5.910
  133SBC   C07D93676   8.376   0.994   5.807
  133SBC   C06J93677   8.230   1.060   5.568
  133SBC   C05P93678   8.117   1.331   5.798
  133SBC   C05R93679   8.086   1.199   5.450
  133SBC   C04Z93680   7.967   1.471   5.674
  133SBC   C04C93681   7.924   1.342   5.335
  133SBC   C04G93682   7.749   1.480   5.226
  133SBC   C04J93683   7.569   1.685   5.222
  133SBC   C04T93684   7.800   1.610   5.564
  133SBC   N00393685   7.775   1.764   5.792
  133SBC   C04P93686   7.686   1.970   5.889
  133SBC   C03D93687   7.533   2.196   5.863
  133SBC   C02193688   7.377   2.252   5.646
  133SBC   C03F93689   7.553   1.939   5.546
  133SBC   C02293690   7.298   2.183   5.430
  133SBC   C02A93691   7.483   1.880   5.324
  133SBC   C02393692   7.226   2.115   5.216
  133SBC   C02593693   7.225   1.935   5.000
  133SBC   C02D93694   7.212   1.833   4.902
  133SBC   C02E93695   7.115   1.842   4.803
  133SBC   C02N93696   7.096   1.743   4.708
  133SBC   C04N93697   7.483   1.791   5.218
  133SBC   C02P93698   7.299   1.724   4.904
  133SBC   C04I93699   7.578   1.600   5.112
  133SBC   C04493700   7.575   1.419   4.903
  133SBC   C04393701   7.292   1.634   4.801
  133SBC   C05N93702   7.188   1.642   4.703
  133SBC   C09U93703   7.167   1.318   4.422
  133SBC   C09V93704   7.154   1.198   4.347
  133SBC   C09X93705   7.054   1.176   4.259
  133SBC   C09Y93706   7.027   1.063   4.190
  133SBC   C0A193707   7.113   0.962   4.197
  133SBC   C0A293708   7.221   0.979   4.281
  133SBC   C0A493709   7.320   0.882   4.278
  133SBC   C07193710   7.426   0.894   4.364
  133SBC   C0A593711   7.519   0.789   4.367
  133SBC   C0A993712   7.501   0.682   4.279
  133SBC   C0A893713   7.386   0.667   4.199
  133SBC   C0AP93714   7.367   0.552   4.129
  133SBC   C0BY93715   7.252   0.545   4.054
  133SBC   C0BX93716   7.163   0.643   4.035
  133SBC   C0C293717   7.054   0.628   3.949
  133SBC   C0C393718   6.953   0.723   3.952
  133SBC   C0CT93719   6.974   0.833   4.035
  133SBC   C0C193720   7.052   0.524   3.855
  133SBC   C0C093721   7.149   0.410   3.874
  133SBC   C0A793722   7.181   0.756   4.117
  133SBC   C0BZ93723   7.241   0.432   3.979
  133SBC   C0BO93724   7.337   0.328   3.981
  133SBC   C0BN93725   7.446   0.335   4.062
  133SBC   C0BM93726   7.538   0.234   4.050
  133SBC   C0B993727   7.656   0.250   4.125
  133SBC   C0B893728   7.669   0.361   4.206
  133SBC   C0AD93729   7.574   0.461   4.210
  133SBC   C0AF93730   7.783   0.374   4.276
  133SBC   C0AG93731   7.893   0.285   4.272
  133SBC   C0B793732   7.870   0.173   4.195
  133SBC   C0AE93733   7.791   0.481   4.360
  133SBC   C0AB93734   7.703   0.587   4.359
  133SBC   C0AA93735   7.716   0.692   4.444
  133SBC   C0AJ93736   7.909   0.495   4.433
  133SBC   C0AK93737   7.921   0.594   4.523
  133SBC   C06W93738   8.032   0.576   4.592
  133SBC   C0AI93739   8.015   0.405   4.439
  133SBC   C0BP93740   7.305   0.228   3.893
  133SBC   C0BQ93741   7.401   0.118   3.886
  133SBC   C0BW93742   7.458   0.445   4.138
  133SBC   C0AC93743   7.589   0.579   4.287
  133SBC   C0A693744   7.296   0.770   4.196
  133SBC   C0A393745   7.093   0.855   4.109
  133SBC   C09Z93746   6.910   1.045   4.113
  133SBC   C09W93747   7.243   1.097   4.354
  133SBC   C07293748   7.350   1.112   4.436
  133SBC   C09H93749   6.980   1.287   4.235
  133SBC   C09G93750   6.876   1.278   4.142
  133SBC   C09P93751   6.797   1.388   4.162
  133SBC   C02O93752   6.866   1.655   4.428
  133SBC   C02M93753   7.000   1.749   4.610
  133SBC   C02F93754   7.041   1.957   4.792
  133SBC   C00W93755   6.952   2.151   4.908
  133SBC   C01R93756   6.704   2.289   4.956
  133SBC   C01N93757   6.725   2.064   4.662
  133SBC   C01L93758   6.534   1.960   4.563
  133SBC   C01H93759   6.187   2.025   4.608
  133SBC   C01K93760   6.429   2.207   4.819
  133SBC   C01E93761   6.192   2.309   4.924
  133SBC   C01G93762   6.058   2.075   4.656
  133SBC   C01D93763   6.074   2.366   4.971
  133SBC   C01A93764   5.837   2.480   5.068
  133SBC   H00193765   5.745   2.512   5.114
  133SBC   C01F93766   5.821   2.196   4.768
  133SBC   C03P93767   5.562   2.113   4.702
  133SBC   C03T93768   5.651   1.941   4.563
  133SBC   C08I93769   5.644   1.727   4.383
  133SBC   C08J93770   5.646   1.613   4.309
  133SBC   C08L93771   5.775   1.440   4.191
  133SBC   C09393772   5.913   1.269   4.062
  133SBC   C08Z93773   6.129   1.445   4.106
  133SBC   C09T93774   6.292   1.034   3.903
  133SBC   C09S93775   6.407   1.354   4.007
  133SBC   C09Q93776   6.671   1.386   4.102
  133SBC   C09F93777   6.832   1.156   4.090
  133SBC   C09E93778   6.532   1.044   3.917
  133SBC   C0A093779   6.880   0.932   4.041
  133SBC   C0CU93780   6.842   0.713   3.878
  133SBC   C0CR93781   6.836   0.607   3.784
  133SBC   C0CZ93782   6.721   0.592   3.710
  133SBC   C0DA93783   6.424   0.951   3.893
  133SBC   C0D993784   6.279   0.635   3.808
  133SBC   H00V93785   6.208   0.658   3.886
  133SBC   C0CY93786   6.603   0.665   3.758
  133SBC   C0DF93787   6.296   0.515   3.728
  133SBC   C0DE93788   6.269   0.374   3.712
  133SBC   C0GI93789   6.149   0.299   3.740
  133SBC   H01K93790   6.070   0.358   3.783
  133SBC   C0GJ93791   6.146   0.171   3.699
  133SBC   H01J93792   6.051   0.123   3.713
  133SBC   O00I93793   6.251   0.100   3.637
  133SBC   C0GH93794   6.372   0.168   3.621
  133SBC   C0GG93795   6.485   0.089   3.579
  133SBC   O00G93796   6.458  -0.042   3.570
  133SBC   C0G893797   6.545  -0.134   3.517
  133SBC   C0G993798   6.496  -0.246   3.463
  133SBC   H01G93799   6.390  -0.256   3.480
  133SBC   C0GA93800   6.576  -0.338   3.397
  133SBC   H01H93801   6.536  -0.432   3.360
  133SBC   C0GB93802   6.716  -0.328   3.399
  133SBC   C0EP93803   6.765  -0.208   3.464
  133SBC   C0E893804   6.906  -0.205   3.494
  133SBC   C0CK93805   6.990  -0.127   3.570
  133SBC   C0CL93806   6.977   0.009   3.541
  133SBC   C0E993807   6.852   0.074   3.520
  133SBC   C0GE93808   6.714   0.031   3.531
  133SBC   C0E793809   6.995  -0.297   3.430
  133SBC   C0CJ93810   7.129  -0.272   3.461
  133SBC   C0E693811   7.225  -0.339   3.386
  133SBC   H00Y93812   7.330  -0.319   3.400
  133SBC   C0EO93813   7.184  -0.437   3.296
  133SBC   H01193814   7.261  -0.491   3.242
  133SBC   C0G693815   7.045  -0.461   3.275
  133SBC   C0G593816   6.992  -0.570   3.193
  133SBC   H01F93817   7.076  -0.617   3.144
  133SBC   C0GD93818   6.862  -0.585   3.179
  133SBC   H01I93819   6.827  -0.663   3.112
  133SBC   O00H93820   6.766  -0.512   3.250
  133SBC   C0EQ93821   6.945  -0.393   3.351
  133SBC   C0GC93822   6.809  -0.419   3.335
  133SBC   C0G793823   6.684  -0.103   3.507
  133SBC   C0DD93824   6.376   0.308   3.646
  133SBC   C0GF93825   6.617   0.131   3.547
  133SBC   C0CO93826   6.889   0.203   3.503
  133SBC   C0D093827   6.714   0.474   3.622
  133SBC   C0C493828   6.944   0.517   3.766
  133SBC   C0CN93829   7.027   0.224   3.517
  133SBC   C0CP93830   7.189   0.283   3.826
  133SBC   C0CM93831   7.087   0.101   3.542
  133SBC   C0CI93832   7.128  -0.177   3.572
  133SBC   C0CD93833   7.547  -0.319   3.758
  133SBC   C0BR93834   7.376   0.007   3.799
  133SBC   C0CS93835   7.521   0.129   3.963
  133SBC   C0B693836   7.754   0.154   4.120
  133SBC   C0CG93837   7.692  -0.174   3.881
  133SBC   C0CF93838   7.674  -0.291   3.812
  133SBC   C0E593839   7.620  -0.541   3.711
  133SBC   C0DT93840   7.818  -0.725   3.682
  133SBC   C0DL93841   7.998  -0.460   3.852
  133SBC   C0DM93842   8.120  -0.439   3.907
  133SBC   C0DY93843   8.207  -0.643   3.812
  133SBC   C0DU93844   7.922  -0.803   3.648
  133SBC   C0F093845   7.993  -1.031   3.589
  133SBC   C0F493846   8.154  -1.236   3.661
  133SBC   C0FG93847   8.377  -0.938   3.699
  133SBC   O00B93848   8.369  -1.294   3.775
  133SBC   C0FN93849   8.485  -0.946   3.777
  133SBC   C0DZ93850   8.310  -0.732   3.794
  133SBC   O00C93851   8.556  -0.603   4.016
  133SBC   C0FR93852   8.587  -0.493   4.102
  133SBC   O00D93853   8.698  -0.492   4.147
  133SBC   C0E093854   8.221  -0.533   3.896
  133SBC   C0E393855   8.487  -0.390   4.106
  133SBC   C0AW93856   8.502  -0.276   4.192
  133SBC   C0AV93857   8.620  -0.243   4.268
  133SBC   H00Q93858   8.713  -0.297   4.266
  133SBC   C0AU93859   8.627  -0.128   4.354
  133SBC   H00R93860   8.709  -0.121   4.423
  133SBC   C0AT93861   8.515  -0.041   4.360
  133SBC   C0AS93862   8.485   0.089   4.418
  133SBC   C0AR93863   8.580   0.195   4.458
  133SBC   C0BE93864   8.402  -0.077   4.283
  133SBC   C0DN93865   8.136  -0.323   3.981
  133SBC   C0AX93866   8.389  -0.192   4.202
  133SBC   C0BB93867   8.052  -0.121   4.083
  133SBC   C0BD93868   8.305   0.012   4.310
  133SBC   C0B293869   7.971   0.081   4.180
  133SBC   C0AH93870   8.011   0.291   4.353
  133SBC   C0BF93871   8.343   0.114   4.396
  133SBC   C0AL93872   8.095   0.458   4.543
  133SBC   C07U93873   8.406   0.327   4.600
  133SBC   C0AQ93874   8.537   0.291   4.555
  133SBC   C0BG93875   8.728   0.218   4.449
  133SBC   C0FY93876   8.907   0.266   4.754
  133SBC   C0BJ93877   8.842   0.130   4.450
  133SBC   H00S93878   8.842   0.033   4.403
  133SBC   C0FZ93879   8.986   0.151   4.763
  133SBC   C07S93880   8.823   0.305   4.868
  133SBC   C0G193881   8.989   0.088   5.117
  133SBC   C07K93882   8.730   0.235   5.342
  133SBC   C07H93883   8.663   0.374   5.100
  133SBC   C06B93884   8.535   0.587   5.360
  133SBC   C06N93885   8.369   0.694   5.241
  133SBC   C06693886   8.505   0.486   4.934
  133SBC   C06293887   8.239   0.577   4.812
  133SBC   C05Y93888   8.193   0.827   5.106
  133SBC   C06193889   8.173   0.688   4.752
  133SBC   C05H93890   7.935   0.917   4.897
  133SBC   C06V93891   8.058   0.670   4.682
  133SBC   C06Y93892   7.822   0.697   4.534
  133SBC   C05C93893   7.745   1.004   4.727
  133SBC   C06Z93894   7.624   0.792   4.448
  133SBC   C07093895   7.438   1.005   4.445
  133SBC   C05B93896   7.650   1.108   4.724
  133SBC   C05793897   7.467   1.322   4.705
  133SBC   C05993898   7.360   1.219   4.521
  134SBC   C05893899  11.835   5.390   5.089
  134SBC   C05A93900  11.707   5.426   5.130
  134SBC   C06Q93901  11.613   5.325   5.153
  134SBC   C06R93902  11.483   5.360   5.187
  134SBC   C06S93903  11.440   5.493   5.200
  134SBC   C06T93904  11.305   5.517   5.239
  134SBC   C06U93905  11.238   5.646   5.270
  134SBC   C06X93906  11.275   5.784   5.257
  134SBC   C06093907  11.165   5.872   5.288
  134SBC   C05Z93908  11.121   5.989   5.220
  134SBC   C06893909  10.971   5.978   5.218
  134SBC   C06793910  10.867   6.073   5.177
  134SBC   C06993911  10.902   6.204   5.135
  134SBC   C06A93912  10.820   6.305   5.067
  134SBC   C07393913  10.701   6.292   4.995
  134SBC   C07P93914  10.686   6.358   4.867
  134SBC   C07O93915  10.796   6.408   4.788
  134SBC   H00D93916  10.898   6.401   4.824
  134SBC   C07N93917  10.772   6.453   4.656
  134SBC   H00E93918  10.858   6.477   4.595
  134SBC   C07M93919  10.639   6.480   4.619
  134SBC   H00F93920  10.620   6.526   4.523
  134SBC   C07L93921  10.529   6.444   4.702
  134SBC   C07Q93922  10.389   6.466   4.671
  134SBC   H00G93923  10.356   6.524   4.586
  134SBC   O00F93924  10.284   6.424   4.751
  134SBC   C07J93925  10.313   6.380   4.876
  134SBC   C07I93926  10.448   6.349   4.914
  134SBC   N00493927  10.467   6.276   5.039
  134SBC   C07R93928  10.354   6.244   5.124
  134SBC   C07T93929  10.227   6.271   5.068
  134SBC   C0FX93930  10.117   6.215   5.124
  134SBC   C0FW93931   9.991   6.207   5.069
  134SBC   C0G093932   9.975   6.279   4.947
  134SBC   C0G293933   9.860   6.267   4.865
  134SBC   H01E93934   9.850   6.332   4.779
  134SBC   C0G393935   9.754   6.193   4.921
  134SBC   H01C93936   9.660   6.196   4.867
  134SBC   C0G493937   9.760   6.122   5.042
  134SBC   H01D93938   9.678   6.060   5.076
  134SBC   O00E93939  10.074   6.362   4.898
  134SBC   C0FV93940   9.883   6.122   5.119
  134SBC   C0FU93941   9.908   6.050   5.236
  134SBC   H01B93942   9.837   5.979   5.274
  134SBC   C0FT93943  10.033   6.062   5.296
  134SBC   C0FS93944  10.095   5.996   5.403
  134SBC   C0BI93945  10.227   6.054   5.425
  134SBC   C0BH93946  10.313   5.949   5.463
  134SBC   C07F93947  10.439   5.919   5.398
  134SBC   C07E93948  10.533   6.003   5.331
  134SBC   C07G93949  10.500   6.119   5.265
  134SBC   C07493950  10.609   6.145   5.183
  134SBC   C06593951  10.654   5.956   5.289
  134SBC   C06493952  10.686   5.822   5.305
  134SBC   C06393953  10.810   5.759   5.269
  134SBC   C07593954  10.786   5.618   5.313
  134SBC   C0AM93955  10.640   5.595   5.342
  134SBC   C0AN93956  10.568   5.466   5.366
  134SBC   C0AO93957  10.625   5.327   5.350
  134SBC   C0B193958  10.529   5.213   5.351
  134SBC   C0B093959  10.396   5.227   5.354
  134SBC   C0AZ93960  10.297   5.129   5.353
  134SBC   C0AY93961  10.164   5.162   5.356
  134SBC   N00793962  10.064   5.065   5.335
  134SBC   C0E293963   9.927   5.106   5.322
  134SBC   C0E193964   9.832   5.009   5.300
  134SBC   C0E493965   9.703   5.047   5.278
  134SBC   C0FF93966   9.600   4.954   5.257
  134SBC   C0FJ93967   9.460   4.963   5.212
  134SBC   C0FK93968   9.407   5.066   5.128
  134SBC   H01693969   9.435   5.169   5.107
  134SBC   C0FL93970   9.300   5.009   5.055
  134SBC   H01793971   9.252   5.041   4.964
  134SBC   C0FM93972   9.277   4.876   5.098
  134SBC   C0FH93973   9.239   4.741   5.051
  134SBC   C0FI93974   9.320   4.664   5.142
  134SBC   C0F393975   9.370   4.539   5.101
  134SBC   C0F293976   9.494   4.503   5.144
  134SBC   C0DW93977   9.584   4.580   5.214
  134SBC   C0FE93978   9.544   4.705   5.251
  134SBC   C0DV93979   9.714   4.546   5.224
  134SBC   C0DX93980   9.808   4.645   5.255
  134SBC   C0DK93981   9.943   4.606   5.254
  134SBC   C0DJ93982   9.983   4.479   5.211
  134SBC   C0DI93983  10.119   4.448   5.201
  134SBC   C0DH93984  10.217   4.543   5.231
  134SBC   C0DG93985  10.180   4.674   5.271
  134SBC   C0BV93986  10.274   4.772   5.294
  134SBC   C0BC93987  10.238   4.902   5.318
  134SBC   C0BA93988  10.412   4.735   5.290
  134SBC   C0B493989  10.509   4.833   5.305
  134SBC   C0B393990  10.471   4.966   5.323
  134SBC   C0B593991  10.645   4.804   5.294
  134SBC   C0BU93992  10.681   4.668   5.271
  134SBC   C0BT93993  10.587   4.566   5.251
  134SBC   C0BS93994  10.623   4.433   5.218
  134SBC   C0CC93995  10.526   4.344   5.173
  134SBC   C0CB93996  10.564   4.225   5.119
  134SBC   C0CH93997  10.469   4.170   5.031
  134SBC   C0DO93998  10.326   4.196   5.044
  134SBC   C0DP93999  10.235   4.113   4.980
  134SBC   C0EA94000  10.276   3.996   4.901
  134SBC   H01294001  10.378   3.978   4.870
  134SBC   O00994002  10.189   3.893   4.878
  134SBC   C0EH94003  10.056   3.922   4.897
  134SBC   C0EG94004   9.968   3.830   4.849
  134SBC   C0EJ94005   9.987   3.719   4.759
  134SBC   H01094006  10.083   3.676   4.734
  134SBC   C0EK94007   9.857   3.665   4.715
  134SBC   H00Z94008   9.831   3.579   4.654
  134SBC   C0EL94009   9.764   3.749   4.787
  134SBC   C0EM94010   9.629   3.776   4.742
  134SBC   C0EW94011   9.553   3.711   4.648
  134SBC   H01394012   9.599   3.629   4.596
  134SBC   C0EX94013   9.416   3.761   4.612
  134SBC   H01494014   9.362   3.710   4.533
  134SBC   C0F194015   9.362   3.879   4.671
  134SBC   C0EU94016   9.441   3.942   4.766
  134SBC   C0ET94017   9.421   4.069   4.824
  134SBC   C0ES94018   9.538   4.092   4.900
  134SBC   C0EE94019   9.632   3.990   4.883
  134SBC   C0ED94020   9.770   3.963   4.909
  134SBC   C0EC94021   9.864   4.059   4.973
  134SBC   C0EB94022   9.828   4.176   5.047
  134SBC   C0EN94023   9.690   4.223   5.049
  134SBC   C0ER94024   9.664   4.339   5.118
  134SBC   C0DS94025   9.926   4.269   5.100
  134SBC   C0DR94026  10.060   4.234   5.088
  134SBC   C0EY94027   9.567   4.194   4.987
  134SBC   C0EZ94028   9.473   4.302   5.002
  134SBC   C0F594029   9.349   4.353   4.944
  134SBC   C0F694030   9.283   4.279   4.841
  134SBC   N00894031   9.164   4.351   4.787
  134SBC   C0F794032   9.123   4.481   4.833
  134SBC   C0FQ94033   9.006   4.538   4.773
  134SBC   H01894034   8.969   4.637   4.796
  134SBC   C0FP94035   8.925   4.473   4.681
  134SBC   H01994036   8.850   4.530   4.628
  134SBC   C0FO94037   8.967   4.348   4.637
  134SBC   H01A94038   8.901   4.298   4.568
  134SBC   C0F894039   9.199   4.548   4.926
  134SBC   C0F994040   9.084   4.284   4.686
  134SBC   C0FA94041   9.117   4.153   4.632
  134SBC   H01594042   9.055   4.108   4.555
  134SBC   C0FB94043   9.231   4.092   4.678
  134SBC   C0FD94044   9.308   4.150   4.784
  134SBC   C0FC94045   9.253   3.954   4.624
  134SBC   O00A94046   9.187   3.909   4.530
  134SBC   C0EV94047   9.571   3.892   4.800
  134SBC   C0EF94048   9.836   3.845   4.862
  134SBC   C0EI94049  10.008   4.034   4.967
  134SBC   C0DQ94050  10.100   4.122   5.018
  134SBC   C0CE94051  10.290   4.297   5.128
  134SBC   H00U94052  10.506   4.093   4.966
  134SBC   C0CA94053  10.687   4.168   5.163
  134SBC   C0C994054  10.799   4.257   5.201
  134SBC   C0C894055  10.932   4.198   5.218
  134SBC   C0C794056  11.066   4.255   5.219
  134SBC   C0C694057  11.173   4.161   5.232
  134SBC   C0C594058  11.312   4.145   5.194
  134SBC   C0CQ94059  11.357   4.013   5.174
  134SBC   C0D194060  11.268   3.906   5.166
  134SBC   C0D894061  11.303   3.812   5.072
  134SBC   C0D794062  11.440   3.841   5.042
  134SBC   C0D694063  11.505   3.784   4.931
  134SBC   C0D594064  11.634   3.826   4.881
  134SBC   C0D494065  11.715   3.936   4.913
  134SBC   C0D394066  11.787   3.968   4.798
  134SBC   C0CX94067  11.836   4.109   4.811
  134SBC   C0CW94068  11.753   4.169   4.917
  134SBC   C0CV94069  11.741   4.296   4.986
  134SBC   C0D294070  11.844   4.396   4.967
  134SBC   C09D94071  11.976   4.375   4.920
  134SBC   C09C94072  12.075   4.478   4.934
  134SBC   C09B94073  12.210   4.466   4.898
  134SBC   C09A94074  12.243   4.348   4.831
  134SBC   C09994075  12.168   4.238   4.841
  134SBC   C09894076  12.214   4.141   4.751
  134SBC   C08Y94077  12.329   4.202   4.679
  134SBC   C08X94078  12.386   4.163   4.554
  134SBC   C08W94079  12.336   4.051   4.482
  134SBC   C08U94080  12.219   3.970   4.507
  134SBC   C08V94081  12.105   3.988   4.600
  134SBC   C0DC94082  12.033   3.864   4.594
  134SBC   H00W94083  11.965   3.831   4.671
  134SBC   C0DB94084  12.080   3.781   4.489
  134SBC   H00X94085  12.045   3.684   4.456
  134SBC   C08T94086  12.196   3.848   4.440
  134SBC   C08S94087  12.275   3.807   4.337
  134SBC   H00N94088  12.261   3.714   4.284
  134SBC   C08R94089  12.381   3.887   4.292
  134SBC   C08Q94090  12.458   3.868   4.173
  134SBC   H00O94091  12.428   3.782   4.114
  134SBC   C08P94092  12.559   3.951   4.120
  134SBC   C08O94093  12.627   3.929   3.996
  134SBC   H00P94094  12.611   3.843   3.933
  134SBC   C08N94095  12.724   4.014   3.950
  134SBC   C08M94096  12.803   3.983   3.833
  134SBC   O00894097  12.795   3.882   3.762
  134SBC   O00794098  12.886   4.083   3.794
  134SBC   C08H94099  12.913   4.199   3.859
  134SBC   C08G94100  13.004   4.304   3.806
  134SBC   C03V94101  13.079   4.302   3.686
  134SBC   H00994102  13.078   4.212   3.626
  134SBC   C03U94103  13.171   4.403   3.653
  134SBC   C03W94104  13.245   4.404   3.537
  134SBC   H00A94105  13.229   4.328   3.462
  134SBC   C03X94106  13.334   4.498   3.519
  134SBC   H00B94107  13.400   4.481   3.435
  134SBC   O00594108  13.354   4.608   3.601
  134SBC   C03O94109  13.272   4.612   3.709
  134SBC   C03N94110  13.265   4.732   3.782
  134SBC   O00094111  13.329   4.837   3.727
  134SBC   C01994112  13.309   4.963   3.768
  134SBC   C01894113  13.229   4.982   3.887
  134SBC   C01794114  13.170   4.870   3.950
  134SBC   C01694115  13.093   4.885   4.069
  134SBC   C01594116  13.090   5.018   4.119
  134SBC   C01494117  13.018   5.040   4.242
  134SBC   C01394118  12.953   4.933   4.307
  134SBC   C01294119  12.894   5.007   4.420
  134SBC   C01194120  12.954   5.136   4.420
  134SBC   C01094121  12.934   5.220   4.521
  134SBC   C00Z94122  12.955   5.356   4.520
  134SBC   C00Y94123  12.878   5.401   4.625
  134SBC   C01O94124  12.805   5.297   4.687
  134SBC   C01P94125  12.679   5.320   4.745
  134SBC   C02L94126  12.607   5.213   4.775
  134SBC   C02K94127  12.658   5.092   4.716
  134SBC   C01M94128  12.767   5.074   4.618
  134SBC   C02J94129  12.582   4.980   4.757
  134SBC   C02I94130  12.606   4.844   4.727
  134SBC   C02H94131  12.694   4.784   4.637
  134SBC   C01Q94132  12.783   4.839   4.544
  134SBC   C02G94133  12.826   4.727   4.465
  134SBC   C08994134  12.783   4.608   4.520
  134SBC   C08894135  12.758   4.511   4.422
  134SBC   C08794136  12.833   4.564   4.304
  134SBC   C08694137  12.865   4.497   4.189
  134SBC   C03S94138  12.947   4.539   4.084
  134SBC   N00694139  12.952   4.427   4.002
  134SBC   C08F94140  12.875   4.329   4.051
  134SBC   C01J94141  13.021   4.655   4.055
  134SBC   C03R94142  13.100   4.644   3.938
  134SBC   C03Q94143  13.101   4.526   3.856
  134SBC   C08E94144  12.809   4.366   4.161
  134SBC   C08D94145  12.712   4.275   4.218
  134SBC   C08K94146  12.688   4.154   4.147
  134SBC   C08C94147  12.647   4.291   4.344
  134SBC   C09194148  12.551   4.204   4.390
  134SBC   C09294149  12.519   4.084   4.315
  134SBC   C08B94150  12.663   4.394   4.437
  134SBC   C09094151  12.569   4.360   4.546
  134SBC   C09494152  12.559   4.429   4.671
  134SBC   C09594153  12.446   4.424   4.749
  134SBC   C09R94154  12.424   4.540   4.817
  134SBC   C09794155  12.513   4.637   4.777
  134SBC   C09694156  12.592   4.570   4.688
  134SBC   C01I94157  12.875   4.706   4.332
  134SBC   C08A94158  12.690   4.647   4.621
  134SBC   C09L94159  12.516   4.776   4.803
  134SBC   C09K94160  12.424   4.867   4.870
  134SBC   C09J94161  12.299   4.833   4.933
  134SBC   C09I94162  12.195   4.919   4.961
  134SBC   C09O94163  12.171   5.059   4.969
  134SBC   C09N94164  12.272   5.151   4.935
  134SBC   C09M94165  12.401   5.130   4.867
  134SBC   C06O94166  12.230   5.286   4.952
  134SBC   C05M94167  12.100   5.327   5.007
  134SBC   C06P94168  12.003   5.226   5.041
  134SBC   C04294169  12.058   5.460   5.023
  134SBC   C04194170  12.149   5.561   4.988
  134SBC   C04094171  12.109   5.695   5.001
  134SBC   C03Z94172  12.189   5.798   4.960
  134SBC   C03Y94173  12.317   5.765   4.915
  134SBC   C02794174  12.397   5.867   4.864
  134SBC   C02694175  12.517   5.836   4.799
  134SBC   C02894176  12.585   5.940   4.731
  134SBC   C02994177  12.530   6.066   4.714
  134SBC   C02B94178  12.585   6.155   4.624
  134SBC   C02C94179  12.531   6.279   4.614
  134SBC   C02X94180  12.573   6.367   4.514
  134SBC   C03E94181  12.518   6.491   4.512
  134SBC   C03G94182  12.436   6.542   4.606
  134SBC   C04Q94183  12.389   6.450   4.701
  134SBC   C04R94184  12.285   6.489   4.786
  134SBC   C04S94185  12.217   6.394   4.863
  134SBC   C04L94186  12.261   6.264   4.859
  134SBC   C04M94187  12.368   6.226   4.782
  134SBC   C04K94188  12.188   6.168   4.918
  134SBC   C04F94189  12.064   6.196   4.972
  134SBC   C04E94190  12.017   6.323   4.972
  134SBC   C04D94191  11.886   6.354   5.016
  134SBC   C05094192  11.837   6.484   5.015
  134SBC   C05194193  11.702   6.510   5.051
  134SBC   C05Q94194  11.657   6.644   5.037
  134SBC   C05V94195  11.526   6.667   5.065
  134SBC   N00594196  11.478   6.801   5.053
  134SBC   C07V94197  11.572   6.900   5.015
  134SBC   C08294198  11.526   7.030   4.997
  134SBC   C08194199  11.391   7.071   5.016
  134SBC   C07C94200  11.298   6.965   5.034
  134SBC   C07B94201  11.162   6.992   5.039
  134SBC   C08094202  11.113   7.124   5.026
  134SBC   C07Z94203  10.976   7.142   5.037
  134SBC   H00L94204  10.947   7.245   5.022
  134SBC   C07994205  10.886   7.037   5.056
  134SBC   C07894206  10.934   6.909   5.065
  134SBC   C07794207  10.848   6.802   5.072
  134SBC   C07X94208  10.707   6.827   5.082
  134SBC   H00I94209  10.640   6.744   5.098
  134SBC   C07Y94210  10.653   6.956   5.088
  134SBC   H00H94211  10.550   6.979   5.112
  134SBC   C07694212  10.898   6.666   5.079
  134SBC   C06C94213  10.814   6.558   5.077
  134SBC   H00C94214  10.709   6.567   5.053
  134SBC   C06F94215  11.030   6.646   5.093
  134SBC   C06E94216  11.085   6.521   5.126
  134SBC   C06G94217  11.217   6.485   5.133
  134SBC   C06H94218  11.305   6.589   5.109
  134SBC   C06I94219  11.256   6.722   5.086
  134SBC   C06L94220  11.255   6.344   5.149
  134SBC   C06M94221  11.160   6.232   5.162
  134SBC   C06K94222  11.391   6.322   5.136
  134SBC   C05S94223  11.478   6.429   5.114
  134SBC   C05U94224  11.444   6.193   5.147
  134SBC   C05X94225  11.356   6.084   5.181
  134SBC   C05G94226  11.430   5.955   5.185
  134SBC   C05F94227  11.564   5.954   5.175
  134SBC   C05E94228  11.608   5.821   5.170
  134SBC   C04894229  11.740   5.792   5.142
  134SBC   C05694230  11.765   5.656   5.122
  134SBC   C04594231  11.893   5.625   5.079
  134SBC   C04794232  11.821   5.893   5.112
  134SBC   C04994233  11.777   6.022   5.110
  134SBC   C04B94234  11.857   6.125   5.072
  134SBC   C04694235  11.947   5.860   5.070
  134SBC   C04H94236  12.030   5.961   5.024
  134SBC   C05D94237  11.508   5.728   5.191
  134SBC   C04A94238  11.646   6.055   5.133
  134SBC   C05T94239  11.583   6.177   5.129
  134SBC   C05594240  11.671   6.280   5.093
  134SBC   C06D94241  11.001   6.408   5.118
  134SBC   C07W94242  11.120   6.752   5.076
  134SBC   C08594243  10.745   7.058   5.055
  134SBC   H00M94244  10.719   7.162   5.049
  134SBC   C08494245  11.209   7.220   5.011
  134SBC   H00J94246  11.174   7.320   4.991
  134SBC   C07A94247  11.070   6.884   5.055
  134SBC   C08394248  11.347   7.200   5.010
  134SBC   H00K94249  11.421   7.275   4.986
  134SBC   O00K94250  11.611   7.145   4.981
  134SBC   C0GO94251  11.741   7.113   4.952
  134SBC   C0GN94252  11.834   7.217   4.920
  134SBC   H01L94253  11.801   7.320   4.924
  134SBC   C0GM94254  11.968   7.185   4.893
  134SBC   C0GL94255  12.059   7.283   4.880
  134SBC   H01M94256  12.023   7.384   4.894
  134SBC   O00J94257  12.191   7.261   4.854
  134SBC   C0GK94258  12.227   7.128   4.835
  134SBC   H01N94259  12.330   7.108   4.810
  134SBC   C05K94260  12.132   7.026   4.838
  134SBC   C05J94261  12.173   6.896   4.806
  134SBC   C04Y94262  12.279   6.853   4.717
  134SBC   C04X94263  12.310   6.716   4.702
  134SBC   O00694264  12.358   6.945   4.643
  134SBC   C05394265  12.447   6.906   4.541
  134SBC   C04O94266  12.468   6.769   4.518
  134SBC   C03C94267  12.547   6.711   4.413
  134SBC   C03B94268  12.637   6.761   4.304
  134SBC   C05494269  12.691   6.888   4.302
  134SBC   C0GR94270  12.791   6.939   4.215
  134SBC   C03M94271  12.893   6.875   4.124
  134SBC   C03I94272  12.901   6.737   4.108
  134SBC   C03J94273  12.995   6.697   4.013
  134SBC   N00294274  13.039   6.559   4.002
  134SBC   C02U94275  13.123   6.504   3.903
  134SBC   C02T94276  13.170   6.372   3.899
  134SBC   C02Z94277  13.252   6.324   3.797
  134SBC   N00194278  13.299   6.188   3.799
  134SBC   C02R94279  13.371   6.142   3.689
  134SBC   C03294280  13.408   6.227   3.581
  134SBC   C03194281  13.363   6.360   3.584
  134SBC   H00794282  13.393   6.421   3.500
  134SBC   C03394283  13.483   6.165   3.486
  134SBC   H00394284  13.510   6.229   3.403
  134SBC   O00494285  13.540   6.038   3.489
  134SBC   C03494286  13.497   5.956   3.590
  134SBC   C03594287  13.544   5.823   3.598
  134SBC   C03694288  13.522   5.745   3.708
  134SBC   H00594289  13.569   5.648   3.707
  134SBC   C03794290  13.451   5.801   3.815
  134SBC   H00694291  13.448   5.749   3.909
  134SBC   C00D94292  13.393   5.926   3.805
  134SBC   C00C94293  13.309   5.967   3.906
  134SBC   C00B94294  13.270   5.884   4.024
  134SBC   C00A94295  13.255   5.740   4.073
  134SBC   C00994296  13.191   5.748   4.196
  134SBC   C00894297  13.131   5.642   4.276
  134SBC   C00794298  13.138   5.515   4.230
  134SBC   C00694299  13.081   5.406   4.301
  134SBC   C00594300  13.090   5.276   4.244
  134SBC   C00494301  13.141   5.256   4.113
  134SBC   C00394302  13.193   5.364   4.044
  134SBC   C00294303  13.253   5.343   3.919
  134SBC   C01C94304  13.264   5.218   3.867
  134SBC   C01B94305  13.350   5.198   3.753
  134SBC   H00094306  13.407   5.277   3.707
  134SBC   C00194307  13.284   5.455   3.839
  134SBC   C00094308  13.251   5.579   3.887
  134SBC   C01U94309  13.205   5.655   3.775
  134SBC   H00294310  13.171   5.756   3.757
  134SBC   C01T94311  13.242   5.572   3.659
  134SBC   O00294312  13.260   5.605   3.540
  134SBC   O00194313  13.275   5.454   3.703
  134SBC   C01S94314  13.188   5.492   4.098
  134SBC   C00N94315  13.054   5.677   4.385
  134SBC   C00M94316  13.016   5.811   4.403
  134SBC   C00J94317  13.067   5.907   4.321
  134SBC   C00I94318  13.017   6.034   4.308
  134SBC   C00H94319  13.065   6.124   4.212
  134SBC   C00G94320  13.161   6.089   4.121
  134SBC   C00F94321  13.183   6.159   4.008
  134SBC   C01X94322  13.006   6.249   4.198
  134SBC   C01W94323  12.903   6.279   4.284
  134SBC   C01V94324  12.864   6.194   4.389
  134SBC   C02094325  12.751   6.221   4.459
  134SBC   C01Z94326  12.836   6.399   4.264
  134SBC   C02Y94327  12.728   6.422   4.339
  134SBC   C03994328  12.662   6.537   4.323
  134SBC   C02W94329  12.884   6.501   4.177
  134SBC   C01Y94330  13.046   6.336   4.099
  134SBC   C00U94331  12.921   6.071   4.398
  134SBC   C00S94332  12.871   5.981   4.493
  134SBC   C00T94333  12.763   6.010   4.572
  134SBC   C00R94334  12.925   5.852   4.497
  134SBC   C00Q94335  12.861   5.753   4.571
  134SBC   C00V94336  12.754   5.781   4.657
  134SBC   C02494337  12.682   5.684   4.728
  134SBC   C00X94338  12.719   5.556   4.715
  134SBC   C00P94339  12.906   5.623   4.563
  134SBC   C00O94340  12.991   5.579   4.459
  134SBC   C00K94341  13.166   5.874   4.226
  134SBC   N00094342  13.230   5.606   4.021
  134SBC   C00L94343  13.207   5.954   4.125
  134SBC   H00494344  13.613   5.789   3.522
  134SBC   C02Q94345  13.421   6.009   3.696
  134SBC   C00E94346  13.264   6.103   3.910
  134SBC   C03094347  13.286   6.412   3.695
  134SBC   O00394348  13.230   6.544   3.693
  134SBC   C02S94349  13.139   6.290   4.003
  134SBC   C03894350  13.163   6.590   3.804
  134SBC   C03L94351  13.143   6.727   3.823
  134SBC   H00894352  13.182   6.793   3.746
  134SBC   C02V94353  12.987   6.466   4.092
  134SBC   C03K94354  13.061   6.785   3.922
  134SBC   C0BK94355  13.041   6.922   3.947
  134SBC   H00T94356  13.095   6.997   3.891
  134SBC   C03H94357  12.836   6.635   4.175
  134SBC   C0BL94358  12.972   6.971   4.053
  134SBC   C0GU94359  12.975   7.108   4.085
  134SBC   H01O94360  13.058   7.162   4.043
  134SBC   C0GT94361  12.884   7.171   4.176
  134SBC   H01P94362  12.890   7.277   4.197
  134SBC   C0GS94363  12.793   7.080   4.235
  134SBC   C0GV94364  12.696   7.114   4.331
  134SBC   C0GW94365  12.669   7.243   4.382
  134SBC   H01Q94366  12.728   7.327   4.347
  134SBC   C0GX94367  12.562   7.248   4.464
  134SBC   H01R94368  12.536   7.343   4.508
  134SBC   O00L94369  12.490   7.135   4.511
  134SBC   C0GQ94370  12.631   6.999   4.373
  134SBC   C03A94371  12.715   6.650   4.255
  134SBC   C05L94372  12.524   7.005   4.474
  134SBC   C04W94373  12.091   6.794   4.858
  134SBC   C05I94374  11.965   6.822   4.912
  134SBC   C05O94375  11.913   6.946   4.907
  134SBC   C05294376  11.877   6.716   4.961
  134SBC   C04V94377  12.127   6.661   4.853
  134SBC   C04U94378  12.048   6.562   4.914
  134SBC   N00994379  11.998   7.051   4.877
  134SBC   C0GP94380  11.787   6.976   4.952
  134SBC   C05W94381  11.705   6.874   4.998
  134SBC   C07D94382  11.339   6.832   5.059
  134SBC   C06J94383  11.437   6.563   5.100
  134SBC   C05P94384  11.749   6.744   4.996
  134SBC   C05R94385  11.613   6.409   5.094
  134SBC   C04Z94386  11.924   6.586   4.971
  134SBC   C04C94387  11.806   6.255   5.057
  134SBC   C04G94388  11.989   6.094   5.023
  134SBC   C04J94389  12.232   6.034   4.916
  134SBC   C04T94390  12.096   6.428   4.917
  134SBC   N00394391  12.242   6.623   4.778
  134SBC   C04P94392  12.413   6.677   4.612
  134SBC   C03D94393  12.563   6.575   4.413
  134SBC   C02194394  12.683   6.335   4.437
  134SBC   C03F94395  12.429   6.317   4.697
  134SBC   C02294396  12.699   6.130   4.552
  134SBC   C02A94397  12.415   6.097   4.781
  134SBC   C02394398  12.700   5.909   4.653
  134SBC   C02594399  12.565   5.709   4.796
  134SBC   C02D94400  12.484   5.606   4.846
  134SBC   C02E94401  12.526   5.475   4.833
  134SBC   C02N94402  12.442   5.366   4.871
  134SBC   C04N94403  12.350   5.999   4.851
  134SBC   C02P94404  12.363   5.634   4.905
  134SBC   C04I94405  12.148   5.932   4.961
  134SBC   C04494406  11.982   5.726   5.052
  134SBC   C04394407  12.275   5.528   4.934
  134SBC   C05N94408  12.316   5.393   4.921
  134SBC   C09U94409  12.042   5.091   5.025
  134SBC   C09V94410  11.938   4.996   5.041
  134SBC   C09X94411  11.963   4.857   5.036
  134SBC   C09Y94412  11.870   4.760   5.034
  134SBC   C0A194413  11.743   4.791   5.082
  134SBC   C0A294414  11.715   4.925   5.104
  134SBC   C0A494415  11.586   4.959   5.135
  134SBC   C07194416  11.549   5.092   5.154
  134SBC   C0A594417  11.419   5.124   5.182
  134SBC   C0A994418  11.326   5.019   5.207
  134SBC   C0A894419  11.366   4.889   5.191
  134SBC   C0AP94420  11.269   4.793   5.200
  134SBC   C0BY94421  11.308   4.665   5.174
  134SBC   C0BX94422  11.434   4.620   5.143
  134SBC   C0C294423  11.460   4.485   5.124
  134SBC   C0C394424  11.589   4.447   5.086
  134SBC   C0CT94425  11.683   4.552   5.068
  134SBC   C0C194426  11.364   4.383   5.144
  134SBC   C0C094427  11.226   4.433   5.157
  134SBC   C0A794428  11.528   4.722   5.138
  134SBC   C0BZ94429  11.211   4.568   5.173
  134SBC   C0BO94430  11.079   4.601   5.195
  134SBC   C0BN94431  11.038   4.726   5.229
  134SBC   C0BM94432  10.907   4.745   5.257
  134SBC   C0B994433  10.866   4.878   5.288
  134SBC   C0B894434  10.966   4.976   5.281
  134SBC   C0AD94435  11.099   4.949   5.253
  134SBC   C0AF94436  10.928   5.105   5.300
  134SBC   C0AG94437  10.797   5.144   5.327
  134SBC   C0B794438  10.700   5.044   5.324
  134SBC   C0AE94439  11.030   5.199   5.287
  134SBC   C0AB94440  11.166   5.176   5.257
  134SBC   C0AA94441  11.257   5.283   5.243
  134SBC   C0AJ94442  10.992   5.332   5.294
  134SBC   C0AK94443  11.081   5.433   5.280
  134SBC   C06W94444  11.017   5.544   5.293
  134SBC   C0AI94445  10.864   5.377   5.324
  134SBC   C0BP94446  10.998   4.493   5.195
  134SBC   C0BQ94447  10.856   4.505   5.227
  134SBC   C0BW94448  11.135   4.823   5.224
  134SBC   C0AC94449  11.196   5.047   5.242
  134SBC   C0A694450  11.496   4.857   5.158
  134SBC   C0A394451  11.655   4.689   5.098
  134SBC   C09Z94452  11.903   4.628   5.010
  134SBC   C09W94453  11.812   5.027   5.082
  134SBC   C07294454  11.776   5.161   5.096
  134SBC   C09H94455  12.097   4.829   5.007
  134SBC   C09G94456  12.129   4.697   4.984
  134SBC   C09P94457  12.255   4.696   4.932
  134SBC   C02O94458  12.459   4.999   4.835
  134SBC   C02M94459  12.486   5.237   4.840
  134SBC   C02F94460  12.642   5.449   4.760
  134SBC   C00W94461  12.836   5.533   4.638
  134SBC   C01R94462  13.012   5.443   4.418
  134SBC   C01N94463  12.843   5.188   4.616
  134SBC   C01L94464  12.812   4.973   4.530
  134SBC   C01H94465  12.947   4.798   4.254
  134SBC   C01K94466  13.020   5.163   4.302
  134SBC   C01E94467  13.153   5.125   4.062
  134SBC   C01G94468  13.018   4.773   4.128
  134SBC   C01D94469  13.216   5.109   3.937
  134SBC   C01A94470  13.369   5.069   3.703
  134SBC   H00194471  13.433   5.065   3.615
  134SBC   C01F94472  13.178   4.747   3.894
  134SBC   C03P94473  13.178   4.510   3.743
  134SBC   C03T94474  13.018   4.419   3.886
  134SBC   C08I94475  12.842   4.220   3.975
  134SBC   C08J94476  12.746   4.132   4.021
  134SBC   C08L94477  12.587   4.064   4.194
  134SBC   C09394478  12.411   4.005   4.367
  134SBC   C08Z94479  12.488   4.244   4.510
  134SBC   C09T94480  12.095   4.089   4.705
  134SBC   C09S94481  12.355   4.323   4.759
  134SBC   C09Q94482  12.304   4.572   4.886
  134SBC   C09F94483  12.026   4.598   4.973
  134SBC   C09E94484  12.029   4.259   4.858
  134SBC   C0A094485  11.811   4.523   5.021
  134SBC   C0CU94486  11.623   4.317   5.061
  134SBC   C0CR94487  11.531   4.210   5.095
  134SBC   C0CZ94488  11.557   4.078   5.053
  134SBC   C0DA94489  11.978   4.148   4.782
  134SBC   C0D994490  11.735   3.896   4.683
  134SBC   H00V94491  11.746   3.922   4.578
  134SBC   C0CY94492  11.671   4.060   4.969
  134SBC   C0DF94493  11.638   3.800   4.744
  134SBC   C0DE94494  11.519   3.731   4.708
  134SBC   C0GI94495  11.482   3.674   4.582
  134SBC   H01K94496  11.536   3.680   4.489
  134SBC   C0GJ94497  11.370   3.596   4.583
  134SBC   H01J94498  11.330   3.566   4.487
  134SBC   O00I94499  11.295   3.569   4.695
  134SBC   C0GH94500  11.322   3.637   4.814
  134SBC   C0GG94501  11.215   3.645   4.905
  134SBC   O00G94502  11.122   3.549   4.878
  134SBC   C0G894503  10.991   3.564   4.918
  134SBC   C0G994504  10.913   3.453   4.891
  134SBC   H01G94505  10.965   3.365   4.859
  134SBC   C0GA94506  10.777   3.461   4.919
  134SBC   H01H94507  10.719   3.371   4.905
  134SBC   C0GB94508  10.720   3.579   4.976
  134SBC   C0EP94509  10.808   3.682   5.011
  134SBC   C0E894510  10.748   3.805   5.070
  134SBC   C0CK94511  10.797   3.934   5.114
  134SBC   C0CL94512  10.923   3.950   5.169
  134SBC   C0E994513  11.030   3.865   5.136
  134SBC   C0GE94514  11.058   3.755   5.048
  134SBC   C0E794515  10.614   3.815   5.099
  134SBC   C0CJ94516  10.574   3.934   5.164
  134SBC   C0E694517  10.446   3.945   5.215
  134SBC   H00Y94518  10.403   4.023   5.276
  134SBC   C0EO94519  10.359   3.848   5.159
  134SBC   H01194520  10.258   3.863   5.192
  134SBC   C0G694521  10.394   3.736   5.079
  134SBC   C0G594522  10.312   3.634   5.022
  134SBC   H01F94523  10.205   3.641   5.026
  134SBC   C0GD94524  10.365   3.520   4.959
  134SBC   H01I94525  10.290   3.447   4.932
  134SBC   O00H94526  10.500   3.488   4.956
  134SBC   C0EQ94527  10.532   3.708   5.063
  134SBC   C0GC94528  10.580   3.597   4.995
  134SBC   C0G794529  10.949   3.674   4.995
  134SBC   C0DD94530  11.446   3.711   4.825
  134SBC   C0GF94531  11.201   3.728   5.018
  134SBC   C0CO94532  11.137   3.929   5.201
  134SBC   C0D094533  11.458   3.977   5.086
  134SBC   C0C494534  11.399   4.244   5.141
  134SBC   C0CN94535  11.100   4.047   5.271
  134SBC   C0CP94536  11.091   4.383   5.170
  134SBC   C0CM94537  10.958   4.062   5.248
  134SBC   C0CI94538  10.688   4.024   5.152
  134SBC   C0CD94539  10.391   4.384   5.179
  134SBC   C0BR94540  10.764   4.399   5.214
  134SBC   C0CS94541  10.815   4.634   5.254
  134SBC   C0B694542  10.737   4.909   5.297
  134SBC   C0CG94543  10.451   4.607   5.257
  134SBC   C0CF94544  10.355   4.513   5.226
  134SBC   C0E594545  10.156   4.327   5.143
  134SBC   C0DT94546   9.891   4.388   5.169
  134SBC   C0DL94547  10.043   4.705   5.273
  134SBC   C0DM94548  10.005   4.840   5.297
  134SBC   C0DY94549   9.771   4.780   5.277
  134SBC   C0DU94550   9.760   4.420   5.185
  134SBC   C0F094551   9.536   4.387   5.093
  134SBC   C0F494552   9.300   4.478   4.996
  134SBC   C0FG94553   9.410   4.740   5.221
  134SBC   O00B94554   9.176   4.682   4.944
  134SBC   C0FN94555   9.369   4.866   5.203
  134SBC   C0DZ94556   9.635   4.815   5.269
  134SBC   O00C94557   9.673   5.180   5.258
  134SBC   C0FR94558   9.759   5.281   5.289
  134SBC   O00D94559   9.719   5.400   5.284
  134SBC   C0E094560   9.869   4.873   5.295
  134SBC   C0E394561   9.892   5.238   5.328
  134SBC   C0AW94562   9.982   5.331   5.378
  134SBC   C0AV94563   9.956   5.467   5.414
  134SBC   H00Q94564   9.857   5.506   5.436
  134SBC   C0AU94565  10.060   5.557   5.451
  134SBC   H00R94566  10.044   5.651   5.503
  134SBC   C0AT94567  10.193   5.517   5.429
  134SBC   C0AS94568  10.321   5.579   5.428
  134SBC   C0AR94569  10.332   5.721   5.420
  134SBC   C0BE94570  10.215   5.384   5.398
  134SBC   C0DN94571  10.102   4.935   5.320
  134SBC   C0AX94572  10.114   5.292   5.380
  134SBC   C0BB94573  10.336   5.001   5.332
  134SBC   C0BD94574  10.347   5.359   5.376
  134SBC   C0B294575  10.567   5.074   5.336
  134SBC   C0AH94576  10.757   5.279   5.344
  134SBC   C0BF94577  10.424   5.476   5.392
  134SBC   C0AL94578  10.881   5.515   5.322
  134SBC   C07U94579  10.589   5.728   5.347
  134SBC   C0AQ94580  10.457   5.779   5.385
  134SBC   C0BG94581  10.241   5.826   5.459
  134SBC   C0FY94582  10.251   6.144   5.320
  134SBC   C0BJ94583  10.110   5.855   5.401
  134SBC   H00S94584  10.050   5.792   5.337
  134SBC   C0FZ94585  10.129   6.155   5.250
  134SBC   C07S94586  10.369   6.171   5.244
  134SBC   C0G194587  10.202   6.341   4.947
  134SBC   C07K94588  10.552   6.385   4.827
  134SBC   C07H94589  10.601   6.239   5.073
  134SBC   C06B94590  10.867   6.431   5.094
  134SBC   C06N94591  11.027   6.275   5.154
  134SBC   C06694592  10.722   6.063   5.213
  134SBC   C06294593  10.935   5.838   5.268
  134SBC   C05Y94594  11.210   6.102   5.183
  134SBC   C06194595  11.056   5.788   5.326
  134SBC   C05H94596  11.396   5.822   5.208
  134SBC   C06V94597  11.102   5.656   5.297
  134SBC   C06Y94598  11.222   5.410   5.267
  134SBC   C05C94599  11.538   5.590   5.189
  134SBC   C06Z94600  11.386   5.254   5.205
  134SBC   C07094601  11.643   5.192   5.131
  134SBC   C05B94602  11.668   5.558   5.141
  134SBC   C05794603  11.927   5.492   5.063
  134SBC   C05994604  11.874   5.259   5.076
  135SBC   C05894605   9.615  11.451   7.449
  135SBC   C05A94606   9.636  11.589   7.476
  135SBC   C06Q94607   9.527  11.674   7.500
  135SBC   C06R94608   9.547  11.812   7.527
  135SBC   C06S94609   9.676  11.874   7.523
  135SBC   C06T94610   9.684  12.013   7.540
  135SBC   C06U94611   9.804  12.101   7.529
  135SBC   C06X94612   9.946  12.071   7.534
  135SBC   C06094613  10.026  12.192   7.527
  135SBC   C05Z94614  10.151  12.226   7.598
  135SBC   C06894615  10.128  12.370   7.628
  135SBC   C06794616  10.231  12.473   7.640
  135SBC   C06994617  10.370  12.440   7.631
  135SBC   C06A94618  10.487  12.527   7.616
  135SBC   C07394619  10.501  12.645   7.552
  135SBC   C07P94620  10.613  12.656   7.462
  135SBC   C07O94621  10.703  12.546   7.415
  135SBC   H00D94622  10.684  12.444   7.447
  135SBC   C07N94623  10.815  12.570   7.329
  135SBC   H00E94624  10.874  12.486   7.294
  135SBC   C07M94625  10.846  12.706   7.306
  135SBC   H00F94626  10.931  12.733   7.245
  135SBC   C07L94627  10.757  12.809   7.342
  135SBC   C07Q94628  10.773  12.946   7.292
  135SBC   H00G94629  10.850  12.967   7.219
  135SBC   O00F94630  10.686  13.048   7.318
  135SBC   C07J94631  10.581  13.025   7.403
  135SBC   C07I94632  10.555  12.896   7.454
  135SBC   N00494633  10.441  12.877   7.541
  135SBC   C07R94634  10.365  12.992   7.579
  135SBC   C07T94635  10.388  13.116   7.513
  135SBC   C0FX94636  10.305  13.223   7.528
  135SBC   C0FW94637  10.304  13.336   7.455
  135SBC   C0G094638  10.424  13.351   7.382
  135SBC   C0G294639  10.439  13.476   7.310
  135SBC   H01E94640  10.531  13.489   7.255
  135SBC   C0G394641  10.342  13.579   7.324
  135SBC   H01C94642  10.368  13.674   7.278
  135SBC   C0G494643  10.233  13.561   7.399
  135SBC   H01D94644  10.165  13.645   7.404
  135SBC   O00E94645  10.518  13.254   7.370
  135SBC   C0FV94646  10.204  13.439   7.474
  135SBC   C0FU94647  10.096  13.409   7.561
  135SBC   H01B94648  10.010  13.473   7.573
  135SBC   C0FT94649  10.103  13.300   7.652
  135SBC   C0FS94650  10.015  13.239   7.745
  135SBC   C0BI94651  10.092  13.129   7.804
  135SBC   C0BH94652  10.009  13.030   7.865
  135SBC   C07F94653  10.003  12.894   7.812
  135SBC   C07E94654  10.105  12.812   7.767
  135SBC   C07G94655  10.228  12.845   7.708
  135SBC   C07494656  10.286  12.738   7.649
  135SBC   C06594657  10.082  12.681   7.729
  135SBC   C06494658   9.950  12.630   7.741
  135SBC   C06394659   9.898  12.509   7.697
  135SBC   C07594660   9.748  12.514   7.721
  135SBC   C0AM94661   9.715  12.639   7.783
  135SBC   C0AN94662   9.585  12.685   7.840
  135SBC   C0AO94663   9.459  12.602   7.862
  135SBC   C0B194664   9.355  12.659   7.942
  135SBC   C0B094665   9.355  12.789   7.988
  135SBC   C0AZ94666   9.255  12.856   8.055
  135SBC   C0AY94667   9.263  12.991   8.098
  135SBC   N00794668   9.172  13.043   8.185
  135SBC   C0E294669   9.190  13.175   8.233
  135SBC   C0E194670   9.100  13.225   8.327
  135SBC   C0E494671   9.112  13.359   8.376
  135SBC   C0FF94672   9.031  13.407   8.480
  135SBC   C0FJ94673   9.013  13.537   8.545
  135SBC   C0FK94674   9.024  13.666   8.482
  135SBC   H01694675   9.077  13.693   8.392
  135SBC   C0FL94676   8.941  13.760   8.557
  135SBC   H01794677   8.922  13.865   8.539
  135SBC   C0FM94678   8.889  13.690   8.670
  135SBC   C0FH94679   8.763  13.675   8.740
  135SBC   C0FI94680   8.758  13.537   8.770
  135SBC   C0F394681   8.627  13.481   8.767
  135SBC   C0F294682   8.624  13.351   8.729
  135SBC   C0DW94683   8.726  13.283   8.667
  135SBC   C0FE94684   8.851  13.346   8.644
  135SBC   C0DV94685   8.702  13.164   8.595
  135SBC   C0DX94686   8.798  13.114   8.504
  135SBC   C0DK94687   8.768  13.003   8.433
  135SBC   C0DJ94688   8.635  12.952   8.431
  135SBC   C0DI94689   8.605  12.835   8.371
  135SBC   C0DH94690   8.712  12.769   8.307
  135SBC   C0DG94691   8.833  12.830   8.292
  135SBC   C0BV94692   8.932  12.771   8.211
  135SBC   C0BC94693   9.048  12.839   8.174
  135SBC   C0BA94694   8.906  12.646   8.160
  135SBC   C0B494695   9.012  12.590   8.082
  135SBC   C0B394696   9.130  12.655   8.051
  135SBC   C0B594697   8.983  12.463   8.032
  135SBC   C0BU94698   8.859  12.398   8.044
  135SBC   C0BT94699   8.758  12.459   8.120
  135SBC   C0BS94700   8.636  12.390   8.144
  135SBC   C0CC94701   8.532  12.472   8.191
  135SBC   C0CB94702   8.406  12.417   8.206
  135SBC   C0CH94703   8.300  12.508   8.203
  135SBC   C0DO94704   8.320  12.639   8.267
  135SBC   C0DP94705   8.212  12.709   8.323
  135SBC   C0EA94706   8.075  12.654   8.314
  135SBC   H01294707   8.053  12.568   8.253
  135SBC   O00994708   7.980  12.711   8.396
  135SBC   C0EH94709   8.011  12.817   8.473
  135SBC   C0EG94710   7.909  12.873   8.545
  135SBC   C0EJ94711   7.773  12.834   8.577
  135SBC   H01094712   7.715  12.745   8.554
  135SBC   C0EK94713   7.720  12.941   8.661
  135SBC   H00Z94714   7.623  12.942   8.707
  135SBC   C0EL94715   7.816  13.043   8.665
  135SBC   C0EM94716   7.817  13.171   8.736
  135SBC   C0EW94717   7.723  13.222   8.829
  135SBC   H01394718   7.639  13.156   8.847
  135SBC   C0EX94719   7.737  13.353   8.891
  135SBC   H01494720   7.666  13.400   8.956
  135SBC   C0F194721   7.861  13.427   8.860
  135SBC   C0EU94722   7.953  13.374   8.772
  135SBC   C0ET94723   8.088  13.414   8.749
  135SBC   C0ES94724   8.149  13.315   8.669
  135SBC   C0EE94725   8.052  13.211   8.645
  135SBC   C0ED94726   8.049  13.077   8.600
  135SBC   C0EC94727   8.160  13.004   8.541
  135SBC   C0EB94728   8.298  13.042   8.552
  135SBC   C0EN94729   8.335  13.160   8.626
  135SBC   C0ER94730   8.474  13.186   8.648
  135SBC   C0DS94731   8.400  12.976   8.489
  135SBC   C0DR94732   8.373  12.859   8.425
  135SBC   C0EY94733   8.280  13.276   8.689
  135SBC   C0EZ94734   8.380  13.370   8.734
  135SBC   C0F594735   8.381  13.506   8.781
  135SBC   C0F694736   8.265  13.581   8.819
  135SBC   N00894737   8.293  13.715   8.862
  135SBC   C0F794738   8.426  13.775   8.849
  135SBC   C0FQ94739   8.443  13.908   8.888
  135SBC   H01894740   8.537  13.956   8.865
  135SBC   C0FP94741   8.338  13.988   8.943
  135SBC   H01994742   8.350  14.090   8.975
  135SBC   C0FO94743   8.214  13.923   8.960
  135SBC   H01A94744   8.143  13.978   9.020
  135SBC   C0F894745   8.533  13.694   8.801
  135SBC   C0F994746   8.191  13.787   8.919
  135SBC   C0FA94747   8.060  13.731   8.947
  135SBC   H01594748   7.986  13.784   9.004
  135SBC   C0FB94749   8.036  13.599   8.897
  135SBC   C0FD94750   8.136  13.533   8.823
  135SBC   C0FC94751   7.905  13.545   8.927
  135SBC   O00A94752   7.829  13.601   9.000
  135SBC   C0EV94753   7.933  13.250   8.711
  135SBC   C0EF94754   7.931  12.998   8.600
  135SBC   C0EI94755   8.137  12.882   8.474
  135SBC   C0DQ94756   8.239  12.818   8.403
  135SBC   C0CE94757   8.453  12.672   8.292
  135SBC   H00U94758   8.202  12.466   8.185
  135SBC   C0CA94759   8.397  12.281   8.221
  135SBC   C0C994760   8.503  12.194   8.163
  135SBC   C0C894761   8.498  12.048   8.181
  135SBC   C0C794762   8.551  11.934   8.115
  135SBC   C0C694763   8.515  11.806   8.160
  135SBC   C0C594764   8.500  11.673   8.100
  135SBC   C0CQ94765   8.394  11.591   8.151
  135SBC   C0D194766   8.290  11.650   8.226
  135SBC   C0D894767   8.167  11.606   8.181
  135SBC   C0D794768   8.193  11.487   8.109
  135SBC   C0D694769   8.093  11.407   8.048
  135SBC   C0D594770   8.126  11.287   7.978
  135SBC   C0D494771   8.251  11.237   7.940
  135SBC   C0D394772   8.229  11.155   7.828
  135SBC   C0CX94773   8.353  11.141   7.750
  135SBC   C0CW94774   8.441  11.253   7.796
  135SBC   C0CV94775   8.571  11.307   7.757
  135SBC   C0D294776   8.653  11.250   7.658
  135SBC   C09D94777   8.632  11.126   7.588
  135SBC   C09C94778   8.731  11.064   7.512
  135SBC   C09B94779   8.735  10.929   7.464
  135SBC   C09A94780   8.631  10.848   7.513
  135SBC   C09994781   8.519  10.900   7.562
  135SBC   C09894782   8.442  10.806   7.629
  135SBC   C08Y94783   8.523  10.680   7.644
  135SBC   C08X94784   8.507  10.565   7.731
  135SBC   C08W94785   8.404  10.558   7.828
  135SBC   C08U94786   8.297  10.658   7.850
  135SBC   C08V94787   8.279  10.799   7.813
  135SBC   C0DC94788   8.144  10.835   7.836
  135SBC   H00W94789   8.101  10.925   7.795
  135SBC   C0DB94790   8.080  10.725   7.900
  135SBC   H00X94791   7.978  10.716   7.934
  135SBC   C08T94792   8.177  10.621   7.916
  135SBC   C08S94793   8.170  10.502   7.976
  135SBC   H00N94794   8.082  10.477   8.035
  135SBC   C08R94795   8.268  10.404   7.969
  135SBC   C08Q94796   8.252  10.275   8.024
  135SBC   H00O94797   8.154  10.267   8.068
  135SBC   C08P94798   8.348  10.175   8.023
  135SBC   C08O94799   8.338  10.045   8.083
  135SBC   H00P94800   8.246  10.018   8.132
  135SBC   C08N94801   8.447   9.946   8.076
  135SBC   C08M94802   8.432   9.811   8.126
  135SBC   O00894803   8.333   9.770   8.184
  135SBC   O00794804   8.540   9.720   8.106
  135SBC   C08H94805   8.656   9.759   8.054
  135SBC   C08G94806   8.761   9.669   8.030
  135SBC   C03V94807   8.769   9.538   8.081
  135SBC   H00994808   8.679   9.505   8.132
  135SBC   C03U94809   8.876   9.457   8.055
  135SBC   C03W94810   8.886   9.314   8.093
  135SBC   H00A94811   8.798   9.277   8.143
  135SBC   C03X94812   8.999   9.246   8.071
  135SBC   H00B94813   9.008   9.143   8.103
  135SBC   O00594814   9.106   9.301   8.010
  135SBC   C03O94815   9.100   9.432   7.961
  135SBC   C03N94816   9.205   9.488   7.895
  135SBC   O00094817   9.309   9.401   7.876
  135SBC   C01994818   9.422   9.458   7.827
  135SBC   C01894819   9.429   9.585   7.767
  135SBC   C01794820   9.313   9.665   7.773
  135SBC   C01694821   9.317   9.791   7.717
  135SBC   C01594822   9.437   9.827   7.659
  135SBC   C01494823   9.438   9.952   7.595
  135SBC   C01394824   9.332  10.042   7.587
  135SBC   C01294825   9.386  10.152   7.509
  135SBC   C01194826   9.516  10.118   7.469
  135SBC   C01094827   9.587  10.199   7.392
  135SBC   C00Z94828   9.724  10.195   7.370
  135SBC   C00Y94829   9.759  10.324   7.323
  135SBC   C01O94830   9.646  10.406   7.317
  135SBC   C01P94831   9.655  10.546   7.338
  135SBC   C02L94832   9.536  10.606   7.366
  135SBC   C02K94833   9.426  10.523   7.396
  135SBC   C01M94834   9.425  10.376   7.415
  135SBC   C02J94835   9.310  10.601   7.400
  135SBC   C02I94836   9.184  10.556   7.423
  135SBC   C02H94837   9.136  10.431   7.476
  135SBC   C01Q94838   9.205  10.317   7.510
  135SBC   C02G94839   9.113  10.227   7.576
  135SBC   C08994840   8.996  10.292   7.584
  135SBC   C08894841   8.895  10.236   7.662
  135SBC   C08794842   8.978  10.123   7.714
  135SBC   C08694843   8.926  10.022   7.799
  135SBC   C03S94844   8.981   9.895   7.835
  135SBC   N00694845   8.879   9.836   7.911
  135SBC   C08F94846   8.778   9.919   7.941
  135SBC   C01J94847   9.098   9.826   7.803
  135SBC   C03R94848   9.099   9.699   7.860
  135SBC   C03Q94849   8.990   9.644   7.936
  135SBC   C08E94850   8.797  10.036   7.872
  135SBC   C08D94851   8.698  10.131   7.874
  135SBC   C08K94852   8.577  10.107   7.948
  135SBC   C08C94853   8.693  10.252   7.794
  135SBC   C09194854   8.588  10.346   7.808
  135SBC   C09294855   8.481  10.329   7.892
  135SBC   C08B94856   8.782  10.309   7.707
  135SBC   C09094857   8.730  10.437   7.659
  135SBC   C09494858   8.786  10.519   7.548
  135SBC   C09594859   8.748  10.649   7.520
  135SBC   C09R94860   8.852  10.722   7.459
  135SBC   C09794861   8.960  10.640   7.449
  135SBC   C09694862   8.917  10.518   7.507
  135SBC   C01I94863   9.109  10.104   7.656
  135SBC   C08A94864   9.009  10.417   7.526
  135SBC   C09L94865   9.096  10.661   7.407
  135SBC   C09K94866   9.164  10.775   7.367
  135SBC   C09J94867   9.107  10.905   7.360
  135SBC   C09I94868   9.182  11.026   7.384
  135SBC   C09O94869   9.319  11.069   7.387
  135SBC   C09N94870   9.429  10.975   7.389
  135SBC   C09M94871   9.423  10.825   7.375
  135SBC   C06O94872   9.557  11.027   7.404
  135SBC   C05M94873   9.579  11.170   7.412
  135SBC   C06P94874   9.468  11.255   7.423
  135SBC   C04294875   9.704  11.228   7.426
  135SBC   C04194876   9.813  11.144   7.431
  135SBC   C04094877   9.939  11.192   7.460
  135SBC   C03Z94878  10.053  11.109   7.481
  135SBC   C03Y94879  10.039  10.973   7.466
  135SBC   C02794880  10.150  10.894   7.481
  135SBC   C02694881  10.141  10.760   7.453
  135SBC   C02894882  10.252  10.678   7.485
  135SBC   C02994883  10.370  10.724   7.535
  135SBC   C02B94884  10.469  10.640   7.569
  135SBC   C02C94885  10.581  10.691   7.638
  135SBC   C02X94886  10.675  10.606   7.680
  135SBC   C03E94887  10.781  10.658   7.758
  135SBC   C03G94888  10.790  10.788   7.796
  135SBC   C04Q94889  10.694  10.874   7.750
  135SBC   C04R94890  10.699  11.008   7.779
  135SBC   C04S94891  10.606  11.092   7.731
  135SBC   C04L94892  10.500  11.041   7.655
  135SBC   C04M94893  10.493  10.906   7.622
  135SBC   C04K94894  10.400  11.126   7.611
  135SBC   C04F94895  10.411  11.262   7.639
  135SBC   C04E94896  10.514  11.313   7.712
  135SBC   C04D94897  10.529  11.451   7.727
  135SBC   C05094898  10.636  11.497   7.801
  135SBC   C05194899  10.647  11.635   7.819
  135SBC   C05Q94900  10.753  11.683   7.896
  135SBC   C05V94901  10.762  11.820   7.912
  135SBC   N00594902  10.868  11.871   7.987
  135SBC   C07V94903  10.956  11.780   8.055
  135SBC   C08294904  11.063  11.830   8.137
  135SBC   C08194905  11.084  11.966   8.147
  135SBC   C07C94906  10.996  12.053   8.072
  135SBC   C07B94907  11.025  12.196   8.069
  135SBC   C08094908  11.134  12.244   8.142
  135SBC   C07Z94909  11.166  12.381   8.126
  135SBC   H00L94910  11.250  12.423   8.179
  135SBC   C07994911  11.095  12.471   8.045
  135SBC   C07894912  10.988  12.417   7.972
  135SBC   C07794913  10.914  12.501   7.882
  135SBC   C07X94914  10.954  12.633   7.862
  135SBC   H00I94915  10.906  12.693   7.787
  135SBC   C07Y94916  11.055  12.693   7.943
  135SBC   H00H94917  11.072  12.800   7.938
  135SBC   C07694918  10.797  12.446   7.820
  135SBC   C06C94919  10.716  12.532   7.741
  135SBC   H00C94920  10.734  12.638   7.731
  135SBC   C06F94921  10.762  12.316   7.842
  135SBC   C06E94922  10.644  12.264   7.793
  135SBC   C06G94923  10.605  12.134   7.799
  135SBC   C06H94924  10.692  12.047   7.862
  135SBC   C06I94925  10.806  12.097   7.928
  135SBC   C06L94926  10.485  12.090   7.737
  135SBC   C06M94927  10.380  12.177   7.688
  135SBC   C06K94928  10.463  11.954   7.731
  135SBC   C05S94929  10.561  11.865   7.784
  135SBC   C05U94930  10.350  11.903   7.668
  135SBC   C05X94931  10.244  11.992   7.624
  135SBC   C05G94932  10.134  11.913   7.577
  135SBC   C05F94933  10.144  11.780   7.546
  135SBC   C05E94934  10.015  11.731   7.509
  135SBC   C04894935   9.994  11.591   7.506
  135SBC   C05694936   9.865  11.548   7.477
  135SBC   C04594937   9.845  11.414   7.457
  135SBC   C04794938  10.098  11.509   7.532
  135SBC   C04994939  10.224  11.561   7.571
  135SBC   C04B94940  10.324  11.480   7.606
  135SBC   C04694941  10.082  11.375   7.516
  135SBC   C04H94942  10.188  11.293   7.548
  135SBC   C05D94943   9.918  11.826   7.514
  135SBC   C04A94944  10.250  11.699   7.582
  135SBC   C05T94945  10.352  11.762   7.643
  135SBC   C05594946  10.447  11.673   7.694
  135SBC   C06D94947  10.559  12.349   7.721
  135SBC   C07W94948  10.842  12.231   7.920
  135SBC   C08594949  11.128  12.610   8.032
  135SBC   H00M94950  11.193  12.652   8.107
  135SBC   C08494951  11.211  12.159   8.227
  135SBC   H00J94952  11.298  12.195   8.280
  135SBC   C07A94953  10.951  12.284   7.993
  135SBC   C08394954  11.184  12.023   8.224
  135SBC   H00K94955  11.252  11.955   8.273
  135SBC   O00K94956  11.157  11.747   8.196
  135SBC   C0GO94957  11.138  11.612   8.184
  135SBC   C0GN94958  11.223  11.527   8.241
  135SBC   H01L94959  11.303  11.561   8.305
  135SBC   C0GM94960  11.203  11.386   8.236
  135SBC   C0GL94961  11.279  11.311   8.314
  135SBC   H01M94962  11.356  11.359   8.374
  135SBC   O00J94963  11.257  11.172   8.316
  135SBC   C0GK94964  11.167  11.124   8.224
  135SBC   H01N94965  11.131  11.025   8.248
  135SBC   C05K94966  11.095  11.202   8.138
  135SBC   C05J94967  10.995  11.150   8.053
  135SBC   C04Y94968  10.981  11.009   8.019
  135SBC   C04X94969  10.886  10.959   7.928
  135SBC   O00694970  11.069  10.914   8.066
  135SBC   C05394971  11.063  10.775   8.050
  135SBC   C04O94972  10.977  10.729   7.948
  135SBC   C03C94973  10.966  10.591   7.901
  135SBC   C03B94974  11.017  10.461   7.945
  135SBC   C05494975  11.095  10.441   8.055
  135SBC   C0GR94976  11.134  10.314   8.103
  135SBC   C03M94977  11.098  10.175   8.070
  135SBC   C03I94978  10.999  10.133   7.972
  135SBC   C03J94979  10.986   9.992   7.953
  135SBC   N00294980  10.883   9.937   7.874
  135SBC   C02U94981  10.853   9.798   7.862
  135SBC   C02T94982  10.740   9.753   7.799
  135SBC   C02Z94983  10.713   9.614   7.797
  135SBC   N00194984  10.603   9.567   7.728
  135SBC   C02R94985  10.584   9.425   7.716
  135SBC   C03294986  10.675   9.339   7.771
  135SBC   C03194987  10.791   9.390   7.833
  135SBC   H00794988  10.866   9.328   7.879
  135SBC   C03394989  10.643   9.195   7.760
  135SBC   H00394990  10.706   9.114   7.795
  135SBC   O00494991  10.534   9.149   7.691
  135SBC   C03494992  10.451   9.240   7.631
  135SBC   C03594993  10.337   9.188   7.555
  135SBC   C03694994  10.253   9.278   7.495
  135SBC   H00594995  10.178   9.246   7.424
  135SBC   C03794996  10.270   9.421   7.516
  135SBC   H00694997  10.196   9.487   7.472
  135SBC   C00D94998  10.378   9.469   7.598
  135SBC   C00C94999  10.399   9.605   7.604
  135SBC   C00B95000  10.295   9.711   7.571
  135SBC   C00A95001  10.156   9.723   7.518
  135SBC   C00995002  10.150   9.855   7.455
  135SBC   C00895003  10.037   9.940   7.447
  135SBC   C00795004   9.913   9.891   7.487
  135SBC   C00695005   9.804   9.973   7.470
  135SBC   C00595006   9.680   9.925   7.530
  135SBC   C00495007   9.676   9.804   7.600
  135SBC   C00395008   9.792   9.728   7.620
  135SBC   C00295009   9.787   9.610   7.691
  135SBC   C01C95010   9.662   9.553   7.730
  135SBC   C01B95011   9.654   9.419   7.778
  135SBC   H00095012   9.738   9.352   7.782
  135SBC   C00195013   9.902   9.543   7.728
  135SBC   C00095014  10.024   9.602   7.687
  135SBC   C01U95015  10.124   9.556   7.778
  135SBC   H00295016  10.231   9.570   7.781
  135SBC   C01T95017  10.051   9.457   7.870
  135SBC   O00295018  10.094   9.381   7.957
  135SBC   O00195019   9.918   9.476   7.847
  135SBC   C01S95020   9.910   9.770   7.561
  135SBC   C00N95021  10.063  10.071   7.416
  135SBC   C00M95022  10.190  10.126   7.436
  135SBC   C00J95023  10.301  10.052   7.462
  135SBC   C00I95024  10.418  10.099   7.516
  135SBC   C00H95025  10.505  10.012   7.581
  135SBC   C00G95026  10.477   9.877   7.594
  135SBC   C00F95027  10.551   9.785   7.663
  135SBC   C01X95028  10.619  10.059   7.644
  135SBC   C01W95029  10.638  10.196   7.643
  135SBC   C01V95030  10.547  10.280   7.585
  135SBC   C02095031  10.559  10.417   7.597
  135SBC   C01Z95032  10.742  10.243   7.724
  135SBC   C02Y95033  10.756  10.379   7.720
  135SBC   C03995034  10.854  10.429   7.799
  135SBC   C02W95035  10.824  10.163   7.807
  135SBC   C01Y95036  10.693   9.975   7.724
  135SBC   C00U95037  10.431  10.233   7.530
  135SBC   C00S95038  10.329  10.319   7.487
  135SBC   C00T95039  10.345  10.454   7.503
  135SBC   C00R95040  10.210  10.262   7.443
  135SBC   C00Q95041  10.107  10.346   7.406
  135SBC   C00V95042  10.125  10.484   7.413
  135SBC   C02495043  10.019  10.573   7.389
  135SBC   C00X95044   9.895  10.522   7.352
  135SBC   C00P95045   9.985  10.290   7.375
  135SBC   C00O95046   9.953  10.152   7.391
  135SBC   C00K95047  10.277   9.912   7.462
  135SBC   N00095048  10.036   9.701   7.591
  135SBC   C00L95049  10.360   9.824   7.529
  135SBC   H00495050  10.319   9.082   7.545
  135SBC   C02Q95051  10.470   9.379   7.645
  135SBC   C00E95052  10.515   9.653   7.666
  135SBC   C03095053  10.809   9.528   7.847
  135SBC   O00395054  10.925   9.577   7.905
  135SBC   C02S95055  10.660   9.837   7.728
  135SBC   C03895056  10.948   9.711   7.911
  135SBC   C03L95057  11.054   9.763   7.984
  135SBC   H00895058  11.118   9.690   8.033
  135SBC   C02V95059  10.800  10.027   7.804
  135SBC   C03K95060  11.070   9.895   8.008
  135SBC   C0BK95061  11.158   9.946   8.103
  135SBC   H00T95062  11.213   9.870   8.157
  135SBC   C03H95063  10.920  10.213   7.892
  135SBC   C0BL95064  11.176  10.082   8.139
  135SBC   C0GU95065  11.251  10.119   8.250
  135SBC   H01O95066  11.298  10.046   8.314
  135SBC   C0GT95067  11.272  10.247   8.297
  135SBC   H01P95068  11.327  10.272   8.387
  135SBC   C0GS95069  11.220  10.343   8.212
  135SBC   C0GV95070  11.232  10.484   8.235
  135SBC   C0GW95071  11.298  10.561   8.336
  135SBC   H01Q95072  11.363  10.527   8.415
  135SBC   C0GX95073  11.291  10.694   8.319
  135SBC   H01R95074  11.357  10.751   8.383
  135SBC   O00L95075  11.214  10.759   8.228
  135SBC   C0GQ95076  11.149  10.547   8.135
  135SBC   C03A95077  10.940  10.354   7.883
  135SBC   C05L95078  11.144  10.691   8.130
  135SBC   C04W95079  10.909  11.233   7.989
  135SBC   C05I95080  10.918  11.370   8.003
  135SBC   C05O95081  11.022  11.423   8.080
  135SBC   C05295082  10.831  11.457   7.941
  135SBC   C04V95083  10.810  11.184   7.904
  135SBC   C04U95084  10.717  11.271   7.843
  135SBC   N00995085  11.106  11.338   8.144
  135SBC   C0GP95086  11.033  11.563   8.106
  135SBC   C05W95087  10.945  11.644   8.031
  135SBC   C07D95088  10.889  12.009   7.995
  135SBC   C06J95089  10.672  11.911   7.855
  135SBC   C05P95090  10.844  11.594   7.953
  135SBC   C05R95091  10.554  11.725   7.765
  135SBC   C04Z95092  10.726  11.407   7.860
  135SBC   C04C95093  10.438  11.538   7.669
  135SBC   C04G95094  10.306  11.344   7.592
  135SBC   C04J95095  10.285  11.076   7.547
  135SBC   C04T95096  10.609  11.225   7.767
  135SBC   N00395097  10.797  11.051   7.872
  135SBC   C04P95098  10.886  10.827   7.891
  135SBC   C03D95099  10.872  10.564   7.808
  135SBC   C02195100  10.669  10.470   7.660
  135SBC   C03F95101  10.598  10.823   7.673
  135SBC   C02295102  10.459  10.505   7.556
  135SBC   C02A95103  10.377  10.861   7.555
  135SBC   C02395104  10.243  10.541   7.462
  135SBC   C02595105  10.022  10.712   7.406
  135SBC   C02D95106   9.907  10.791   7.403
  135SBC   C02E95107   9.782  10.732   7.373
  135SBC   C02N95108   9.664  10.811   7.384
  135SBC   C04N95109  10.272  10.946   7.526
  135SBC   C02P95110   9.911  10.925   7.428
  135SBC   C04I95111  10.176  11.158   7.526
  135SBC   C04495112   9.958  11.327   7.476
  135SBC   C04395113   9.796  11.006   7.423
  135SBC   C05N95114   9.672  10.950   7.404
  135SBC   C09U95115   9.338  11.203   7.416
  135SBC   C09V95116   9.233  11.292   7.448
  135SBC   C09X95117   9.102  11.256   7.455
  135SBC   C09Y95118   8.998  11.317   7.521
  135SBC   C0A195119   9.025  11.442   7.571
  135SBC   C0A295120   9.154  11.500   7.548
  135SBC   C0A495121   9.175  11.625   7.585
  135SBC   C07195122   9.296  11.684   7.559
  135SBC   C0A595123   9.316  11.815   7.598
  135SBC   C0A995124   9.215  11.888   7.662
  135SBC   C0A895125   9.095  11.829   7.687
  135SBC   C0AP95126   9.001  11.899   7.761
  135SBC   C0BY95127   8.889  11.824   7.795
  135SBC   C0BX95128   8.862  11.695   7.771
  135SBC   C0C295129   8.749  11.628   7.817
  135SBC   C0C395130   8.722  11.499   7.776
  135SBC   C0CT95131   8.805  11.442   7.679
  135SBC   C0C195132   8.667  11.687   7.915
  135SBC   C0C095133   8.680  11.835   7.923
  135SBC   C0A795134   8.957  11.632   7.693
  135SBC   C0BZ95135   8.793  11.890   7.862
  135SBC   C0BO95136   8.802  12.025   7.891
  135SBC   C0BN95137   8.917  12.098   7.855
  135SBC   C0BM95138   8.934  12.217   7.918
  135SBC   C0B995139   9.060  12.274   7.910
  135SBC   C0B895140   9.156  12.216   7.830
  135SBC   C0AD95141   9.137  12.089   7.778
  135SBC   C0AF95142   9.279  12.278   7.798
  135SBC   C0AG95143   9.305  12.406   7.846
  135SBC   C0B795144   9.210  12.467   7.928
  135SBC   C0AE95145   9.363  12.216   7.710
  135SBC   C0AB95146   9.351  12.081   7.670
  135SBC   C0AA95147   9.448  12.015   7.600
  135SBC   C0AJ95148   9.474  12.288   7.666
  135SBC   C0AK95149   9.573  12.221   7.596
  135SBC   C06W95150   9.678  12.302   7.598
  135SBC   C0AI95151   9.518  12.408   7.714
  135SBC   C0BP95152   8.700  12.065   7.976
  135SBC   C0BQ95153   8.718  12.196   8.033
  135SBC   C0BW95154   9.018  12.026   7.802
  135SBC   C0AC95155   9.233  12.022   7.701
  135SBC   C0A695156   9.072  11.696   7.650
  135SBC   C0A395157   8.926  11.506   7.644
  135SBC   C09Z95158   8.873  11.255   7.548
  135SBC   C09W95159   9.255  11.421   7.483
  135SBC   C07295160   9.385  11.476   7.479
  135SBC   C09H95161   9.078  11.123   7.415
  135SBC   C09G95162   8.952  11.071   7.415
  135SBC   C09P95163   8.965  10.941   7.389
  135SBC   C02O95164   9.305  10.746   7.377
  135SBC   C02M95165   9.538  10.748   7.374
  135SBC   C02F95166   9.782  10.599   7.343
  135SBC   C00W95167   9.886  10.380   7.344
  135SBC   C01R95168   9.823  10.101   7.409
  135SBC   C01N95169   9.547  10.327   7.365
  135SBC   C01L95170   9.334  10.285   7.479
  135SBC   C01H95171   9.215  10.004   7.664
  135SBC   C01K95172   9.551   9.998   7.525
  135SBC   C01E95173   9.556   9.759   7.652
  135SBC   C01G95174   9.213   9.879   7.735
  135SBC   C01D95175   9.551   9.631   7.712
  135SBC   C01A95176   9.532   9.376   7.832
  135SBC   H00195177   9.527   9.276   7.872
  135SBC   C01F95178   9.208   9.617   7.847
  135SBC   C03P95179   8.989   9.513   7.988
  135SBC   C03T95180   8.877   9.713   7.965
  135SBC   C08I95181   8.665   9.885   8.003
  135SBC   C08J95182   8.561   9.982   8.007
  135SBC   C08L95183   8.470  10.204   7.955
  135SBC   C09395184   8.386  10.432   7.897
  135SBC   C08Z95185   8.605  10.457   7.724
  135SBC   C09T95186   8.363  10.871   7.719
  135SBC   C09S95187   8.630  10.711   7.552
  135SBC   C09Q95188   8.854  10.861   7.429
  135SBC   C09F95189   8.847  11.135   7.492
  135SBC   C09E95190   8.527  11.028   7.625
  135SBC   C0A095191   8.774  11.316   7.625
  135SBC   C0CU95192   8.607  11.435   7.821
  135SBC   C0CR95193   8.526  11.497   7.926
  135SBC   C0CZ95194   8.413  11.429   7.975
  135SBC   C0DA95195   8.403  11.019   7.699
  135SBC   C0D995196   8.098  11.185   7.773
  135SBC   H00V95197   8.066  11.162   7.672
  135SBC   C0CY95198   8.374  11.311   7.912
  135SBC   C0DF95199   8.033  11.269   7.871
  135SBC   C0DE95200   7.934  11.367   7.890
  135SBC   C0GI95201   7.803  11.378   7.829
  135SBC   H01K95202   7.765  11.308   7.756
  135SBC   C0GJ95203   7.720  11.476   7.879
  135SBC   H01J95204   7.620  11.485   7.839
  135SBC   O00I95205   7.759  11.559   7.982
  135SBC   C0GH95206   7.882  11.551   8.042
  135SBC   C0GG95207   7.916  11.659   8.128
  135SBC   O00G95208   7.809  11.747   8.147
  135SBC   C0G895209   7.826  11.857   8.222
  135SBC   C0G995210   7.712  11.906   8.280
  135SBC   H01G95211   7.619  11.853   8.260
  135SBC   C0GA95212   7.725  12.026   8.354
  135SBC   H01H95213   7.639  12.070   8.402
  135SBC   C0GB95214   7.842  12.100   8.374
  135SBC   C0EP95215   7.955  12.041   8.314
  135SBC   C0E895216   8.073  12.130   8.307
  135SBC   C0CK95217   8.200  12.118   8.247
  135SBC   C0CL95218   8.266  11.997   8.265
  135SBC   C0E995219   8.208  11.870   8.258
  135SBC   C0GE95220   8.069  11.827   8.226
  135SBC   C0E795221   8.088  12.241   8.396
  135SBC   C0CJ95222   8.215  12.302   8.397
  135SBC   C0E695223   8.245  12.401   8.491
  135SBC   H00Y95224   8.341  12.448   8.505
  135SBC   C0EO95225   8.132  12.440   8.567
  135SBC   H01195226   8.145  12.515   8.645
  135SBC   C0G695227   8.000  12.386   8.557
  135SBC   C0G595228   7.887  12.436   8.623
  135SBC   H01F95229   7.889  12.525   8.684
  135SBC   C0GD95230   7.767  12.382   8.600
  135SBC   H01I95231   7.680  12.433   8.641
  135SBC   O00H95232   7.734  12.272   8.512
  135SBC   C0EQ95233   7.976  12.279   8.466
  135SBC   C0GC95234   7.846  12.222   8.451
  135SBC   C0G795235   7.957  11.913   8.254
  135SBC   C0DD95236   7.966  11.447   8.002
  135SBC   C0GF95237   8.047  11.689   8.182
  135SBC   C0CO95238   8.311  11.782   8.266
  135SBC   C0D095239   8.333  11.492   8.075
  135SBC   C0C495240   8.563  11.623   7.981
  135SBC   C0CN95241   8.436  11.844   8.270
  135SBC   C0CP95242   8.621  11.946   7.994
  135SBC   C0CM95243   8.416  11.980   8.274
  135SBC   C0CI95244   8.280  12.235   8.285
  135SBC   C0CD95245   8.555  12.597   8.239
  135SBC   C0BR95246   8.620  12.259   8.111
  135SBC   C0CS95247   8.837  12.271   7.998
  135SBC   C0B695248   9.084  12.400   7.960
  135SBC   C0CG95249   8.782  12.587   8.172
  135SBC   C0CF95250   8.680  12.651   8.238
  135SBC   C0E595251   8.475  12.792   8.360
  135SBC   C0DT95252   8.534  13.017   8.495
  135SBC   C0DL95253   8.861  12.951   8.347
  135SBC   C0DM95254   8.978  13.023   8.319
  135SBC   C0DY95255   8.906  13.191   8.470
  135SBC   C0DU95256   8.574  13.119   8.573
  135SBC   C0F095257   8.496  13.301   8.716
  135SBC   C0F495258   8.512  13.558   8.782
  135SBC   C0FG95259   8.868  13.466   8.709
  135SBC   O00B95260   8.657  13.758   8.773
  135SBC   C0FN95261   8.950  13.560   8.666
  135SBC   C0DZ95262   8.935  13.313   8.532
  135SBC   O00C95263   9.205  13.438   8.316
  135SBC   C0FR95264   9.307  13.394   8.239
  135SBC   O00D95265   9.399  13.474   8.221
  135SBC   C0E095266   8.992  13.148   8.370
  135SBC   C0E395267   9.292  13.255   8.188
  135SBC   C0AW95268   9.390  13.200   8.105
  135SBC   C0AV95269   9.509  13.262   8.059
  135SBC   H00Q95270   9.538  13.363   8.085
  135SBC   C0AU95271   9.609  13.193   7.986
  135SBC   H00R95272   9.699  13.243   7.953
  135SBC   C0AT95273   9.580  13.065   7.944
  135SBC   C0AS95274   9.647  12.947   7.881
  135SBC   C0AR95275   9.784  12.962   7.835
  135SBC   C0BE95276   9.467  13.002   7.988
  135SBC   C0DN95277   9.059  12.971   8.222
  135SBC   C0AX95278   9.368  13.071   8.062
  135SBC   C0BB95279   9.143  12.784   8.095
  135SBC   C0BD95280   9.462  12.866   7.951
  135SBC   C0B295281   9.233  12.597   7.975
  135SBC   C0AH95282   9.430  12.474   7.816
  135SBC   C0BF95283   9.572  12.821   7.883
  135SBC   C0AL95284   9.647  12.433   7.657
  135SBC   C07U95285   9.842  12.709   7.790
  135SBC   C0AQ95286   9.871  12.844   7.817
  135SBC   C0BG95287   9.874  13.079   7.853
  135SBC   C0FY95288  10.196  13.102   7.712
  135SBC   C0BJ95289   9.875  13.202   7.768
  135SBC   H00S95290   9.794  13.261   7.727
  135SBC   C0FZ95291  10.204  13.209   7.626
  135SBC   C07S95292  10.265  12.979   7.676
  135SBC   C0G195293  10.499  13.134   7.431
  135SBC   C07K95294  10.643  12.785   7.416
  135SBC   C07H95295  10.414  12.747   7.588
  135SBC   C06B95296  10.596  12.478   7.690
  135SBC   C06N95297  10.433  12.318   7.680
  135SBC   C06695298  10.203  12.619   7.672
  135SBC   C06295299   9.984  12.404   7.622
  135SBC   C05Y95300  10.254  12.133   7.642
  135SBC   C06195301   9.933  12.299   7.544
  135SBC   C05H95302   9.996  11.947   7.544
  135SBC   C06V95303   9.800  12.243   7.556
  135SBC   C06Y95304   9.568  12.080   7.573
  135SBC   C05C95305   9.780  11.782   7.498
  135SBC   C06Z95306   9.437  11.881   7.573
  135SBC   C07095307   9.401  11.614   7.508
  135SBC   C05B95308   9.762  11.642   7.482
  135SBC   C05795309   9.721  11.365   7.437
  135SBC   C05995310   9.491  11.396   7.452
  136SBC   C05895311   7.038   8.293  10.133
  136SBC   C05A95312   6.974   8.262  10.011
  136SBC   C06Q95313   6.844   8.306   9.993
  136SBC   C06R95314   6.769   8.261   9.877
  136SBC   C06S95315   6.837   8.187   9.769
  136SBC   C06T95316   6.757   8.140   9.662
  136SBC   C06U95317   6.793   8.062   9.546
  136SBC   C06X95318   6.919   8.023   9.480
  136SBC   C06095319   6.891   7.962   9.352
  136SBC   C05Z95320   6.958   7.854   9.275
  136SBC   C06895321   6.845   7.805   9.197
  136SBC   C06795322   6.849   7.708   9.080
  136SBC   C06995323   6.980   7.661   9.028
  136SBC   C06A95324   7.004   7.571   8.917
  136SBC   C07395325   6.930   7.458   8.860
  136SBC   C07P95326   7.000   7.335   8.842
  136SBC   C07O95327   7.128   7.305   8.904
  136SBC   H00D95328   7.186   7.370   8.966
  136SBC   C07N95329   7.190   7.180   8.896
  136SBC   H00E95330   7.286   7.154   8.939
  136SBC   C07M95331   7.128   7.081   8.819
  136SBC   H00F95332   7.172   6.982   8.819
  136SBC   C07L95333   7.000   7.107   8.758
  136SBC   C07Q95334   6.938   7.010   8.673
  136SBC   H00G95335   6.980   6.910   8.673
  136SBC   O00F95336   6.816   7.027   8.612
  136SBC   C07J95337   6.757   7.154   8.639
  136SBC   C07I95338   6.815   7.253   8.713
  136SBC   N00495339   6.740   7.374   8.743
  136SBC   C07R95340   6.613   7.392   8.686
  136SBC   C07T95341   6.565   7.283   8.609
  136SBC   C0FX95342   6.434   7.286   8.573
  136SBC   C0FW95343   6.366   7.182   8.511
  136SBC   C0G095344   6.445   7.068   8.479
  136SBC   C0G295345   6.383   6.956   8.418
  136SBC   H01E95346   6.446   6.874   8.386
  136SBC   C0G395347   6.247   6.959   8.387
  136SBC   H01C95348   6.212   6.874   8.329
  136SBC   C0G495349   6.170   7.075   8.416
  136SBC   H01D95350   6.068   7.080   8.380
  136SBC   O00E95351   6.576   7.064   8.513
  136SBC   C0FV95352   6.224   7.188   8.487
  136SBC   C0FU95353   6.150   7.298   8.538
  136SBC   H01B95354   6.043   7.300   8.528
  136SBC   C0FT95355   6.220   7.405   8.587
  136SBC   C0FS95356   6.191   7.529   8.654
  136SBC   C0BI95357   6.311   7.608   8.659
  136SBC   C0BH95358   6.288   7.705   8.764
  136SBC   C07F95359   6.374   7.711   8.877
  136SBC   C07E95360   6.508   7.680   8.898
  136SBC   C07G95361   6.588   7.593   8.816
  136SBC   C07495362   6.711   7.582   8.878
  136SBC   C06595363   6.585   7.712   9.014
  136SBC   C06495364   6.514   7.782   9.110
  136SBC   C06395365   6.564   7.851   9.218
  136SBC   C07595366   6.446   7.906   9.288
  136SBC   C0AM95367   6.324   7.863   9.223
  136SBC   C0AN95368   6.187   7.895   9.266
  136SBC   C0AO95369   6.127   7.962   9.390
  136SBC   C0B195370   5.986   7.957   9.421
  136SBC   C0B095371   5.895   7.879   9.352
  136SBC   C0AZ95372   5.759   7.873   9.373
  136SBC   C0AY95373   5.675   7.806   9.281
  136SBC   N00795374   5.542   7.794   9.314
  136SBC   C0E295375   5.456   7.748   9.210
  136SBC   C0E195376   5.322   7.744   9.238
  136SBC   C0E495377   5.234   7.701   9.134
  136SBC   C0FF95378   5.099   7.689   9.157
  136SBC   C0FJ95379   4.980   7.681   9.066
  136SBC   C0FK95380   4.968   7.751   8.943
  136SBC   H01695381   5.043   7.794   8.879
  136SBC   C0FL95382   4.819   7.765   8.926
  136SBC   H01795383   4.768   7.817   8.846
  136SBC   C0FM95384   4.748   7.702   9.041
  136SBC   C0FH95385   4.638   7.712   9.136
  136SBC   C0FI95386   4.703   7.675   9.255
  136SBC   C0F395387   4.643   7.719   9.380
  136SBC   C0F295388   4.735   7.725   9.479
  136SBC   C0DW95389   4.873   7.717   9.460
  136SBC   C0FE95390   4.925   7.669   9.341
  136SBC   C0DV95391   4.963   7.768   9.550
  136SBC   C0DX95392   5.094   7.782   9.523
  136SBC   C0DK95393   5.173   7.847   9.614
  136SBC   C0DJ95394   5.122   7.893   9.733
  136SBC   C0DI95395   5.201   7.964   9.821
  136SBC   C0DH95396   5.336   7.992   9.787
  136SBC   C0DG95397   5.386   7.945   9.667
  136SBC   C0BV95398   5.517   7.975   9.632
  136SBC   C0BC95399   5.574   7.912   9.519
  136SBC   C0BA95400   5.600   8.061   9.707
  136SBC   C0B495401   5.732   8.081   9.674
  136SBC   C0B395402   5.788   8.009   9.566
  136SBC   C0B595403   5.804   8.166   9.749
  136SBC   C0BU95404   5.745   8.242   9.850
  136SBC   C0BT95405   5.610   8.216   9.887
  136SBC   C0BS95406   5.553   8.284   9.994
  136SBC   C0CC95407   5.424   8.239  10.039
  136SBC   C0CB95408   5.366   8.295  10.151
  136SBC   C0CH95409   5.267   8.219  10.207
  136SBC   C0DO95410   5.189   8.130  10.135
  136SBC   C0DP95411   5.054   8.107  10.169
  136SBC   C0EA95412   4.997   8.150  10.295
  136SBC   H01295413   5.059   8.214  10.356
  136SBC   O00995414   4.869   8.127  10.339
  136SBC   C0EH95415   4.790   8.095  10.234
  136SBC   C0EG95416   4.656   8.133  10.253
  136SBC   C0EJ95417   4.583   8.194  10.363
  136SBC   H01095418   4.610   8.224  10.463
  136SBC   C0EK95419   4.451   8.219  10.314
  136SBC   H00Z95420   4.376   8.274  10.369
  136SBC   C0EL95421   4.443   8.160  10.182
  136SBC   C0EM95422   4.339   8.154  10.081
  136SBC   C0EW95423   4.207   8.200  10.087
  136SBC   H01395424   4.179   8.260  10.173
  136SBC   C0EX95425   4.108   8.175   9.982
  136SBC   H01495426   4.008   8.216   9.993
  136SBC   C0F195427   4.146   8.102   9.859
  136SBC   C0EU95428   4.278   8.053   9.857
  136SBC   C0ET95429   4.341   7.986   9.757
  136SBC   C0ES95430   4.474   7.958   9.806
  136SBC   C0EE95431   4.489   8.011   9.936
  136SBC   C0ED95432   4.595   8.036  10.027
  136SBC   C0EC95433   4.733   8.015  10.005
  136SBC   C0EB95434   4.793   7.947   9.897
  136SBC   C0EN95435   4.709   7.888   9.794
  136SBC   C0ER95436   4.773   7.805   9.697
  136SBC   C0DS95437   4.933   7.931   9.878
  136SBC   C0DR95438   5.018   7.995   9.962
  136SBC   C0EY95439   4.573   7.892   9.744
  136SBC   C0EZ95440   4.556   7.828   9.616
  136SBC   C0F595441   4.469   7.842   9.503
  136SBC   C0F695442   4.338   7.899   9.516
  136SBC   N00895443   4.260   7.891   9.393
  136SBC   C0F795444   4.320   7.850   9.269
  136SBC   C0FQ95445   4.236   7.857   9.153
  136SBC   H01895446   4.285   7.824   9.063
  136SBC   C0FP95447   4.110   7.921   9.149
  136SBC   H01995448   4.055   7.933   9.057
  136SBC   C0FO95449   4.061   7.964   9.271
  136SBC   H01A95450   3.960   7.998   9.255
  136SBC   C0F895451   4.454   7.804   9.266
  136SBC   C0F995452   4.128   7.943   9.398
  136SBC   C0FA95453   4.058   8.000   9.508
  136SBC   H01595454   3.952   8.020   9.505
  136SBC   C0FB95455   4.138   8.012   9.629
  136SBC   C0FD95456   4.277   7.962   9.630
  136SBC   C0FC95457   4.070   8.075   9.744
  136SBC   O00A95458   3.960   8.123   9.743
  136SBC   C0EV95459   4.367   8.068   9.967
  136SBC   C0EF95460   4.567   8.105  10.153
  136SBC   C0EI95461   4.829   8.056  10.103
  136SBC   C0DQ95462   4.964   8.051  10.078
  136SBC   C0CE95463   5.235   8.090  10.015
  136SBC   H00U95464   5.243   8.249  10.308
  136SBC   C0CA95465   5.403   8.429  10.191
  136SBC   C0C995466   5.542   8.468  10.167
  136SBC   C0C895467   5.592   8.594  10.220
  136SBC   C0C795468   5.728   8.635  10.244
  136SBC   C0C695469   5.749   8.761  10.310
  136SBC   C0C595470   5.839   8.825  10.406
  136SBC   C0CQ95471   5.780   8.914  10.497
  136SBC   C0D195472   5.644   8.923  10.510
  136SBC   C0D895473   5.597   8.954  10.633
  136SBC   C0D795474   5.716   8.995  10.701
  136SBC   C0D695475   5.729   9.016  10.842
  136SBC   C0D595476   5.851   9.020  10.915
  136SBC   C0D495477   5.989   9.005  10.887
  136SBC   C0D395478   6.054   8.941  11.003
  136SBC   C0CX95479   6.161   8.859  10.956
  136SBC   C0CW95480   6.157   8.865  10.810
  136SBC   C0CV95481   6.249   8.826  10.696
  136SBC   C0D295482   6.389   8.809  10.709
  136SBC   C09D95483   6.468   8.832  10.826
  136SBC   C09C95484   6.608   8.816  10.821
  136SBC   C09B95485   6.695   8.828  10.929
  136SBC   C09A95486   6.637   8.871  11.056
  136SBC   C09995487   6.504   8.905  11.059
  136SBC   C09895488   6.463   8.878  11.186
  136SBC   C08Y95489   6.564   8.820  11.270
  136SBC   C08X95490   6.550   8.756  11.399
  136SBC   C08W95491   6.430   8.755  11.476
  136SBC   C08U95492   6.299   8.795  11.431
  136SBC   C08V95493   6.247   8.831  11.302
  136SBC   C0DC95494   6.132   8.912  11.336
  136SBC   H00W95495   6.072   8.968  11.265
  136SBC   C0DB95496   6.091   8.898  11.469
  136SBC   H00X95497   6.005   8.939  11.520
  136SBC   C08T95498   6.201   8.824  11.532
  136SBC   C08S95499   6.214   8.793  11.665
  136SBC   H00N95500   6.139   8.815  11.740
  136SBC   C08R95501   6.330   8.730  11.709
  136SBC   C08Q95502   6.351   8.680  11.842
  136SBC   H00O95503   6.274   8.701  11.915
  136SBC   C08P95504   6.456   8.593  11.880
  136SBC   C08O95505   6.464   8.525  12.008
  136SBC   H00P95506   6.376   8.522  12.070
  136SBC   C08N95507   6.573   8.440  12.038
  136SBC   C08M95508   6.577   8.372  12.166
  136SBC   O00895509   6.485   8.389  12.246
  136SBC   O00795510   6.683   8.288  12.186
  136SBC   C08H95511   6.790   8.279  12.104
  136SBC   C08G95512   6.901   8.194  12.128
  136SBC   C03V95513   6.920   8.110  12.240
  136SBC   H00995514   6.841   8.109  12.313
  136SBC   C03U95515   7.035   8.030  12.253
  136SBC   C03W95516   7.060   7.941  12.365
  136SBC   H00A95517   6.986   7.936  12.444
  136SBC   C03X95518   7.176   7.872  12.373
  136SBC   H00B95519   7.185   7.797  12.450
  136SBC   O00595520   7.277   7.881  12.280
  136SBC   C03O95521   7.254   7.960  12.162
  136SBC   C03N95522   7.357   7.970  12.069
  136SBC   O00095523   7.481   7.915  12.099
  136SBC   C01995524   7.563   7.894  11.993
  136SBC   C01895525   7.549   7.960  11.875
  136SBC   C01795526   7.439   8.045  11.855
  136SBC   C01695527   7.419   8.111  11.735
  136SBC   C01595528   7.517   8.092  11.637
  136SBC   C01495529   7.494   8.133  11.508
  136SBC   C01395530   7.385   8.220  11.476
  136SBC   C01295531   7.412   8.263  11.340
  136SBC   C01195532   7.541   8.223  11.312
  136SBC   C01095533   7.608   8.271  11.206
  136SBC   C00Z95534   7.730   8.226  11.158
  136SBC   C00Y95535   7.727   8.272  11.022
  136SBC   C01O95536   7.620   8.356  10.995
  136SBC   C01P95537   7.557   8.356  10.870
  136SBC   C02L95538   7.434   8.412  10.864
  136SBC   C02K95539   7.364   8.424  10.984
  136SBC   C01M95540   7.407   8.372  11.113
  136SBC   C02J95541   7.251   8.495  10.967
  136SBC   C02I95542   7.154   8.514  11.065
  136SBC   C02H95543   7.135   8.460  11.191
  136SBC   C01Q95544   7.212   8.376  11.273
  136SBC   C02G95545   7.142   8.360  11.395
  136SBC   C08995546   7.015   8.426  11.380
  136SBC   C08895547   6.969   8.469  11.503
  136SBC   C08795548   7.059   8.398  11.595
  136SBC   C08695549   7.020   8.369  11.724
  136SBC   C03S95550   7.082   8.270  11.807
  136SBC   N00695551   7.001   8.258  11.919
  136SBC   C08F95552   6.894   8.346  11.902
  136SBC   C01J95553   7.203   8.193  11.812
  136SBC   C03R95554   7.221   8.118  11.935
  136SBC   C03Q95555   7.119   8.108  12.038
  136SBC   C08E95556   6.890   8.396  11.777
  136SBC   C08D95557   6.783   8.485  11.734
  136SBC   C08K95558   6.676   8.495  11.823
  136SBC   C08C95559   6.783   8.569  11.623
  136SBC   C09195560   6.663   8.641  11.590
  136SBC   C09295561   6.549   8.644  11.665
  136SBC   C08B95562   6.870   8.582  11.518
  136SBC   C09095563   6.803   8.662  11.414
  136SBC   C09495564   6.858   8.691  11.285
  136SBC   C09595565   6.807   8.776  11.184
  136SBC   C09R95566   6.878   8.763  11.064
  136SBC   C09795567   6.976   8.666  11.087
  136SBC   C09695568   6.965   8.621  11.219
  136SBC   C01I95569   7.172   8.330  11.533
  136SBC   C08A95570   7.030   8.512  11.267
  136SBC   C09L95571   7.062   8.604  11.004
  136SBC   C09K95572   7.094   8.628  10.867
  136SBC   C09J95573   7.010   8.689  10.768
  136SBC   C09I95574   6.993   8.636  10.636
  136SBC   C09O95575   7.061   8.539  10.554
  136SBC   C09N95576   7.183   8.476  10.589
  136SBC   C09M95577   7.246   8.481  10.719
  136SBC   C06O95578   7.244   8.391  10.491
  136SBC   C05M95579   7.175   8.355  10.374
  136SBC   C06P95580   7.048   8.407  10.347
  136SBC   C04295581   7.232   8.270  10.275
  136SBC   C04195582   7.363   8.222  10.293
  136SBC   C04095583   7.422   8.142  10.198
  136SBC   C03Z95584   7.544   8.087  10.220
  136SBC   C03Y95585   7.611   8.112  10.337
  136SBC   C02795586   7.729   8.041  10.358
  136SBC   C02695587   7.792   8.051  10.480
  136SBC   C02895588   7.910   7.984  10.507
  136SBC   C02995589   7.962   7.904  10.411
  136SBC   C02B95590   8.079   7.836  10.432
  136SBC   C02C95591   8.144   7.766  10.330
  136SBC   C02X95592   8.256   7.693  10.362
  136SBC   C03E95593   8.310   7.622  10.260
  136SBC   C03G95594   8.259   7.605  10.133
  136SBC   C04Q95595   8.144   7.676  10.107
  136SBC   C04R95596   8.082   7.663   9.982
  136SBC   C04S95597   7.964   7.728   9.957
  136SBC   C04L95598   7.902   7.804  10.061
  136SBC   C04M95599   7.960   7.812  10.188
  136SBC   C04K95600   7.779   7.868  10.041
  136SBC   C04F95601   7.720   7.863   9.916
  136SBC   C04E95602   7.780   7.784   9.815
  136SBC   C04D95603   7.721   7.770   9.692
  136SBC   C05095604   7.774   7.692   9.592
  136SBC   C05195605   7.717   7.683   9.465
  136SBC   C05Q95606   7.784   7.618   9.360
  136SBC   C05V95607   7.722   7.624   9.233
  136SBC   N00595608   7.786   7.557   9.127
  136SBC   C07V95609   7.911   7.495   9.150
  136SBC   C08295610   7.981   7.438   9.047
  136SBC   C08195611   7.932   7.448   8.917
  136SBC   C07C95612   7.805   7.500   8.896
  136SBC   C07B95613   7.744   7.491   8.769
  136SBC   C08095614   7.814   7.438   8.660
  136SBC   C07Z95615   7.745   7.420   8.541
  136SBC   H00L95616   7.807   7.365   8.472
  136SBC   C07995617   7.616   7.449   8.517
  136SBC   C07895618   7.547   7.504   8.625
  136SBC   C07795619   7.409   7.536   8.617
  136SBC   C07X95620   7.337   7.519   8.492
  136SBC   H00I95621   7.236   7.557   8.485
  136SBC   C07Y95622   7.413   7.471   8.384
  136SBC   H00H95623   7.362   7.453   8.290
  136SBC   C07695624   7.338   7.573   8.734
  136SBC   C06C95625   7.197   7.552   8.740
  136SBC   H00C95626   7.133   7.510   8.664
  136SBC   C06F95627   7.408   7.615   8.845
  136SBC   C06E95628   7.344   7.664   8.960
  136SBC   C06G95629   7.406   7.699   9.077
  136SBC   C06H95630   7.539   7.677   9.085
  136SBC   C06I95631   7.609   7.615   8.983
  136SBC   C06L95632   7.323   7.750   9.181
  136SBC   C06M95633   7.180   7.756   9.178
  136SBC   C06K95634   7.390   7.777   9.302
  136SBC   C05S95635   7.527   7.738   9.321
  136SBC   C05U95636   7.322   7.842   9.403
  136SBC   C05X95637   7.185   7.879   9.392
  136SBC   C05G95638   7.153   7.973   9.500
  136SBC   C05F95639   7.235   7.991   9.609
  136SBC   C05E95640   7.172   8.059   9.713
  136SBC   C04895641   7.236   8.077   9.841
  136SBC   C05695642   7.164   8.142   9.938
  136SBC   C04595643   7.230   8.161  10.060
  136SBC   C04795644   7.360   8.027   9.853
  136SBC   C04995645   7.418   7.950   9.750
  136SBC   C04B95646   7.541   7.898   9.772
  136SBC   C04695647   7.416   8.044   9.976
  136SBC   C04H95648   7.546   7.995   9.997
  136SBC   C05D95649   7.044   8.096   9.683
  136SBC   C04A95650   7.355   7.927   9.630
  136SBC   C05T95651   7.403   7.868   9.520
  136SBC   C05595652   7.533   7.818   9.543
  136SBC   C06D95653   7.203   7.662   8.957
  136SBC   C07W95654   7.545   7.593   8.856
  136SBC   C08595655   7.549   7.428   8.396
  136SBC   H00M95656   7.593   7.371   8.315
  136SBC   C08495657   7.943   7.397   8.677
  136SBC   H00J95658   8.007   7.372   8.594
  136SBC   C07A95659   7.615   7.534   8.750
  136SBC   C08395660   8.004   7.401   8.804
  136SBC   H00K95661   8.108   7.371   8.810
  136SBC   O00K95662   8.107   7.382   9.065
  136SBC   C0GO95663   8.149   7.366   9.194
  136SBC   C0GN95664   8.270   7.308   9.214
  136SBC   H01L95665   8.319   7.256   9.132
  136SBC   C0GM95666   8.337   7.309   9.341
  136SBC   C0GL95667   8.457   7.255   9.360
  136SBC   H01M95668   8.506   7.201   9.280
  136SBC   O00J95669   8.524   7.246   9.476
  136SBC   C0GK95670   8.459   7.310   9.582
  136SBC   H01N95671   8.525   7.313   9.668
  136SBC   C05K95672   8.334   7.365   9.575
  136SBC   C05J95673   8.269   7.425   9.686
  136SBC   C04Y95674   8.317   7.424   9.819
  136SBC   C04X95675   8.259   7.510   9.917
  136SBC   O00695676   8.425   7.347   9.854
  136SBC   C05395677   8.476   7.347   9.983
  136SBC   C04O95678   8.431   7.439  10.077
  136SBC   C03C95679   8.477   7.455  10.212
  136SBC   C03B95680   8.570   7.387  10.301
  136SBC   C05495681   8.620   7.263  10.269
  136SBC   C0GR95682   8.702   7.187  10.359
  136SBC   C03M95683   8.734   7.188  10.506
  136SBC   C03I95684   8.671   7.278  10.602
  136SBC   C03J95685   8.689   7.248  10.744
  136SBC   N00295686   8.627   7.328  10.843
  136SBC   C02U95687   8.637   7.297  10.984
  136SBC   C02T95688   8.575   7.375  11.080
  136SBC   C02Z95689   8.580   7.333  11.215
  136SBC   N00195690   8.503   7.396  11.317
  136SBC   C02R95691   8.498   7.346  11.452
  136SBC   C03295692   8.565   7.227  11.482
  136SBC   C03195693   8.642   7.169  11.384
  136SBC   H00795694   8.695   7.080  11.417
  136SBC   C03395695   8.558   7.190  11.622
  136SBC   H00395696   8.619   7.112  11.665
  136SBC   O00495697   8.485   7.256  11.719
  136SBC   C03495698   8.411   7.362  11.676
  136SBC   C03595699   8.322   7.410  11.769
  136SBC   C03695700   8.223   7.505  11.728
  136SBC   H00595701   8.146   7.532  11.798
  136SBC   C03795702   8.233   7.550  11.597
  136SBC   H00695703   8.156   7.615  11.559
  136SBC   C00D95704   8.338   7.515  11.508
  136SBC   C00C95705   8.347   7.582  11.387
  136SBC   C00B95706   8.278   7.710  11.354
  136SBC   C00A95707   8.176   7.812  11.403
  136SBC   C00995708   8.149   7.888  11.287
  136SBC   C00895709   8.036   7.965  11.258
  136SBC   C00795710   7.939   7.977  11.359
  136SBC   C00695711   7.823   8.057  11.330
  136SBC   C00595712   7.720   8.064  11.430
  136SBC   C00495713   7.730   7.999  11.549
  136SBC   C00395714   7.848   7.922  11.578
  136SBC   C00295715   7.867   7.869  11.703
  136SBC   C01C95716   7.767   7.882  11.799
  136SBC   C01B95717   7.773   7.810  11.920
  136SBC   H00095718   7.851   7.744  11.954
  136SBC   C00195719   7.992   7.817  11.732
  136SBC   C00095720   8.091   7.816  11.638
  136SBC   C01U95721   8.212   7.809  11.710
  136SBC   H00295722   8.314   7.819  11.675
  136SBC   C01T95723   8.173   7.810  11.858
  136SBC   O00295724   8.245   7.811  11.957
  136SBC   O00195725   8.046   7.817  11.860
  136SBC   C01S95726   7.953   7.910  11.480
  136SBC   C00N95727   8.018   8.000  11.126
  136SBC   C00M95728   8.102   7.959  11.022
  136SBC   C00J95729   8.205   7.875  11.044
  136SBC   C00I95730   8.277   7.810  10.948
  136SBC   C00H95731   8.368   7.712  10.985
  136SBC   C00G95732   8.383   7.675  11.118
  136SBC   C00F95733   8.446   7.563  11.153
  136SBC   C01X95734   8.423   7.631  10.882
  136SBC   C01W95735   8.392   7.655  10.750
  136SBC   C01V95736   8.294   7.752  10.720
  136SBC   C02095737   8.242   7.763  10.591
  136SBC   C01Z95738   8.451   7.579  10.650
  136SBC   C02Y95739   8.404   7.605  10.523
  136SBC   C03995740   8.466   7.541  10.424
  136SBC   C02W95741   8.533   7.469  10.676
  136SBC   C01Y95742   8.499   7.519  10.913
  136SBC   C00U95743   8.235   7.827  10.820
  136SBC   C00S95744   8.124   7.908  10.788
  136SBC   C00T95745   8.075   7.911  10.659
  136SBC   C00R95746   8.063   7.979  10.888
  136SBC   C00Q95747   7.960   8.060  10.860
  136SBC   C00V95748   7.909   8.069  10.730
  136SBC   C02495749   7.799   8.147  10.698
  136SBC   C00X95750   7.738   8.219  10.796
  136SBC   C00P95751   7.894   8.118  10.963
  136SBC   C00O95752   7.914   8.084  11.099
  136SBC   C00K95753   8.234   7.852  11.182
  136SBC   N00095754   8.077   7.835  11.503
  136SBC   C00L95755   8.307   7.745  11.218
  136SBC   H00495756   8.334   7.365  11.866
  136SBC   C02Q95757   8.419   7.413  11.543
  136SBC   C00E95758   8.432   7.517  11.286
  136SBC   C03095759   8.645   7.209  11.249
  136SBC   O00395760   8.721   7.141  11.158
  136SBC   C02S95761   8.508   7.490  11.049
  136SBC   C03895762   8.706   7.182  11.023
  136SBC   C03L95763   8.773   7.105  10.927
  136SBC   H00895764   8.826   7.014  10.952
  136SBC   C02V95765   8.553   7.436  10.809
  136SBC   C03K95766   8.762   7.139  10.787
  136SBC   C0BK95767   8.826   7.067  10.684
  136SBC   H00T95768   8.875   6.975  10.712
  136SBC   C03H95769   8.595   7.394  10.572
  136SBC   C0BL95770   8.813   7.085  10.547
  136SBC   C0GU95771   8.884   7.006  10.456
  136SBC   H01O95772   8.942   6.923  10.494
  136SBC   C0GT95773   8.861   7.000  10.319
  136SBC   H01P95774   8.897   6.924  10.252
  136SBC   C0GS95775   8.772   7.095  10.280
  136SBC   C0GV95776   8.720   7.105  10.146
  136SBC   C0GW95777   8.761   7.038  10.027
  136SBC   H01Q95778   8.832   6.957  10.029
  136SBC   C0GX95779   8.711   7.080   9.911
  136SBC   H01R95780   8.741   7.024   9.824
  136SBC   O00L95781   8.632   7.189   9.893
  136SBC   C0GQ95782   8.628   7.210  10.136
  136SBC   C03A95783   8.553   7.431  10.436
  136SBC   C05L95784   8.579   7.252  10.009
  136SBC   C04W95785   8.145   7.493   9.659
  136SBC   C05I95786   8.086   7.492   9.534
  136SBC   C05O95787   8.143   7.427   9.426
  136SBC   C05295788   7.961   7.556   9.513
  136SBC   C04V95789   8.084   7.573   9.756
  136SBC   C04U95790   7.967   7.646   9.732
  136SBC   N00995791   8.269   7.366   9.447
  136SBC   C0GP95792   8.086   7.426   9.300
  136SBC   C05W95793   7.963   7.491   9.279
  136SBC   C07D95794   7.736   7.564   8.997
  136SBC   C06J95795   7.597   7.679   9.214
  136SBC   C05P95796   7.901   7.553   9.387
  136SBC   C05R95797   7.595   7.745   9.444
  136SBC   C04Z95798   7.898   7.627   9.611
  136SBC   C04C95799   7.594   7.830   9.670
  136SBC   C04G95800   7.602   7.924   9.893
  136SBC   C04J95801   7.724   7.951  10.140
  136SBC   C04T95802   7.905   7.721   9.833
  136SBC   N00395803   8.138   7.583   9.885
  136SBC   C04P95804   8.323   7.522  10.042
  136SBC   C03D95805   8.432   7.558  10.288
  136SBC   C02195806   8.301   7.689  10.490
  136SBC   C03F95807   8.085   7.756  10.204
  136SBC   C02295808   8.132   7.838  10.563
  136SBC   C02A95809   7.902   7.889  10.289
  136SBC   C02395810   7.967   7.994  10.633
  136SBC   C02595811   7.739   8.141  10.574
  136SBC   C02D95812   7.615   8.206  10.553
  136SBC   C02E95813   7.557   8.289  10.649
  136SBC   C02N95814   7.436   8.353  10.632
  136SBC   C04N95815   7.784   7.956  10.264
  136SBC   C02P95816   7.552   8.193  10.430
  136SBC   C04I95817   7.606   8.013  10.119
  136SBC   C04495818   7.355   8.110  10.080
  136SBC   C04395819   7.428   8.250  10.410
  136SBC   C05N95820   7.372   8.330  10.512
  136SBC   C09U95821   6.990   8.503  10.434
  136SBC   C09V95822   6.865   8.552  10.401
  136SBC   C09X95823   6.791   8.635  10.486
  136SBC   C09Y95824   6.657   8.666  10.487
  136SBC   C0A195825   6.591   8.629  10.373
  136SBC   C0A295826   6.660   8.555  10.276
  136SBC   C0A495827   6.591   8.513  10.167
  136SBC   C07195828   6.650   8.421  10.077
  136SBC   C0A595829   6.578   8.376   9.968
  136SBC   C0A995830   6.438   8.401   9.964
  136SBC   C0A895831   6.381   8.480  10.057
  136SBC   C0AP95832   6.249   8.491  10.057
  136SBC   C0BY95833   6.185   8.566  10.158
  136SBC   C0BX95834   6.248   8.633  10.259
  136SBC   C0C295835   6.177   8.699  10.358
  136SBC   C0C395836   6.249   8.752  10.463
  136SBC   C0CT95837   6.388   8.725  10.475
  136SBC   C0C195838   6.039   8.708  10.350
  136SBC   C0C095839   5.971   8.608  10.267
  136SBC   C0A795840   6.385   8.614  10.259
  136SBC   C0BZ95841   6.051   8.553  10.170
  136SBC   C0BO95842   5.974   8.481  10.079
  136SBC   C0BN95843   6.032   8.407   9.978
  136SBC   C0BM95844   5.951   8.337   9.892
  136SBC   C0B995845   6.007   8.267   9.789
  136SBC   C0B895846   6.147   8.269   9.777
  136SBC   C0AD95847   6.229   8.340   9.872
  136SBC   C0AF95848   6.208   8.197   9.681
  136SBC   C0AG95849   6.136   8.118   9.591
  136SBC   C0B795850   5.997   8.109   9.609
  136SBC   C0AE95851   6.346   8.196   9.680
  136SBC   C0AB95852   6.423   8.264   9.771
  136SBC   C0AA95853   6.562   8.246   9.768
  136SBC   C0AJ95854   6.401   8.120   9.579
  136SBC   C0AK95855   6.537   8.111   9.573
  136SBC   C06W95856   6.561   8.035   9.466
  136SBC   C0AI95857   6.338   8.051   9.476
  136SBC   C0BP95858   5.844   8.476  10.115
  136SBC   C0BQ95859   5.753   8.398  10.033
  136SBC   C0BW95860   6.172   8.422   9.965
  136SBC   C0AC95861   6.365   8.337   9.870
  136SBC   C0A695862   6.454   8.544  10.157
  136SBC   C0A395863   6.454   8.656  10.369
  136SBC   C09Z95864   6.591   8.737  10.591
  136SBC   C09W95865   6.791   8.507  10.294
  136SBC   C07295866   6.852   8.429  10.200
  136SBC   C09H95867   6.867   8.685  10.595
  136SBC   C09G95868   6.805   8.752  10.693
  136SBC   C09P95869   6.885   8.754  10.804
  136SBC   C02O95870   7.194   8.536  10.839
  136SBC   C02M95871   7.370   8.415  10.738
  136SBC   C02F95872   7.622   8.292  10.768
  136SBC   C00W95873   7.792   8.201  10.924
  136SBC   C01R95874   7.823   8.118  11.202
  136SBC   C01N95875   7.544   8.346  11.107
  136SBC   C01L95876   7.343   8.339  11.238
  136SBC   C01H95877   7.282   8.248  11.579
  136SBC   C01K95878   7.596   8.133  11.408
  136SBC   C01E95879   7.634   8.013  11.652
  136SBC   C01G95880   7.301   8.188  11.707
  136SBC   C01D95881   7.652   7.954  11.777
  136SBC   C01A95882   7.675   7.814  12.018
  136SBC   H00195883   7.683   7.761  12.112
  136SBC   C01F95884   7.339   8.047  11.951
  136SBC   C03P95885   7.133   8.032  12.150
  136SBC   C03T95886   7.009   8.187  12.032
  136SBC   C08I95887   6.786   8.352  11.985
  136SBC   C08J95888   6.679   8.426  11.947
  136SBC   C08L95889   6.560   8.579  11.787
  136SBC   C09395890   6.434   8.710  11.619
  136SBC   C08Z95891   6.665   8.696  11.461
  136SBC   C09T95892   6.322   8.851  11.175
  136SBC   C09S95893   6.679   8.830  11.185
  136SBC   C09Q95894   6.830   8.792  10.932
  136SBC   C09F95895   6.663   8.776  10.698
  136SBC   C09E95896   6.417   8.862  10.957
  136SBC   C0A095897   6.454   8.761  10.590
  136SBC   C0CU95898   6.179   8.812  10.569
  136SBC   C0CR95899   6.040   8.843  10.553
  136SBC   C0CZ95900   5.968   8.919  10.649
  136SBC   C0DA95901   6.290   8.855  11.028
  136SBC   C0D995902   5.942   8.899  11.087
  136SBC   H00V95903   5.936   8.824  11.164
  136SBC   C0CY95904   6.035   8.932  10.775
  136SBC   C0DF95905   5.824   8.967  11.041
  136SBC   C0DE95906   5.682   8.958  11.063
  136SBC   C0GI95907   5.606   8.959  11.182
  136SBC   H01K95908   5.657   8.945  11.276
  136SBC   C0GJ95909   5.476   8.990  11.163
  136SBC   H01J95910   5.422   9.004  11.256
  136SBC   O00I95911   5.403   9.007  11.045
  136SBC   C0GH95912   5.482   8.990  10.929
  136SBC   C0GG95913   5.410   8.967  10.808
  136SBC   O00G95914   5.280   8.954  10.819
  136SBC   C0G895915   5.204   8.875  10.735
  136SBC   C0G995916   5.076   8.849  10.786
  136SBC   H01G95917   5.044   8.879  10.885
  136SBC   C0GA95918   4.986   8.774  10.719
  136SBC   H01H95919   4.892   8.750  10.767
  136SBC   C0GB95920   5.019   8.717  10.594
  136SBC   C0EP95921   5.156   8.733  10.550
  136SBC   C0E895922   5.195   8.643  10.441
  136SBC   C0CK95923   5.313   8.617  10.369
  136SBC   C0CL95924   5.414   8.704  10.369
  136SBC   C0E995925   5.443   8.809  10.463
  136SBC   C0GE95926   5.376   8.860  10.585
  136SBC   C0E795927   5.104   8.566  10.365
  136SBC   C0CJ95928   5.159   8.490  10.256
  136SBC   C0E695929   5.067   8.431  10.164
  136SBC   H00Y95930   5.094   8.375  10.077
  136SBC   C0EO95931   4.933   8.444  10.201
  136SBC   H01195932   4.863   8.399  10.132
  136SBC   C0G695933   4.885   8.507  10.319
  136SBC   C0G595934   4.747   8.501  10.365
  136SBC   H01F95935   4.672   8.438  10.321
  136SBC   C0GD95936   4.713   8.563  10.477
  136SBC   H01I95937   4.608   8.554  10.503
  136SBC   O00H95938   4.794   8.637  10.562
  136SBC   C0EQ95939   4.969   8.580  10.404
  136SBC   C0GC95940   4.927   8.649  10.518
  136SBC   C0G795941   5.247   8.819  10.617
  136SBC   C0DD95942   5.622   8.993  10.940
  136SBC   C0GF95943   5.462   8.937  10.675
  136SBC   C0CO95944   5.560   8.862  10.423
  136SBC   C0D095945   5.829   8.954  10.622
  136SBC   C0C495946   5.971   8.794  10.437
  136SBC   C0CN95947   5.614   8.803  10.309
  136SBC   C0CP95948   5.838   8.557  10.231
  136SBC   C0CM95949   5.516   8.706  10.265
  136SBC   C0CI95950   5.304   8.503  10.270
  136SBC   C0CD95951   5.360   8.136   9.972
  136SBC   C0BR95952   5.619   8.383  10.067
  136SBC   C0CS95953   5.814   8.329   9.924
  136SBC   C0B695954   5.936   8.180   9.712
  136SBC   C0CG95955   5.544   8.119   9.817
  136SBC   C0CF95956   5.417   8.085   9.858
  136SBC   C0E595957   5.149   8.021   9.928
  136SBC   C0DT95958   4.989   7.883   9.761
  136SBC   C0DL95959   5.305   7.871   9.582
  136SBC   C0DM95960   5.357   7.826   9.458
  136SBC   C0DY95961   5.139   7.745   9.389
  136SBC   C0DU95962   4.915   7.815   9.671
  136SBC   C0F095963   4.685   7.777   9.593
  136SBC   C0F495964   4.519   7.782   9.387
  136SBC   C0FG95965   4.834   7.637   9.241
  136SBC   O00B95966   4.513   7.774   9.141
  136SBC   C0FN95967   4.851   7.636   9.107
  136SBC   C0DZ95968   5.052   7.700   9.290
  136SBC   O00C95969   5.281   7.672   9.012
  136SBC   C0FR95970   5.405   7.666   8.982
  136SBC   O00D95971   5.424   7.624   8.868
  136SBC   C0E095972   5.273   7.771   9.361
  136SBC   C0E395973   5.499   7.710   9.086
  136SBC   C0AW95974   5.634   7.721   9.055
  136SBC   C0AV95975   5.703   7.691   8.933
  136SBC   H00Q95976   5.641   7.661   8.850
  136SBC   C0AU95977   5.843   7.700   8.922
  136SBC   H00R95978   5.878   7.690   8.820
  136SBC   C0AT95979   5.922   7.746   9.033
  136SBC   C0AS95980   6.061   7.766   9.056
  136SBC   C0AR95981   6.163   7.734   8.961
  136SBC   C0BE95982   5.850   7.787   9.140
  136SBC   C0DN95983   5.493   7.841   9.433
  136SBC   C0AX95984   5.713   7.771   9.154
  136SBC   C0BB95985   5.705   7.933   9.486
  136SBC   C0BD95986   5.944   7.833   9.234
  136SBC   C0B295987   5.924   8.025   9.529
  136SBC   C0AH95988   6.195   8.042   9.485
  136SBC   C0BF95989   6.075   7.833   9.191
  136SBC   C0AL95990   6.445   7.998   9.395
  136SBC   C07U95991   6.372   7.800   9.106
  136SBC   C0AQ95992   6.302   7.752   8.991
  136SBC   C0BG95993   6.157   7.693   8.817
  136SBC   C0FY95994   6.417   7.518   8.655
  136SBC   C0BJ95995   6.097   7.572   8.751
  136SBC   H00S95996   6.007   7.522   8.782
  136SBC   C0FZ95997   6.361   7.401   8.600
  136SBC   C07S95998   6.544   7.514   8.713
  136SBC   C0G195999   6.632   7.166   8.582
  136SBC   C07K96000   6.940   7.234   8.769
  136SBC   C07H96001   6.796   7.481   8.825
  136SBC   C06B96002   7.132   7.596   8.857
  136SBC   C06N96003   7.119   7.697   9.062
  136SBC   C06696004   6.726   7.670   8.996
  136SBC   C06296005   6.711   7.864   9.247
  136SBC   C05Y96006   7.105   7.826   9.285
  136SBC   C06196007   6.755   7.955   9.339
  136SBC   C05H96008   7.033   8.044   9.547
  136SBC   C06V96009   6.697   8.009   9.454
  136SBC   C06Y96010   6.625   8.172   9.667
  136SBC   C05C96011   6.974   8.162   9.786
  136SBC   C06Z96012   6.637   8.300   9.867
  136SBC   C07096013   6.783   8.387  10.089
  136SBC   C05B96014   7.039   8.192   9.909
  136SBC   C05796015   7.165   8.243  10.159
  136SBC   C05996016   6.981   8.378  10.227
  137SBC   C05896017   0.553   9.579  14.370
  137SBC   C05A96018   0.588   9.459  14.303
  137SBC   C06Q96019   0.613   9.343  14.381
  137SBC   C06R96020   0.640   9.220  14.317
  137SBC   C06S96021   0.633   9.212  14.176
  137SBC   C06T96022   0.661   9.081  14.121
  137SBC   C06U96023   0.648   9.031  13.984
  137SBC   C06X96024   0.607   9.093  13.864
  137SBC   C06096025   0.594   8.993  13.760
  137SBC   C05Z96026   0.623   8.997  13.617
  137SBC   C06896027   0.687   8.866  13.589
  137SBC   C06796028   0.741   8.813  13.457
  137SBC   C06996029   0.690   8.870  13.329
  137SBC   C06A96030   0.723   8.839  13.195
  137SBC   C07396031   0.837   8.785  13.138
  137SBC   C07P96032   0.882   8.846  13.017
  137SBC   C07O96033   0.848   8.974  12.971
  137SBC   H00D96034   0.796   9.045  13.033
  137SBC   C07N96035   0.873   9.015  12.839
  137SBC   H00E96036   0.836   9.106  12.793
  137SBC   C07M96037   0.951   8.938  12.756
  137SBC   H00F96038   0.967   8.981  12.658
  137SBC   C07L96039   0.992   8.811  12.795
  137SBC   C07Q96040   1.070   8.720  12.716
  137SBC   H00G96041   1.106   8.765  12.625
  137SBC   O00F96042   1.113   8.595  12.762
  137SBC   C07J96043   1.067   8.561  12.884
  137SBC   C07I96044   0.987   8.637  12.962
  137SBC   N00496045   0.964   8.588  13.098
  137SBC   C07R96046   1.007   8.464  13.135
  137SBC   C07T96047   1.096   8.396  13.049
  137SBC   C0FX96048   1.159   8.278  13.081
  137SBC   C0FW96049   1.254   8.206  13.007
  137SBC   C0G096050   1.278   8.258  12.880
  137SBC   C0G296051   1.369   8.193  12.793
  137SBC   H01E96052   1.393   8.233  12.696
  137SBC   C0G396053   1.439   8.082  12.841
  137SBC   H01C96054   1.523   8.037  12.790
  137SBC   C0G496055   1.417   8.033  12.973
  137SBC   H01D96056   1.479   7.955  13.015
  137SBC   O00E96057   1.212   8.377  12.844
  137SBC   C0FV96058   1.315   8.091  13.054
  137SBC   C0FU96059   1.279   8.050  13.187
  137SBC   H01B96060   1.341   7.973  13.231
  137SBC   C0FT96061   1.169   8.104  13.258
  137SBC   C0FS96062   1.094   8.094  13.386
  137SBC   C0BI96063   0.984   8.184  13.369
  137SBC   C0BH96064   0.916   8.213  13.489
  137SBC   C07F96065   0.907   8.346  13.540
  137SBC   C07E96066   0.884   8.467  13.472
  137SBC   C07G96067   0.910   8.490  13.346
  137SBC   C07496068   0.874   8.623  13.324
  137SBC   C06596069   0.840   8.584  13.539
  137SBC   C06496070   0.834   8.575  13.680
  137SBC   C06396071   0.781   8.670  13.766
  137SBC   C07596072   0.808   8.609  13.901
  137SBC   C0AM96073   0.872   8.476  13.899
  137SBC   C0AN96074   0.917   8.388  14.013
  137SBC   C0AO96075   0.916   8.409  14.163
  137SBC   C0B196076   0.954   8.305  14.255
  137SBC   C0B096077   0.990   8.181  14.208
  137SBC   C0AZ96078   1.025   8.073  14.291
  137SBC   C0AY96079   1.050   7.949  14.230
  137SBC   N00796080   1.073   7.836  14.309
  137SBC   C0E296081   1.096   7.709  14.247
  137SBC   C0E196082   1.106   7.597  14.328
  137SBC   C0E496083   1.120   7.470  14.260
  137SBC   C0FF96084   1.103   7.341  14.330
  137SBC   C0FJ96085   1.098   7.192  14.297
  137SBC   C0FK96086   1.161   7.114  14.195
  137SBC   H01696087   1.221   7.153  14.113
  137SBC   C0FL96088   1.142   6.970  14.243
  137SBC   H01796089   1.175   6.878  14.196
  137SBC   C0FM96090   1.079   6.966  14.371
  137SBC   C0FH96091   1.031   6.900  14.497
  137SBC   C0FI96092   0.979   7.017  14.568
  137SBC   C0F396093   0.979   7.019  14.708
  137SBC   C0F296094   0.978   7.147  14.755
  137SBC   C0DW96095   1.004   7.266  14.686
  137SBC   C0FE96096   1.019   7.259  14.554
  137SBC   C0DV96097   1.004   7.389  14.746
  137SBC   C0DX96098   1.030   7.500  14.668
  137SBC   C0DK96099   1.031   7.625  14.734
  137SBC   C0DJ96100   0.999   7.636  14.872
  137SBC   C0DI96101   0.982   7.755  14.931
  137SBC   C0DH96102   0.984   7.867  14.859
  137SBC   C0DG96103   1.016   7.863  14.721
  137SBC   C0BV96104   1.003   7.976  14.641
  137SBC   C0BC96105   1.031   7.970  14.503
  137SBC   C0BA96106   0.966   8.098  14.698
  137SBC   C0B496107   0.967   8.216  14.620
  137SBC   C0B396108   0.978   8.209  14.480
  137SBC   C0B596109   0.937   8.337  14.678
  137SBC   C0BU96110   0.913   8.344  14.816
  137SBC   C0BT96111   0.919   8.233  14.900
  137SBC   C0BS96112   0.881   8.236  15.033
  137SBC   C0CC96113   0.881   8.120  15.108
  137SBC   C0CB96114   0.843   8.114  15.237
  137SBC   C0CH96115   0.814   7.993  15.293
  137SBC   C0DO96116   0.852   7.875  15.244
  137SBC   C0DP96117   0.852   7.760  15.324
  137SBC   C0EA96118   0.812   7.767  15.465
  137SBC   H01296119   0.774   7.855  15.513
  137SBC   O00996120   0.811   7.659  15.543
  137SBC   C0EH96121   0.842   7.542  15.484
  137SBC   C0EG96122   0.827   7.431  15.562
  137SBC   C0EJ96123   0.773   7.404  15.693
  137SBC   H01096124   0.723   7.476  15.756
  137SBC   C0EK96125   0.786   7.264  15.725
  137SBC   H00Z96126   0.758   7.202  15.809
  137SBC   C0EL96127   0.832   7.207  15.600
  137SBC   C0EM96128   0.838   7.066  15.558
  137SBC   C0EW96129   0.803   6.950  15.634
  137SBC   H01396130   0.780   6.954  15.740
  137SBC   C0EX96131   0.794   6.816  15.572
  137SBC   H01496132   0.773   6.727  15.629
  137SBC   C0F196133   0.834   6.809  15.427
  137SBC   C0EU96134   0.885   6.920  15.365
  137SBC   C0ET96135   0.937   6.924  15.230
  137SBC   C0ES96136   0.957   7.065  15.219
  137SBC   C0EE96137   0.920   7.143  15.333
  137SBC   C0ED96138   0.908   7.278  15.379
  137SBC   C0EC96139   0.928   7.397  15.296
  137SBC   C0EB96140   0.958   7.399  15.155
  137SBC   C0EN96141   0.965   7.269  15.083
  137SBC   C0ER96142   0.965   7.285  14.947
  137SBC   C0DS96143   0.967   7.517  15.080
  137SBC   C0DR96144   0.938   7.638  15.140
  137SBC   C0EY96145   0.966   7.124  15.099
  137SBC   C0EZ96146   0.973   7.053  14.976
  137SBC   C0F596147   0.981   6.917  14.922
  137SBC   C0F696148   0.967   6.809  15.007
  137SBC   N00896149   0.948   6.686  14.929
  137SBC   C0F796150   0.962   6.673  14.781
  137SBC   C0FQ96151   0.930   6.551  14.721
  137SBC   H01896152   0.936   6.541  14.614
  137SBC   C0FP96153   0.874   6.447  14.790
  137SBC   H01996154   0.835   6.362  14.736
  137SBC   C0FO96155   0.878   6.456  14.928
  137SBC   H01A96156   0.834   6.369  14.974
  137SBC   C0F896157   0.996   6.788  14.711
  137SBC   C0F996158   0.919   6.568  15.007
  137SBC   C0FA96159   0.885   6.567  15.149
  137SBC   H01596160   0.851   6.478  15.200
  137SBC   C0FB96161   0.890   6.693  15.216
  137SBC   C0FD96162   0.932   6.806  15.147
  137SBC   C0FC96163   0.849   6.687  15.354
  137SBC   O00A96164   0.821   6.580  15.416
  137SBC   C0EV96165   0.882   7.044  15.429
  137SBC   C0EF96166   0.864   7.307  15.509
  137SBC   C0EI96167   0.892   7.525  15.349
  137SBC   C0DQ96168   0.893   7.637  15.273
  137SBC   C0CE96169   0.905   7.879  15.117
  137SBC   H00U96170   0.761   8.010  15.385
  137SBC   C0CA96171   0.839   8.233  15.313
  137SBC   C0C996172   0.796   8.347  15.234
  137SBC   C0C896173   0.695   8.431  15.300
  137SBC   C0C796174   0.640   8.560  15.268
  137SBC   C0C696175   0.534   8.603  15.351
  137SBC   C0C596176   0.478   8.734  15.393
  137SBC   C0CQ96177   0.429   8.735  15.522
  137SBC   C0D196178   0.460   8.634  15.608
  137SBC   C0D896179   0.474   8.677  15.736
  137SBC   C0D796180   0.409   8.805  15.741
  137SBC   C0D696181   0.411   8.897  15.856
  137SBC   C0D596182   0.350   9.030  15.852
  137SBC   C0D496183   0.309   9.104  15.741
  137SBC   C0D396184   0.332   9.240  15.775
  137SBC   C0CX96185   0.355   9.313  15.651
  137SBC   C0CW96186   0.383   9.220  15.545
  137SBC   C0CV96187   0.424   9.230  15.406
  137SBC   C0D296188   0.450   9.358  15.343
  137SBC   C09D96189   0.456   9.489  15.406
  137SBC   C09C96190   0.492   9.608  15.334
  137SBC   C09B96191   0.469   9.741  15.374
  137SBC   C09A96192   0.427   9.752  15.504
  137SBC   C09996193   0.422   9.653  15.600
  137SBC   C09896194   0.325   9.687  15.696
  137SBC   C08Y96195   0.257   9.807  15.657
  137SBC   C08X96196   0.139   9.867  15.710
  137SBC   C08W96197   0.056   9.798  15.807
  137SBC   C08U96198   0.070   9.658  15.855
  137SBC   C08V96199   0.163   9.554  15.816
  137SBC   C0DC96200   0.139   9.451  15.914
  137SBC   H00W96201   0.188   9.355  15.922
  137SBC   C0DB96202   0.032   9.482  16.002
  137SBC   H00X96203  -0.006   9.416  16.078
  137SBC   C08T96204  -0.012   9.610  15.958
  137SBC   C08S96205  -0.123   9.675  16.003
  137SBC   H00N96206  -0.193   9.630  16.073
  137SBC   C08R96207  -0.147   9.806  15.959
  137SBC   C08Q96208  -0.244   9.894  16.019
  137SBC   H00O96209  -0.305   9.849  16.095
  137SBC   C08P96210  -0.279  10.022  15.973
  137SBC   C08O96211  -0.392  10.098  16.020
  137SBC   H00P96212  -0.454  10.051  16.095
  137SBC   C08N96213  -0.414  10.229  15.969
  137SBC   C08M96214  -0.522  10.310  16.017
  137SBC   O00896215  -0.600  10.268  16.104
  137SBC   O00796216  -0.525  10.443  15.982
  137SBC   C08H96217  -0.461  10.485  15.870
  137SBC   C08G96218  -0.492  10.608  15.809
  137SBC   C03V96219  -0.571  10.710  15.855
  137SBC   H00996220  -0.621  10.688  15.948
  137SBC   C03U96221  -0.609  10.823  15.778
  137SBC   C03W96222  -0.699  10.928  15.818
  137SBC   H00A96223  -0.748  10.925  15.914
  137SBC   C03X96224  -0.731  11.028  15.729
  137SBC   H00B96225  -0.804  11.103  15.755
  137SBC   O00596226  -0.684  11.033  15.595
  137SBC   C03O96227  -0.585  10.940  15.567
  137SBC   C03N96228  -0.530  10.944  15.436
  137SBC   O00096229  -0.591  11.034  15.359
  137SBC   C01996230  -0.546  11.041  15.227
  137SBC   C01896231  -0.446  10.951  15.177
  137SBC   C01796232  -0.389  10.859  15.263
  137SBC   C01696233  -0.279  10.780  15.226
  137SBC   C01596234  -0.235  10.803  15.094
  137SBC   C01496235  -0.118  10.744  15.050
  137SBC   C01396236  -0.054  10.645  15.129
  137SBC   C01296237   0.056  10.598  15.042
  137SBC   C01196238   0.054  10.689  14.930
  137SBC   C01096239   0.145  10.680  14.834
  137SBC   C00Z96240   0.124  10.724  14.700
  137SBC   C00Y96241   0.212  10.649  14.621
  137SBC   C01O96242   0.280  10.559  14.696
  137SBC   C01P96243   0.330  10.438  14.641
  137SBC   C02L96244   0.344  10.335  14.729
  137SBC   C02K96245   0.297  10.352  14.862
  137SBC   C01M96246   0.224  10.466  14.911
  137SBC   C02J96247   0.338  10.245  14.949
  137SBC   C02I96248   0.317  10.230  15.084
  137SBC   C02H96249   0.234  10.302  15.174
  137SBC   C01Q96250   0.150  10.413  15.151
  137SBC   C02G96251   0.078  10.429  15.273
  137SBC   C08996252   0.139  10.349  15.374
  137SBC   C08896253   0.051  10.329  15.478
  137SBC   C08796254  -0.050  10.432  15.452
  137SBC   C08696255  -0.160  10.454  15.540
  137SBC   C03S96256  -0.252  10.558  15.529
  137SBC   N00696257  -0.332  10.552  15.640
  137SBC   C08F96258  -0.304  10.443  15.711
  137SBC   C01J96259  -0.277  10.663  15.442
  137SBC   C03R96260  -0.388  10.754  15.475
  137SBC   C03Q96261  -0.453  10.743  15.601
  137SBC   C08E96262  -0.199  10.377  15.654
  137SBC   C08D96263  -0.145  10.259  15.720
  137SBC   C08K96264  -0.223  10.204  15.827
  137SBC   C08C96265  -0.031  10.187  15.676
  137SBC   C09196266  -0.005  10.060  15.731
  137SBC   C09296267  -0.094  10.000  15.826
  137SBC   C08B96268   0.069  10.214  15.575
  137SBC   C09096269   0.149  10.092  15.565
  137SBC   C09496270   0.264  10.078  15.478
  137SBC   C09596271   0.333   9.961  15.465
  137SBC   C09R96272   0.396   9.960  15.343
  137SBC   C09796273   0.355  10.073  15.265
  137SBC   C09696274   0.282  10.147  15.355
  137SBC   C01I96275  -0.035  10.502  15.325
  137SBC   C08A96276   0.219  10.260  15.310
  137SBC   C09L96277   0.379  10.120  15.134
  137SBC   C09K96278   0.439  10.058  15.025
  137SBC   C09J96279   0.497   9.927  15.036
  137SBC   C09I96280   0.498   9.838  14.923
  137SBC   C09O96281   0.497   9.849  14.776
  137SBC   C09N96282   0.462   9.970  14.705
  137SBC   C09M96283   0.421  10.099  14.759
  137SBC   C06O96284   0.469   9.958  14.564
  137SBC   C05M96285   0.495   9.833  14.500
  137SBC   C06P96286   0.513   9.715  14.572
  137SBC   C04296287   0.485   9.819  14.361
  137SBC   C04196288   0.437   9.922  14.285
  137SBC   C04096289   0.422   9.902  14.142
  137SBC   C03Z96290   0.377  10.010  14.064
  137SBC   C03Y96291   0.347  10.134  14.119
  137SBC   C02796292   0.293  10.237  14.038
  137SBC   C02696293   0.256  10.354  14.098
  137SBC   C02896294   0.193  10.450  14.025
  137SBC   C02996295   0.157  10.426  13.891
  137SBC   C02B96296   0.078  10.511  13.819
  137SBC   C02C96297   0.037  10.481  13.693
  137SBC   C02X96298  -0.052  10.559  13.636
  137SBC   C03E96299  -0.102  10.520  13.511
  137SBC   C03G96300  -0.057  10.418  13.439
  137SBC   C04Q96301   0.037  10.339  13.499
  137SBC   C04R96302   0.077  10.224  13.439
  137SBC   C04S96303   0.165  10.136  13.505
  137SBC   C04L96304   0.197  10.165  13.637
  137SBC   C04M96305   0.161  10.280  13.698
  137SBC   C04K96306   0.264  10.070  13.711
  137SBC   C04F96307   0.297   9.944  13.650
  137SBC   C04E96308   0.256   9.920  13.521
  137SBC   C04D96309   0.282   9.793  13.471
  137SBC   C05096310   0.243   9.763  13.341
  137SBC   C05196311   0.265   9.638  13.283
  137SBC   C05Q96312   0.234   9.611  13.151
  137SBC   C05V96313   0.275   9.490  13.097
  137SBC   N00596314   0.245   9.469  12.954
  137SBC   C07V96315   0.178   9.572  12.886
  137SBC   C08296316   0.156   9.548  12.749
  137SBC   C08196317   0.200   9.438  12.677
  137SBC   C07C96318   0.270   9.342  12.750
  137SBC   C07B96319   0.338   9.238  12.680
  137SBC   C08096320   0.342   9.236  12.543
  137SBC   C07Z96321   0.418   9.138  12.485
  137SBC   H00L96322   0.431   9.140  12.378
  137SBC   C07996323   0.477   9.034  12.553
  137SBC   C07896324   0.463   9.029  12.692
  137SBC   C07796325   0.517   8.925  12.767
  137SBC   C07X96326   0.598   8.834  12.697
  137SBC   H00I96327   0.666   8.762  12.739
  137SBC   C07Y96328   0.622   8.848  12.560
  137SBC   H00H96329   0.687   8.771  12.523
  137SBC   C07696330   0.517   8.935  12.906
  137SBC   C06C96331   0.587   8.841  12.980
  137SBC   H00C96332   0.625   8.751  12.935
  137SBC   C06F96333   0.467   9.050  12.970
  137SBC   C06E96334   0.495   9.075  13.104
  137SBC   C06G96335   0.463   9.186  13.176
  137SBC   C06H96336   0.391   9.279  13.102
  137SBC   C06I96337   0.356   9.258  12.970
  137SBC   C06L96338   0.493   9.201  13.311
  137SBC   C06M96339   0.561   9.098  13.389
  137SBC   C06K96340   0.444   9.318  13.377
  137SBC   C05S96341   0.376   9.419  13.299
  137SBC   C05U96342   0.473   9.339  13.509
  137SBC   C05X96343   0.532   9.238  13.591
  137SBC   C05G96344   0.546   9.282  13.727
  137SBC   C05F96345   0.535   9.417  13.763
  137SBC   C05E96346   0.567   9.443  13.899
  137SBC   C04896347   0.528   9.557  13.966
  137SBC   C05696348   0.540   9.561  14.096
  137SBC   C04596349   0.500   9.679  14.162
  137SBC   C04796350   0.471   9.653  13.883
  137SBC   C04996351   0.441   9.630  13.746
  137SBC   C04B96352   0.376   9.725  13.675
  137SBC   C04696353   0.431   9.769  13.945
  137SBC   C04H96354   0.385   9.871  13.864
  137SBC   C05D96355   0.596   9.326  13.960
  137SBC   C04A96356   0.475   9.508  13.686
  137SBC   C05T96357   0.440   9.468  13.560
  137SBC   C05596358   0.367   9.566  13.489
  137SBC   C06D96359   0.560   8.975  13.176
  137SBC   C07W96360   0.405   9.149  12.899
  137SBC   C08596361   0.562   8.944  12.488
  137SBC   H00M96362   0.581   8.960  12.382
  137SBC   C08496363   0.270   9.329  12.473
  137SBC   H00J96364   0.275   9.317  12.366
  137SBC   C07A96365   0.403   9.139  12.758
  137SBC   C08396366   0.188   9.420  12.540
  137SBC   H00K96367   0.117   9.483  12.489
  137SBC   O00K96368   0.084   9.638  12.678
  137SBC   C0GO96369   0.044   9.753  12.734
  137SBC   C0GN96370  -0.036   9.834  12.666
  137SBC   H01L96371  -0.047   9.817  12.560
  137SBC   C0GM96372  -0.073   9.965  12.721
  137SBC   C0GL96373  -0.136  10.054  12.645
  137SBC   H01M96374  -0.146  10.027  12.541
  137SBC   O00J96375  -0.180  10.175  12.685
  137SBC   C0GK96376  -0.157  10.202  12.817
  137SBC   H01N96377  -0.209  10.288  12.855
  137SBC   C05K96378  -0.087  10.113  12.903
  137SBC   C05J96379  -0.063  10.139  13.042
  137SBC   C04Y96380  -0.102  10.250  13.118
  137SBC   C04X96381  -0.064  10.283  13.248
  137SBC   O00696382  -0.188  10.345  13.058
  137SBC   C05396383  -0.241  10.454  13.121
  137SBC   C04O96384  -0.205  10.477  13.254
  137SBC   C03C96385  -0.258  10.578  13.340
  137SBC   C03B96386  -0.348  10.690  13.325
  137SBC   C05496387  -0.396  10.739  13.203
  137SBC   C0GR96388  -0.476  10.853  13.187
  137SBC   C03M96389  -0.524  10.960  13.276
  137SBC   C03I96390  -0.484  10.977  13.413
  137SBC   C03J96391  -0.546  11.087  13.480
  137SBC   N00296392  -0.509  11.116  13.617
  137SBC   C02U96393  -0.573  11.218  13.695
  137SBC   C02T96394  -0.543  11.234  13.830
  137SBC   C02Z96395  -0.628  11.316  13.908
  137SBC   N00196396  -0.610  11.314  14.050
  137SBC   C02R96397  -0.696  11.398  14.128
  137SBC   C03296398  -0.803  11.469  14.067
  137SBC   C03196399  -0.811  11.469  13.928
  137SBC   H00796400  -0.881  11.533  13.877
  137SBC   C03396401  -0.889  11.541  14.153
  137SBC   H00396402  -0.970  11.605  14.121
  137SBC   O00496403  -0.880  11.528  14.296
  137SBC   C03496404  -0.766  11.479  14.345
  137SBC   C03596405  -0.747  11.496  14.483
  137SBC   C03696406  -0.639  11.430  14.545
  137SBC   H00596407  -0.623  11.442  14.651
  137SBC   C03796408  -0.550  11.355  14.467
  137SBC   H00696409  -0.463  11.320  14.521
  137SBC   C00D96410  -0.565  11.340  14.326
  137SBC   C00C96411  -0.481  11.259  14.255
  137SBC   C00B96412  -0.375  11.181  14.313
  137SBC   C00A96413  -0.308  11.143  14.442
  137SBC   C00996414  -0.192  11.077  14.402
  137SBC   C00896415  -0.116  10.976  14.482
  137SBC   C00796416  -0.157  10.955  14.611
  137SBC   C00696417  -0.081  10.869  14.694
  137SBC   C00596418  -0.123  10.859  14.828
  137SBC   C00496419  -0.244  10.917  14.871
  137SBC   C00396420  -0.317  11.000  14.789
  137SBC   C00296421  -0.435  11.053  14.821
  137SBC   C01C96422  -0.475  11.046  14.954
  137SBC   C01B96423  -0.583  11.130  15.003
  137SBC   H00096424  -0.639  11.200  14.942
  137SBC   C00196425  -0.528  11.075  14.728
  137SBC   C00096426  -0.494  11.084  14.593
  137SBC   C01U96427  -0.615  11.061  14.522
  137SBC   H00296428  -0.620  11.057  14.414
  137SBC   C01T96429  -0.726  11.069  14.621
  137SBC   O00296430  -0.848  11.081  14.611
  137SBC   O00196431  -0.664  11.066  14.741
  137SBC   C01S96432  -0.276  11.013  14.658
  137SBC   C00N96433  -0.031  10.896  14.416
  137SBC   C00M96434  -0.017  10.899  14.276
  137SBC   C00J96435  -0.097  10.980  14.203
  137SBC   C00I96436  -0.121  10.968  14.067
  137SBC   C00H96437  -0.220  11.041  14.001
  137SBC   C00G96438  -0.302  11.126  14.075
  137SBC   C00F96439  -0.416  11.186  14.026
  137SBC   C01X96440  -0.257  11.011  13.871
  137SBC   C01W96441  -0.203  10.899  13.810
  137SBC   C01V96442  -0.100  10.831  13.874
  137SBC   C02096443  -0.054  10.713  13.818
  137SBC   C01Z96444  -0.257  10.862  13.690
  137SBC   C02Y96445  -0.201  10.746  13.644
  137SBC   C03996446  -0.259  10.701  13.525
  137SBC   C02W96447  -0.358  10.931  13.625
  137SBC   C01Y96448  -0.365  11.078  13.817
  137SBC   C00U96449  -0.055  10.862  13.999
  137SBC   C00S96450   0.029  10.779  14.070
  137SBC   C00T96451   0.073  10.663  14.008
  137SBC   C00R96452   0.047  10.798  14.208
  137SBC   C00Q96453   0.115  10.703  14.279
  137SBC   C00V96454   0.177  10.591  14.215
  137SBC   C02496455   0.242  10.492  14.288
  137SBC   C00X96456   0.262  10.514  14.426
  137SBC   C00P96457   0.121  10.718  14.414
  137SBC   C00O96458   0.042  10.803  14.488
  137SBC   C00K96459  -0.171  11.080  14.265
  137SBC   N00096460  -0.360  11.079  14.560
  137SBC   C00L96461  -0.281  11.135  14.213
  137SBC   H00496462  -0.830  11.538  14.537
  137SBC   C02Q96463  -0.671  11.405  14.263
  137SBC   C00E96464  -0.501  11.249  14.118
  137SBC   C03096465  -0.728  11.389  13.849
  137SBC   O00396466  -0.747  11.386  13.716
  137SBC   C02S96467  -0.440  11.165  13.890
  137SBC   C03896468  -0.677  11.290  13.641
  137SBC   C03L96469  -0.708  11.274  13.503
  137SBC   H00896470  -0.788  11.331  13.458
  137SBC   C02V96471  -0.408  11.043  13.685
  137SBC   C03K96472  -0.637  11.180  13.426
  137SBC   C0BK96473  -0.662  11.154  13.294
  137SBC   H00T96474  -0.730  11.228  13.255
  137SBC   C03H96475  -0.400  10.895  13.493
  137SBC   C0BL96476  -0.610  11.052  13.215
  137SBC   C0GU96477  -0.642  11.038  13.077
  137SBC   H01O96478  -0.714  11.104  13.032
  137SBC   C0GT96479  -0.591  10.944  12.987
  137SBC   H01P96480  -0.605  10.933  12.881
  137SBC   C0GS96481  -0.504  10.857  13.047
  137SBC   C0GV96482  -0.440  10.744  12.985
  137SBC   C0GW96483  -0.432  10.710  12.842
  137SBC   H01Q96484  -0.487  10.767  12.769
  137SBC   C0GX96485  -0.367  10.594  12.818
  137SBC   H01R96486  -0.359  10.544  12.723
  137SBC   O00L96487  -0.311  10.508  12.913
  137SBC   C0GQ96488  -0.379  10.667  13.083
  137SBC   C03A96489  -0.354  10.766  13.446
  137SBC   C05L96490  -0.315  10.547  13.042
  137SBC   C04W96491   0.016  10.046  13.117
  137SBC   C05I96492   0.068   9.933  13.059
  137SBC   C05O96493   0.034   9.902  12.934
  137SBC   C05296494   0.134   9.834  13.133
  137SBC   C04V96495   0.064  10.081  13.245
  137SBC   C04U96496   0.148   9.986  13.315
  137SBC   N00996497  -0.036   9.996  12.853
  137SBC   C0GP96498   0.073   9.781  12.871
  137SBC   C05W96499   0.142   9.688  12.942
  137SBC   C07D96500   0.290   9.352  12.891
  137SBC   C06J96501   0.351   9.395  13.162
  137SBC   C05P96502   0.167   9.709  13.078
  137SBC   C05R96503   0.329   9.538  13.357
  137SBC   C04Z96504   0.173   9.862  13.266
  137SBC   C04C96505   0.350   9.699  13.544
  137SBC   C04G96506   0.357   9.851  13.731
  137SBC   C04J96507   0.302  10.095  13.842
  137SBC   C04T96508   0.192  10.014  13.442
  137SBC   N00396509   0.021  10.193  13.312
  137SBC   C04P96510  -0.110  10.394  13.318
  137SBC   C03D96511  -0.210  10.590  13.462
  137SBC   C02196512  -0.102  10.672  13.701
  137SBC   C03F96513   0.085  10.366  13.626
  137SBC   C02296514   0.040  10.631  13.880
  137SBC   C02A96515   0.194  10.311  13.830
  137SBC   C02396516   0.157  10.575  14.079
  137SBC   C02596517   0.278  10.370  14.233
  137SBC   C02D96518   0.335  10.270  14.314
  137SBC   C02E96519   0.357  10.291  14.451
  137SBC   C02N96520   0.391  10.187  14.538
  137SBC   C04N96521   0.268  10.216  13.902
  137SBC   C02P96522   0.367  10.148  14.258
  137SBC   C04I96523   0.356   9.994  13.922
  137SBC   C04496524   0.451   9.784  14.084
  137SBC   C04396525   0.414  10.045  14.345
  137SBC   C05N96526   0.431  10.065  14.483
  137SBC   C09U96527   0.511   9.723  14.708
  137SBC   C09V96528   0.519   9.601  14.781
  137SBC   C09X96529   0.510   9.585  14.917
  137SBC   C09Y96530   0.506   9.472  14.990
  137SBC   C0A196531   0.532   9.356  14.925
  137SBC   C0A296532   0.551   9.360  14.786
  137SBC   C0A496533   0.590   9.241  14.728
  137SBC   C07196534   0.622   9.243  14.594
  137SBC   C0A596535   0.671   9.130  14.534
  137SBC   C0A996536   0.700   9.022  14.610
  137SBC   C0A896537   0.679   9.028  14.745
  137SBC   C0AP96538   0.713   8.918  14.822
  137SBC   C0BY96539   0.666   8.916  14.952
  137SBC   C0BX96540   0.594   9.013  15.016
  137SBC   C0C296541   0.552   9.001  15.149
  137SBC   C0C396542   0.507   9.113  15.211
  137SBC   C0CT96543   0.506   9.237  15.140
  137SBC   C0C196544   0.560   8.881  15.214
  137SBC   C0C096545   0.650   8.780  15.158
  137SBC   C0A796546   0.584   9.127  14.941
  137SBC   C0BZ96547   0.699   8.806  15.030
  137SBC   C0BO96548   0.770   8.702  14.972
  137SBC   C0BN96549   0.801   8.697  14.837
  137SBC   C0BM96550   0.852   8.575  14.791
  137SBC   C0B996551   0.868   8.565  14.657
  137SBC   C0B896552   0.846   8.678  14.579
  137SBC   C0AD96553   0.798   8.800  14.629
  137SBC   C0AF96554   0.853   8.665  14.442
  137SBC   C0AG96555   0.886   8.544  14.375
  137SBC   C0B796556   0.913   8.435  14.457
  137SBC   C0AE96557   0.810   8.774  14.368
  137SBC   C0AB96558   0.759   8.889  14.422
  137SBC   C0AA96559   0.712   8.993  14.342
  137SBC   C0AJ96560   0.798   8.755  14.234
  137SBC   C0AK96561   0.743   8.856  14.157
  137SBC   C06W96562   0.730   8.804  14.035
  137SBC   C0AI96563   0.826   8.640  14.160
  137SBC   C0BP96564   0.765   8.594  15.055
  137SBC   C0BQ96565   0.817   8.467  15.006
  137SBC   C0BW96566   0.772   8.806  14.763
  137SBC   C0AC96567   0.756   8.907  14.555
  137SBC   C0A696568   0.617   9.133  14.805
  137SBC   C0A396569   0.542   9.245  15.001
  137SBC   C09Z96570   0.493   9.470  15.133
  137SBC   C09W96571   0.547   9.479  14.712
  137SBC   C07296572   0.564   9.475  14.581
  137SBC   C09H96573   0.501   9.709  14.977
  137SBC   C09G96574   0.507   9.710  15.113
  137SBC   C09P96575   0.499   9.842  15.152
  137SBC   C02O96576   0.410  10.129  14.903
  137SBC   C02M96577   0.389  10.210  14.679
  137SBC   C02F96578   0.325  10.417  14.507
  137SBC   C00W96579   0.199  10.627  14.480
  137SBC   C01R96580   0.024  10.800  14.629
  137SBC   C01N96581   0.231  10.576  14.824
  137SBC   C01L96582   0.144  10.484  15.036
  137SBC   C01H96583  -0.107  10.608  15.259
  137SBC   C01K96584  -0.060  10.770  14.922
  137SBC   C01E96585  -0.288  10.893  15.005
  137SBC   C01G96586  -0.217  10.686  15.315
  137SBC   C01D96587  -0.403  10.965  15.045
  137SBC   C01A96588  -0.609  11.128  15.140
  137SBC   H00196589  -0.677  11.198  15.188
  137SBC   C01F96590  -0.432  10.857  15.392
  137SBC   C03P96591  -0.544  10.837  15.649
  137SBC   C03T96592  -0.432  10.637  15.683
  137SBC   C08I96593  -0.364  10.402  15.819
  137SBC   C08J96594  -0.328  10.281  15.876
  137SBC   C08L96595  -0.194  10.081  15.877
  137SBC   C09396596  -0.058   9.865  15.865
  137SBC   C08Z96597   0.106   9.999  15.671
  137SBC   C09T96598   0.273   9.561  15.724
  137SBC   C09S96599   0.341   9.853  15.549
  137SBC   C09Q96600   0.455   9.851  15.284
  137SBC   C09F96601   0.500   9.592  15.197
  137SBC   C09E96602   0.415   9.522  15.541
  137SBC   C0A096603   0.475   9.355  15.203
  137SBC   C0CU96604   0.453   9.107  15.341
  137SBC   C0CR96605   0.444   8.980  15.403
  137SBC   C0CZ96606   0.393   8.971  15.538
  137SBC   C0DA96607   0.336   9.455  15.638
  137SBC   C0D996608   0.424   9.249  15.884
  137SBC   H00V96609   0.488   9.334  15.905
  137SBC   C0CY96610   0.363   9.091  15.608
  137SBC   C0DF96611   0.438   9.116  15.933
  137SBC   C0DE96612   0.536   9.030  15.996
  137SBC   C0GI96613   0.624   9.060  16.105
  137SBC   H01K96614   0.639   9.161  16.139
  137SBC   C0GJ96615   0.694   8.952  16.152
  137SBC   H01J96616   0.764   8.962  16.234
  137SBC   O00I96617   0.667   8.818  16.114
  137SBC   C0GH96618   0.590   8.790  16.005
  137SBC   C0GG96619   0.608   8.656  15.960
  137SBC   O00G96620   0.677   8.570  16.038
  137SBC   C0G896621   0.708   8.446  15.996
  137SBC   C0G996622   0.737   8.363  16.100
  137SBC   H01G96623   0.729   8.400  16.201
  137SBC   C0GA96624   0.782   8.237  16.066
  137SBC   H01H96625   0.806   8.170  16.147
  137SBC   C0GB96626   0.818   8.202  15.936
  137SBC   C0EP96627   0.787   8.294  15.831
  137SBC   C0E896628   0.826   8.267  15.692
  137SBC   C0CK96629   0.799   8.322  15.563
  137SBC   C0CL96630   0.671   8.369  15.537
  137SBC   C0E996631   0.609   8.454  15.639
  137SBC   C0GE96632   0.635   8.493  15.781
  137SBC   C0E796633   0.901   8.153  15.664
  137SBC   C0CJ96634   0.933   8.133  15.533
  137SBC   C0E696635   1.020   8.025  15.503
  137SBC   H00Y96636   1.061   8.003  15.406
  137SBC   C0EO96637   1.041   7.927  15.601
  137SBC   H01196638   1.105   7.845  15.573
  137SBC   C0G696639   0.992   7.943  15.735
  137SBC   C0G596640   1.013   7.843  15.839
  137SBC   H01F96641   1.067   7.752  15.817
  137SBC   C0GD96642   0.964   7.863  15.962
  137SBC   H01I96643   0.960   7.787  16.038
  137SBC   O00H96644   0.910   7.989  16.003
  137SBC   C0EQ96645   0.925   8.061  15.770
  137SBC   C0GC96646   0.882   8.082  15.903
  137SBC   C0G796647   0.718   8.411  15.858
  137SBC   C0DD96648   0.527   8.897  15.947
  137SBC   C0GF96649   0.575   8.616  15.826
  137SBC   C0CO96650   0.511   8.517  15.563
  137SBC   C0D096651   0.405   8.845  15.600
  137SBC   C0C496652   0.492   8.864  15.337
  137SBC   C0CN96653   0.510   8.483  15.425
  137SBC   C0CP96654   0.698   8.643  15.173
  137SBC   C0CM96655   0.615   8.387  15.401
  137SBC   C0CI96656   0.860   8.234  15.457
  137SBC   C0CD96657   0.911   7.997  15.046
  137SBC   C0BR96658   0.824   8.352  15.091
  137SBC   C0CS96659   0.868   8.465  14.874
  137SBC   C0B696660   0.912   8.445  14.597
  137SBC   C0CG96661   0.951   8.110  14.838
  137SBC   C0CF96662   0.951   7.991  14.914
  137SBC   C0E596663   0.941   7.754  15.064
  137SBC   C0DT96664   0.985   7.519  14.948
  137SBC   C0DL96665   1.045   7.738  14.659
  137SBC   C0DM96666   1.067   7.730  14.522
  137SBC   C0DY96667   1.059   7.490  14.534
  137SBC   C0DU96668   0.985   7.401  14.876
  137SBC   C0F096669   0.965   7.157  14.892
  137SBC   C0F496670   0.988   6.906  14.784
  137SBC   C0FG96671   1.011   7.130  14.501
  137SBC   O00B96672   1.024   6.783  14.570
  137SBC   C0FN96673   1.051   7.101  14.383
  137SBC   C0DZ96674   1.060   7.362  14.469
  137SBC   O00C96675   1.133   7.471  14.126
  137SBC   C0FR96676   1.106   7.565  14.046
  137SBC   O00D96677   1.113   7.527  13.930
  137SBC   C0E096678   1.081   7.604  14.465
  137SBC   C0E396679   1.094   7.697  14.104
  137SBC   C0AW96680   1.082   7.811  14.025
  137SBC   C0AV96681   1.073   7.807  13.884
  137SBC   H00Q96682   1.093   7.717  13.829
  137SBC   C0AU96683   1.025   7.917  13.812
  137SBC   H00R96684   1.015   7.920  13.705
  137SBC   C0AT96685   1.014   8.034  13.881
  137SBC   C0AS96686   0.983   8.175  13.848
  137SBC   C0AR96687   0.977   8.217  13.712
  137SBC   C0BE96688   1.024   8.035  14.016
  137SBC   C0DN96689   1.068   7.846  14.446
  137SBC   C0AX96690   1.057   7.924  14.094
  137SBC   C0BB96691   1.016   8.086  14.426
  137SBC   C0BD96692   1.000   8.164  14.067
  137SBC   C0B296693   0.951   8.319  14.397
  137SBC   C0AH96694   0.888   8.530  14.230
  137SBC   C0BF96695   0.961   8.259  13.968
  137SBC   C0AL96696   0.795   8.681  14.024
  137SBC   C07U96697   0.876   8.454  13.754
  137SBC   C0AQ96698   0.913   8.342  13.677
  137SBC   C0BG96699   0.985   8.135  13.592
  137SBC   C0FY96700   1.013   8.274  13.267
  137SBC   C0BJ96701   1.100   8.063  13.529
  137SBC   H00S96702   1.181   8.007  13.574
  137SBC   C0FZ96703   1.112   8.217  13.196
  137SBC   C07S96704   0.965   8.406  13.248
  137SBC   C0G196705   1.126   8.441  12.928
  137SBC   C07K96706   0.958   8.768  12.927
  137SBC   C07H96707   0.891   8.670  13.192
  137SBC   C06B96708   0.612   8.869  13.113
  137SBC   C06N96709   0.610   8.990  13.305
  137SBC   C06696710   0.811   8.685  13.442
  137SBC   C06296711   0.714   8.799  13.721
  137SBC   C05Y96712   0.564   9.105  13.534
  137SBC   C06196713   0.636   8.871  13.815
  137SBC   C05H96714   0.592   9.225  13.854
  137SBC   C06V96715   0.673   8.895  13.948
  137SBC   C06Y96716   0.704   8.985  14.208
  137SBC   C05C96717   0.613   9.330  14.105
  137SBC   C06Z96718   0.677   9.112  14.397
  137SBC   C07096719   0.603   9.353  14.520
  137SBC   C05B96720   0.580   9.453  14.170
  137SBC   C05796721   0.517   9.693  14.300
  137SBC   C05996722   0.539   9.592  14.505
  138SBC   C05896723  10.792   1.505  13.075
  138SBC   C05A96724  10.878   1.524  12.966
  138SBC   C06Q96725  10.833   1.520  12.834
  138SBC   C06R96726  10.919   1.542  12.725
  138SBC   C06S96727  11.058   1.573  12.743
  138SBC   C06T96728  11.136   1.599  12.628
  138SBC   C06U96729  11.272   1.665  12.618
  138SBC   C06X96730  11.363   1.701  12.717
  138SBC   C06096731  11.477   1.764  12.648
  138SBC   C05Z96732  11.621   1.766  12.672
  138SBC   C06896733  11.682   1.745  12.540
  138SBC   C06796734  11.830   1.724  12.507
  138SBC   C06996735  11.932   1.737  12.608
  138SBC   C06A96736  12.074   1.711  12.599
  138SBC   C07396737  12.146   1.628  12.518
  138SBC   C07P96738  12.229   1.524  12.582
  138SBC   C07O96739  12.227   1.485  12.721
  138SBC   H00D96740  12.160   1.520  12.797
  138SBC   C07N96741  12.305   1.386  12.769
  138SBC   H00E96742  12.304   1.361  12.874
  138SBC   C07M96743  12.396   1.324  12.686
  138SBC   H00F96744  12.468   1.252  12.721
  138SBC   C07L96745  12.396   1.347  12.544
  138SBC   C07Q96746  12.481   1.283  12.455
  138SBC   H00G96747  12.554   1.210  12.486
  138SBC   O00F96748  12.472   1.303  12.317
  138SBC   C07J96749  12.392   1.402  12.268
  138SBC   C07I96750  12.303   1.475  12.357
  138SBC   N00496751  12.215   1.570  12.304
  138SBC   C07R96752  12.223   1.595  12.159
  138SBC   C07T96753  12.315   1.522  12.081
  138SBC   C0FX96754  12.315   1.525  11.940
  138SBC   C0FW96755  12.370   1.429  11.857
  138SBC   C0G096756  12.466   1.345  11.922
  138SBC   C0G296757  12.532   1.253  11.841
  138SBC   H01E96758  12.622   1.207  11.880
  138SBC   C0G396759  12.495   1.240  11.704
  138SBC   H01C96760  12.558   1.176  11.644
  138SBC   C0G496761  12.399   1.317  11.645
  138SBC   H01D96762  12.378   1.311  11.539
  138SBC   O00E96763  12.482   1.347  12.059
  138SBC   C0FV96764  12.337   1.425  11.720
  138SBC   C0FU96765  12.242   1.518  11.670
  138SBC   H01B96766  12.205   1.516  11.568
  138SBC   C0FT96767  12.193   1.621  11.748
  138SBC   C0FS96768  12.074   1.713  11.751
  138SBC   C0BI96769  12.071   1.782  11.874
  138SBC   C0BH96770  11.938   1.836  11.892
  138SBC   C07F96771  11.860   1.794  12.006
  138SBC   C07E96772  11.901   1.774  12.139
  138SBC   C07G96773  12.025   1.736  12.182
  138SBC   C07496774  12.015   1.706  12.314
  138SBC   C06596775  11.811   1.751  12.244
  138SBC   C06496776  11.674   1.751  12.204
  138SBC   C06396777  11.567   1.731  12.289
  138SBC   C07596778  11.449   1.716  12.198
  138SBC   C0AM96779  11.485   1.729  12.054
  138SBC   C0AN96780  11.396   1.741  11.935
  138SBC   C0AO96781  11.245   1.715  11.925
  138SBC   C0B196782  11.175   1.736  11.803
  138SBC   C0B096783  11.243   1.758  11.680
  138SBC   C0AZ96784  11.187   1.788  11.555
  138SBC   C0AY96785  11.269   1.810  11.444
  138SBC   N00796786  11.216   1.829  11.320
  138SBC   C0E296787  11.300   1.853  11.207
  138SBC   C0E196788  11.235   1.864  11.086
  138SBC   C0E496789  11.320   1.903  10.973
  138SBC   C0FF96790  11.266   1.912  10.843
  138SBC   C0FJ96791  11.319   1.972  10.723
  138SBC   C0FK96792  11.418   2.075  10.728
  138SBC   H01696793  11.482   2.116  10.805
  138SBC   C0FL96794  11.391   2.145  10.600
  138SBC   H01796795  11.441   2.231  10.558
  138SBC   C0FM96796  11.282   2.082  10.526
  138SBC   C0FH96797  11.173   2.098  10.430
  138SBC   C0FI96798  11.071   2.015  10.490
  138SBC   C0F396799  10.937   2.039  10.488
  138SBC   C0F296800  10.871   1.975  10.588
  138SBC   C0DW96801  10.926   1.923  10.705
  138SBC   C0FE96802  11.061   1.899  10.710
  138SBC   C0DV96803  10.843   1.899  10.812
  138SBC   C0DX96804  10.899   1.865  10.931
  138SBC   C0DK96805  10.818   1.850  11.042
  138SBC   C0DJ96806  10.679   1.873  11.037
  138SBC   C0DI96807  10.602   1.868  11.150
  138SBC   C0DH96808  10.659   1.839  11.272
  138SBC   C0DG96809  10.795   1.820  11.284
  138SBC   C0BV96810  10.857   1.796  11.409
  138SBC   C0BC96811  10.994   1.800  11.424
  138SBC   C0BA96812  10.777   1.785  11.522
  138SBC   C0B496813  10.832   1.754  11.644
  138SBC   C0B396814  10.971   1.757  11.662
  138SBC   C0B596815  10.752   1.724  11.750
  138SBC   C0BU96816  10.610   1.728  11.738
  138SBC   C0BT96817  10.553   1.764  11.616
  138SBC   C0BS96818  10.411   1.781  11.607
  138SBC   C0CC96819  10.358   1.820  11.485
  138SBC   C0CB96820  10.220   1.852  11.475
  138SBC   C0CH96821  10.171   1.840  11.343
  138SBC   C0DO96822  10.246   1.872  11.233
  138SBC   C0DP96823  10.191   1.930  11.113
  138SBC   C0EA96824  10.051   1.969  11.104
  138SBC   H01296825   9.982   1.955  11.186
  138SBC   O00996826   9.992   2.031  10.996
  138SBC   C0EH96827  10.080   2.065  10.897
  138SBC   C0EG96828  10.034   2.134  10.788
  138SBC   C0EJ96829   9.907   2.206  10.771
  138SBC   H01096830   9.823   2.214  10.838
  138SBC   C0EK96831   9.908   2.274  10.645
  138SBC   H00Z96832   9.836   2.335  10.593
  138SBC   C0EL96833  10.043   2.250  10.592
  138SBC   C0EM96834  10.108   2.311  10.477
  138SBC   C0EW96835  10.053   2.397  10.374
  138SBC   H01396836   9.952   2.432  10.367
  138SBC   C0EX96837  10.149   2.447  10.270
  138SBC   H01496838  10.113   2.515  10.194
  138SBC   C0F196839  10.287   2.402  10.272
  138SBC   C0EU96840  10.328   2.307  10.371
  138SBC   C0ET96841  10.464   2.260  10.385
  138SBC   C0ES96842  10.446   2.181  10.505
  138SBC   C0EE96843  10.316   2.191  10.561
  138SBC   C0ED96844  10.245   2.140  10.671
  138SBC   C0EC96845  10.300   2.060  10.780
  138SBC   C0EB96846  10.435   2.013  10.788
  138SBC   C0EN96847  10.529   2.030  10.675
  138SBC   C0ER96848  10.653   1.970  10.695
  138SBC   C0DS96849  10.488   1.947  10.902
  138SBC   C0DR96850  10.406   1.926  11.012
  138SBC   C0EY96851  10.541   2.100  10.552
  138SBC   C0EZ96852  10.674   2.090  10.491
  138SBC   C0F596853  10.754   2.161  10.393
  138SBC   C0F696854  10.703   2.253  10.300
  138SBC   N00896855  10.798   2.311  10.207
  138SBC   C0F796856  10.941   2.288  10.222
  138SBC   C0FQ96857  11.025   2.340  10.127
  138SBC   H01896858  11.129   2.315  10.140
  138SBC   C0FP96859  10.980   2.412  10.017
  138SBC   H01996860  11.045   2.451   9.939
  138SBC   C0FO96861  10.844   2.439  10.013
  138SBC   H01A96862  10.805   2.484   9.923
  138SBC   C0F896863  10.981   2.199  10.326
  138SBC   C0F996864  10.750   2.397  10.105
  138SBC   C0FA96865  10.615   2.436  10.093
  138SBC   H01596866  10.577   2.505  10.019
  138SBC   C0FB96867  10.523   2.391  10.197
  138SBC   C0FD96868  10.564   2.298  10.290
  138SBC   C0FC96869  10.389   2.447  10.184
  138SBC   O00A96870  10.359   2.537  10.104
  138SBC   C0EV96871  10.245   2.271  10.474
  138SBC   C0EF96872  10.111   2.172  10.685
  138SBC   C0EI96873  10.221   2.029  10.896
  138SBC   C0DQ96874  10.271   1.957  11.006
  138SBC   C0CE96875  10.379   1.864  11.246
  138SBC   H00U96876  10.063   1.845  11.339
  138SBC   C0CA96877  10.149   1.875  11.591
  138SBC   C0C996878  10.197   1.830  11.718
  138SBC   C0C896879  10.121   1.851  11.839
  138SBC   C0C796880  10.108   1.769  11.957
  138SBC   C0C696881  10.018   1.816  12.049
  138SBC   C0C596882   9.926   1.747  12.139
  138SBC   C0CQ96883   9.797   1.794  12.154
  138SBC   C0D196884   9.751   1.873  12.059
  138SBC   C0D896885   9.626   1.830  12.018
  138SBC   C0D796886   9.585   1.724  12.100
  138SBC   C0D696887   9.453   1.696  12.140
  138SBC   C0D596888   9.432   1.642  12.272
  138SBC   C0D496889   9.500   1.552  12.363
  138SBC   C0D396890   9.448   1.571  12.494
  138SBC   C0CX96891   9.556   1.550  12.595
  138SBC   C0CW96892   9.681   1.539  12.522
  138SBC   C0CV96893   9.819   1.507  12.552
  138SBC   C0D296894   9.866   1.461  12.675
  138SBC   C09D96895   9.787   1.416  12.788
  138SBC   C09C96896   9.847   1.380  12.910
  138SBC   C09B96897   9.789   1.361  13.037
  138SBC   C09A96898   9.649   1.377  13.030
  138SBC   C09996899   9.576   1.383  12.911
  138SBC   C09896900   9.452   1.446  12.939
  138SBC   C08Y96901   9.455   1.491  13.078
  138SBC   C08X96902   9.365   1.576  13.148
  138SBC   C08W96903   9.251   1.642  13.077
  138SBC   C08U96904   9.216   1.626  12.936
  138SBC   C08V96905   9.283   1.575  12.821
  138SBC   C0DC96906   9.189   1.566  12.717
  138SBC   H00W96907   9.206   1.507  12.628
  138SBC   C0DB96908   9.070   1.644  12.751
  138SBC   H00X96909   8.991   1.665  12.681
  138SBC   C08T96910   9.092   1.678  12.890
  138SBC   C08S96911   9.008   1.756  12.964
  138SBC   H00N96912   8.927   1.809  12.916
  138SBC   C08R96913   9.049   1.785  13.091
  138SBC   C08Q96914   8.980   1.882  13.164
  138SBC   H00O96915   8.892   1.920  13.115
  138SBC   C08P96916   8.998   1.922  13.297
  138SBC   C08O96917   8.923   2.014  13.370
  138SBC   H00P96918   8.833   2.056  13.327
  138SBC   C08N96919   8.964   2.050  13.504
  138SBC   C08M96920   8.886   2.148  13.579
  138SBC   O00896921   8.786   2.205  13.544
  138SBC   O00796922   8.929   2.173  13.707
  138SBC   C08H96923   9.044   2.120  13.760
  138SBC   C08G96924   9.087   2.152  13.891
  138SBC   C03V96925   9.026   2.242  13.984
  138SBC   H00996926   8.935   2.287  13.950
  138SBC   C03U96927   9.084   2.284  14.104
  138SBC   C03W96928   9.034   2.388  14.186
  138SBC   H00A96929   8.950   2.443  14.147
  138SBC   C03X96930   9.099   2.418  14.300
  138SBC   H00B96931   9.075   2.507  14.356
  138SBC   O00596932   9.202   2.341  14.345
  138SBC   C03O96933   9.253   2.242  14.271
  138SBC   C03N96934   9.359   2.164  14.319
  138SBC   O00096935   9.405   2.188  14.441
  138SBC   C01996936   9.514   2.131  14.492
  138SBC   C01896937   9.592   2.051  14.403
  138SBC   C01796938   9.538   2.009  14.280
  138SBC   C01696939   9.608   1.919  14.201
  138SBC   C01596940   9.727   1.874  14.254
  138SBC   C01496941   9.799   1.782  14.176
  138SBC   C01396942   9.758   1.737  14.040
  138SBC   C01296943   9.875   1.660  13.995
  138SBC   C01196944   9.965   1.655  14.107
  138SBC   C01096945  10.081   1.581  14.100
  138SBC   C00Z96946  10.189   1.596  14.180
  138SBC   C00Y96947  10.290   1.541  14.102
  138SBC   C01O96948  10.253   1.503  13.981
  138SBC   C01P96949  10.334   1.488  13.869
  138SBC   C02L96950  10.269   1.480  13.748
  138SBC   C02K96951  10.127   1.495  13.748
  138SBC   C01M96952  10.042   1.540  13.861
  138SBC   C02J96953  10.070   1.460  13.621
  138SBC   C02I96954   9.937   1.462  13.586
  138SBC   C02H96955   9.822   1.514  13.657
  138SBC   C01Q96956   9.807   1.572  13.783
  138SBC   C02G96957   9.676   1.621  13.793
  138SBC   C08996958   9.603   1.565  13.687
  138SBC   C08896959   9.504   1.649  13.642
  138SBC   C08796960   9.492   1.735  13.763
  138SBC   C08696961   9.391   1.831  13.782
  138SBC   C03S96962   9.372   1.919  13.899
  138SBC   N00696963   9.264   1.997  13.867
  138SBC   C08F96964   9.218   1.967  13.746
  138SBC   C01J96965   9.434   1.938  14.023
  138SBC   C03R96966   9.369   2.031  14.108
  138SBC   C03Q96967   9.255   2.103  14.067
  138SBC   C08E96968   9.296   1.873  13.681
  138SBC   C08D96969   9.264   1.824  13.552
  138SBC   C08K96970   9.147   1.885  13.489
  138SBC   C08C96971   9.331   1.724  13.482
  138SBC   C09196972   9.290   1.696  13.348
  138SBC   C09296973   9.179   1.759  13.285
  138SBC   C08B96974   9.444   1.643  13.509
  138SBC   C09096975   9.463   1.561  13.389
  138SBC   C09496976   9.582   1.482  13.371
  138SBC   C09596977   9.633   1.430  13.255
  138SBC   C09R96978   9.768   1.398  13.268
  138SBC   C09796979   9.800   1.425  13.398
  138SBC   C09696980   9.685   1.467  13.470
  138SBC   C01I96981   9.595   1.714  13.867
  138SBC   C08A96982   9.696   1.509  13.602
  138SBC   C09L96983   9.929   1.410  13.459
  138SBC   C09K96984  10.056   1.375  13.413
  138SBC   C09J96985  10.083   1.341  13.272
  138SBC   C09I96986  10.207   1.376  13.208
  138SBC   C09O96987  10.345   1.416  13.248
  138SBC   C09N96988  10.384   1.436  13.383
  138SBC   C09M96989  10.299   1.438  13.503
  138SBC   C06O96990  10.525   1.462  13.402
  138SBC   C05M96991  10.613   1.476  13.297
  138SBC   C06P96992  10.569   1.464  13.166
  138SBC   C04296993  10.745   1.508  13.315
  138SBC   C04196994  10.795   1.525  13.448
  138SBC   C04096995  10.931   1.563  13.465
  138SBC   C03Z96996  10.981   1.596  13.593
  138SBC   C03Y96997  10.893   1.585  13.704
  138SBC   C02796998  10.943   1.627  13.833
  138SBC   C02696999  10.857   1.618  13.940
  138SBC   C02897000  10.907   1.659  14.068
  138SBC   C02997001  11.035   1.715  14.078
  138SBC   C02B97002  11.069   1.779  14.202
  138SBC   C02C97003  11.190   1.846  14.209
  138SBC   C02X97004  11.215   1.918  14.326
  138SBC   C03E97005  11.326   2.001  14.321
  138SBC   C03G97006  11.400   2.030  14.210
  138SBC   C04Q97007  11.383   1.949  14.100
  138SBC   C04R97008  11.461   1.964  13.986
  138SBC   C04S97009  11.425   1.905  13.869
  138SBC   C04L97010  11.311   1.828  13.863
  138SBC   C04M97011  11.233   1.810  13.969
  138SBC   C04K97012  11.278   1.760  13.748
  138SBC   C04F97013  11.368   1.769  13.639
  138SBC   C04E97014  11.478   1.848  13.642
  138SBC   C04D97015  11.557   1.865  13.531
  138SBC   C05097016  11.675   1.940  13.537
  138SBC   C05197017  11.757   1.955  13.426
  138SBC   C05Q97018  11.870   2.039  13.431
  138SBC   C05V97019  11.952   2.038  13.323
  138SBC   N00597020  12.075   2.114  13.327
  138SBC   C07V97021  12.093   2.198  13.437
  138SBC   C08297022  12.209   2.279  13.442
  138SBC   C08197023  12.304   2.276  13.343
  138SBC   C07C97024  12.289   2.186  13.235
  138SBC   C07B97025  12.386   2.182  13.128
  138SBC   C08097026  12.502   2.257  13.133
  138SBC   C07Z97027  12.608   2.227  13.043
  138SBC   H00L97028  12.701   2.281  13.058
  138SBC   C07997029  12.591   2.132  12.938
  138SBC   C07897030  12.469   2.061  12.930
  138SBC   C07797031  12.443   1.975  12.823
  138SBC   C07X97032  12.548   1.953  12.725
  138SBC   H00I97033  12.542   1.885  12.641
  138SBC   C07Y97034  12.669   2.023  12.733
  138SBC   H00H97035  12.737   2.018  12.649
  138SBC   C07697036  12.317   1.915  12.816
  138SBC   C06C97037  12.281   1.831  12.706
  138SBC   H00C97038  12.345   1.805  12.623
  138SBC   C06F97039  12.216   1.948  12.907
  138SBC   C06E97040  12.085   1.899  12.896
  138SBC   C06G97041  11.983   1.909  12.986
  138SBC   C06H97042  12.018   1.969  13.108
  138SBC   C06I97043  12.145   2.028  13.119
  138SBC   C06L97044  11.851   1.863  12.959
  138SBC   C06M97045  11.810   1.810  12.831
  138SBC   C06K97046  11.764   1.853  13.066
  138SBC   C05S97047  11.804   1.908  13.191
  138SBC   C05U97048  11.641   1.791  13.053
  138SBC   C05X97049  11.588   1.755  12.922
  138SBC   C05G97050  11.455   1.703  12.938
  138SBC   C05F97051  11.394   1.676  13.060
  138SBC   C05E97052  11.271   1.623  13.042
  138SBC   C04897053  11.187   1.597  13.149
  138SBC   C05697054  11.057   1.558  13.123
  138SBC   C04597055  10.977   1.541  13.232
  138SBC   C04797056  11.237   1.630  13.270
  138SBC   C04997057  11.362   1.690  13.283
  138SBC   C04B97058  11.403   1.743  13.404
  138SBC   C04697059  11.153   1.621  13.377
  138SBC   C04H97060  11.196   1.659  13.504
  138SBC   C05D97061  11.233   1.614  12.908
  138SBC   C04A97062  11.444   1.716  13.180
  138SBC   C05T97063  11.569   1.775  13.170
  138SBC   C05597064  11.612   1.823  13.292
  138SBC   C06D97065  12.050   1.823  12.782
  138SBC   C07W97066  12.244   2.021  13.019
  138SBC   C08597067  12.686   2.113  12.839
  138SBC   H00M97068  12.774   2.175  12.839
  138SBC   C08497069  12.514   2.343  13.243
  138SBC   H00J97070  12.603   2.403  13.255
  138SBC   C07A97071  12.370   2.086  13.026
  138SBC   C08397072  12.419   2.351  13.345
  138SBC   H00K97073  12.443   2.417  13.428
  138SBC   O00K97074  12.221   2.373  13.546
  138SBC   C0GO97075  12.134   2.377  13.649
  138SBC   C0GN97076  12.142   2.476  13.745
  138SBC   H01L97077  12.213   2.558  13.747
  138SBC   C0GM97078  12.050   2.472  13.862
  138SBC   C0GL97079  12.067   2.559  13.964
  138SBC   H01M97080  12.149   2.629  13.956
  138SBC   O00J97081  12.001   2.545  14.082
  138SBC   C0GK97082  11.905   2.447  14.078
  138SBC   H01N97083  11.842   2.447  14.165
  138SBC   C05K97084  11.879   2.356  13.977
  138SBC   C05J97085  11.767   2.263  13.988
  138SBC   C04Y97086  11.668   2.258  14.086
  138SBC   C04X97087  11.575   2.153  14.101
  138SBC   O00697088  11.637   2.365  14.169
  138SBC   C05397089  11.573   2.354  14.286
  138SBC   C04O97090  11.496   2.238  14.315
  138SBC   C03C97091  11.427   2.195  14.436
  138SBC   C03B97092  11.401   2.265  14.560
  138SBC   C05497093  11.408   2.406  14.567
  138SBC   C0GR97094  11.385   2.471  14.687
  138SBC   C03M97095  11.299   2.447  14.808
  138SBC   C03I97096  11.203   2.337  14.818
  138SBC   C03J97097  11.108   2.354  14.922
  138SBC   N00297098  10.991   2.268  14.922
  138SBC   C02U97099  10.889   2.279  15.025
  138SBC   C02T97100  10.767   2.208  15.011
  138SBC   C02Z97101  10.669   2.229  15.109
  138SBC   N00197102  10.544   2.163  15.099
  138SBC   C02R97103  10.441   2.199  15.191
  138SBC   C03297104  10.469   2.288  15.293
  138SBC   C03197105  10.598   2.347  15.309
  138SBC   H00797106  10.616   2.404  15.399
  138SBC   C03397107  10.354   2.315  15.377
  138SBC   H00397108  10.360   2.372  15.469
  138SBC   O00497109  10.224   2.271  15.352
  138SBC   C03497110  10.208   2.193  15.244
  138SBC   C03597111  10.076   2.160  15.216
  138SBC   C03697112  10.048   2.063  15.115
  138SBC   H00597113   9.942   2.044  15.109
  138SBC   C03797114  10.156   2.011  15.035
  138SBC   H00697115  10.125   1.952  14.950
  138SBC   C00D97116  10.292   2.060  15.052
  138SBC   C00C97117  10.393   2.029  14.966
  138SBC   C00B97118  10.378   1.947  14.842
  138SBC   C00A97119  10.272   1.893  14.750
  138SBC   C00997120  10.340   1.816  14.658
  138SBC   C00897121  10.310   1.786  14.524
  138SBC   C00797122  10.177   1.809  14.488
  138SBC   C00697123  10.128   1.751  14.369
  138SBC   C00597124   9.992   1.783  14.337
  138SBC   C00497125   9.913   1.870  14.415
  138SBC   C00397126   9.973   1.932  14.524
  138SBC   C00297127   9.905   2.035  14.588
  138SBC   C01C97128   9.773   2.060  14.563
  138SBC   C01B97129   9.693   2.147  14.644
  138SBC   H00097130   9.734   2.184  14.737
  138SBC   C00197131   9.978   2.110  14.682
  138SBC   C00097132  10.110   2.076  14.710
  138SBC   C01U97133  10.158   2.186  14.794
  138SBC   H00297134  10.255   2.204  14.838
  138SBC   C01T97135  10.047   2.279  14.820
  138SBC   O00297136  10.036   2.374  14.892
  138SBC   O00197137   9.943   2.229  14.745
  138SBC   C01S97138  10.104   1.894  14.563
  138SBC   C00N97139  10.405   1.726  14.442
  138SBC   C00M97140  10.542   1.738  14.467
  138SBC   C00J97141  10.576   1.794  14.585
  138SBC   C00I97142  10.702   1.845  14.605
  138SBC   C00H97143  10.726   1.922  14.718
  138SBC   C00G97144  10.627   1.956  14.807
  138SBC   C00F97145  10.632   2.050  14.904
  138SBC   C01X97146  10.847   1.989  14.728
  138SBC   C01W97147  10.943   1.963  14.632
  138SBC   C01V97148  10.918   1.877  14.527
  138SBC   C02097149  11.009   1.857  14.429
  138SBC   C01Z97150  11.055   2.038  14.636
  138SBC   C02Y97151  11.148   2.006  14.546
  138SBC   C03997152  11.270   2.080  14.550
  138SBC   C02W97153  11.073   2.148  14.722
  138SBC   C01Y97154  10.856   2.099  14.818
  138SBC   C00U97155  10.797   1.812  14.516
  138SBC   C00S97156  10.766   1.751  14.397
  138SBC   C00T97157  10.859   1.720  14.299
  138SBC   C00R97158  10.634   1.717  14.371
  138SBC   C00Q97159  10.596   1.667  14.251
  138SBC   C00V97160  10.689   1.635  14.150
  138SBC   C02497161  10.645   1.586  14.026
  138SBC   C00X97162  10.513   1.547  14.015
  138SBC   C00P97163  10.460   1.642  14.229
  138SBC   C00O97164  10.361   1.673  14.322
  138SBC   C00K97165  10.480   1.826  14.672
  138SBC   N00097166  10.166   1.956  14.676
  138SBC   C00L97167  10.501   1.905  14.783
  138SBC   H00497168   9.997   2.193  15.282
  138SBC   C02Q97169  10.315   2.153  15.160
  138SBC   C00E97170  10.525   2.077  14.988
  138SBC   C03097171  10.696   2.312  15.219
  138SBC   O00397172  10.822   2.373  15.240
  138SBC   C02S97173  10.751   2.121  14.910
  138SBC   C03897174  10.912   2.371  15.133
  138SBC   C03L97175  11.035   2.434  15.136
  138SBC   H00897176  11.050   2.493  15.225
  138SBC   C02V97177  10.970   2.177  14.817
  138SBC   C03K97178  11.129   2.434  15.032
  138SBC   C0BK97179  11.233   2.520  15.028
  138SBC   H00T97180  11.250   2.582  15.115
  138SBC   C03H97181  11.189   2.230  14.728
  138SBC   C0BL97182  11.315   2.534  14.917
  138SBC   C0GU97183  11.419   2.633  14.921
  138SBC   H01O97184  11.428   2.694  15.009
  138SBC   C0GT97185  11.494   2.659  14.805
  138SBC   H01P97186  11.578   2.725  14.818
  138SBC   C0GS97187  11.465   2.590  14.690
  138SBC   C0GV97188  11.531   2.604  14.568
  138SBC   C0GW97189  11.623   2.703  14.529
  138SBC   H01Q97190  11.636   2.792  14.589
  138SBC   C0GX97191  11.689   2.678  14.416
  138SBC   H01R97192  11.761   2.752  14.385
  138SBC   O00L97193  11.668   2.570  14.334
  138SBC   C0GQ97194  11.503   2.484  14.494
  138SBC   C03A97195  11.290   2.198  14.625
  138SBC   C05L97196  11.579   2.471  14.370
  138SBC   C04W97197  11.744   2.182  13.878
  138SBC   C05I97198  11.828   2.192  13.764
  138SBC   C05O97199  11.939   2.278  13.759
  138SBC   C05297200  11.805   2.112  13.653
  138SBC   C04V97201  11.638   2.083  13.869
  138SBC   C04U97202  11.614   2.003  13.759
  138SBC   N00997203  11.955   2.368  13.864
  138SBC   C0GP97204  12.024   2.285  13.652
  138SBC   C05W97205  12.001   2.202  13.540
  138SBC   C07D97206  12.174   2.105  13.227
  138SBC   C06J97207  11.928   1.967  13.208
  138SBC   C05P97208  11.891   2.120  13.539
  138SBC   C05R97209  11.727   1.889  13.302
  138SBC   C04Z97210  11.699   2.021  13.649
  138SBC   C04C97211  11.526   1.809  13.410
  138SBC   C04G97212  11.322   1.723  13.515
  138SBC   C04J97213  11.158   1.692  13.739
  138SBC   C04T97214  11.507   1.911  13.757
  138SBC   N00397215  11.557   2.064  13.985
  138SBC   C04P97216  11.493   2.135  14.215
  138SBC   C03D97217  11.353   2.076  14.437
  138SBC   C02197218  11.131   1.919  14.439
  138SBC   C03F97219  11.270   1.866  14.097
  138SBC   C02297220  10.981   1.781  14.315
  138SBC   C02A97221  11.114   1.735  13.968
  138SBC   C02397222  10.817   1.674  14.171
  138SBC   C02597223  10.727   1.571  13.917
  138SBC   C02D97224  10.677   1.533  13.790
  138SBC   C02E97225  10.546   1.505  13.775
  138SBC   C02N97226  10.489   1.485  13.648
  138SBC   C04N97227  11.070   1.687  13.849
  138SBC   C02P97228  10.762   1.539  13.683
  138SBC   C04I97229  11.113   1.649  13.613
  138SBC   C04497230  11.022   1.570  13.358
  138SBC   C04397231  10.710   1.514  13.557
  138SBC   C05N97232  10.574   1.482  13.537
  138SBC   C09U97233  10.436   1.434  13.138
  138SBC   C09V97234  10.389   1.431  13.002
  138SBC   C09X97235  10.257   1.412  12.965
  138SBC   C09Y97236  10.200   1.422  12.841
  138SBC   C0A197237  10.287   1.443  12.734
  138SBC   C0A297238  10.428   1.461  12.764
  138SBC   C0A497239  10.515   1.485  12.659
  138SBC   C07197240  10.649   1.501  12.681
  138SBC   C0A597241  10.732   1.514  12.570
  138SBC   C0A997242  10.684   1.521  12.439
  138SBC   C0A897243  10.548   1.503  12.416
  138SBC   C0AP97244  10.496   1.517  12.290
  138SBC   C0BY97245  10.358   1.528  12.277
  138SBC   C0BX97246  10.272   1.514  12.381
  138SBC   C0C297247  10.140   1.541  12.361
  138SBC   C0C397248  10.048   1.519  12.465
  138SBC   C0CT97249  10.095   1.481  12.587
  138SBC   C0C197250  10.088   1.590  12.240
  138SBC   C0C097251  10.174   1.601  12.125
  138SBC   C0A797252  10.324   1.485  12.506
  138SBC   C0BZ97253  10.303   1.566  12.152
  138SBC   C0BO97254  10.388   1.585  12.042
  138SBC   C0BN97255  10.524   1.596  12.063
  138SBC   C0BM97256  10.593   1.644  11.960
  138SBC   C0B997257  10.729   1.650  11.978
  138SBC   C0B897258  10.786   1.610  12.101
  138SBC   C0AD97259  10.711   1.558  12.205
  138SBC   C0AF97260  10.926   1.626  12.114
  138SBC   C0AG97261  11.013   1.668  12.009
  138SBC   C0B797262  10.950   1.696  11.892
  138SBC   C0AE97263  10.975   1.582  12.232
  138SBC   C0AB97264  10.898   1.560  12.352
  138SBC   C0AA97265  10.947   1.551  12.487
  138SBC   C0AJ97266  11.112   1.610  12.255
  138SBC   C0AK97267  11.160   1.604  12.383
  138SBC   C06W97268  11.282   1.656  12.379
  138SBC   C0AI97269  11.206   1.661  12.160
  138SBC   C0BP97270  10.309   1.640  11.940
  138SBC   C0BQ97271  10.387   1.697  11.826
  138SBC   C0BW97272  10.575   1.552  12.186
  138SBC   C0AC97273  10.761   1.546  12.332
  138SBC   C0A697274  10.465   1.490  12.527
  138SBC   C0A397275  10.236   1.467  12.608
  138SBC   C09Z97276  10.065   1.415  12.812
  138SBC   C09W97277  10.476   1.455  12.900
  138SBC   C07297278  10.611   1.479  12.922
  138SBC   C09H97279  10.179   1.373  13.067
  138SBC   C09G97280  10.047   1.354  13.044
  138SBC   C09P97281   9.987   1.341  13.166
  138SBC   C02O97282  10.155   1.422  13.509
  138SBC   C02M97283  10.350   1.469  13.635
  138SBC   C02F97284  10.467   1.505  13.890
  138SBC   C00W97285  10.421   1.578  14.115
  138SBC   C01R97286  10.224   1.675  14.295
  138SBC   C01N97287  10.119   1.528  13.975
  138SBC   C01L97288   9.909   1.588  13.873
  138SBC   C01H97289   9.628   1.777  13.992
  138SBC   C01K97290   9.928   1.735  14.214
  138SBC   C01E97291   9.789   1.918  14.374
  138SBC   C01G97292   9.555   1.877  14.068
  138SBC   C01D97293   9.718   2.010  14.448
  138SBC   C01A97294   9.561   2.174  14.613
  138SBC   H00197295   9.508   2.250  14.668
  138SBC   C01F97296   9.420   2.063  14.234
  138SBC   C03P97297   9.196   2.209  14.144
  138SBC   C03T97298   9.202   2.090  13.943
  138SBC   C08I97299   9.113   2.022  13.689
  138SBC   C08J97300   9.073   1.985  13.560
  138SBC   C08L97301   9.109   1.858  13.359
  138SBC   C09397302   9.160   1.727  13.149
  138SBC   C08Z97303   9.373   1.605  13.285
  138SBC   C09T97304   9.413   1.516  12.824
  138SBC   C09S97305   9.570   1.426  13.134
  138SBC   C09Q97306   9.853   1.360  13.159
  138SBC   C09F97307   9.983   1.381  12.914
  138SBC   C09E97308   9.642   1.440  12.798
  138SBC   C0A097309  10.007   1.456  12.693
  138SBC   C0CU97310   9.908   1.542  12.446
  138SBC   C0CR97311   9.869   1.604  12.327
  138SBC   C0CZ97312   9.730   1.627  12.297
  138SBC   C0DA97313   9.532   1.502  12.733
  138SBC   C0D997314   9.355   1.682  12.481
  138SBC   H00V97315   9.306   1.738  12.561
  138SBC   C0CY97316   9.639   1.560  12.386
  138SBC   C0DF97317   9.346   1.727  12.343
  138SBC   C0DE97318   9.292   1.822  12.245
  138SBC   C0GI97319   9.180   1.911  12.242
  138SBC   H01K97320   9.122   1.919  12.332
  138SBC   C0GJ97321   9.145   1.964  12.126
  138SBC   H01J97322   9.057   2.027  12.123
  138SBC   O00I97323   9.222   1.959  12.010
  138SBC   C0GH97324   9.337   1.882  12.009
  138SBC   C0GG97325   9.420   1.910  11.901
  138SBC   O00G97326   9.368   1.976  11.795
  138SBC   C0G897327   9.450   2.022  11.697
  138SBC   C0G997328   9.385   2.086  11.591
  138SBC   H01G97329   9.277   2.081  11.592
  138SBC   C0GA97330   9.468   2.160  11.500
  138SBC   H01H97331   9.420   2.220  11.423
  138SBC   C0GB97332   9.607   2.163  11.498
  138SBC   C0EP97333   9.666   2.076  11.593
  138SBC   C0E897334   9.808   2.031  11.571
  138SBC   C0CK97335   9.908   1.957  11.636
  138SBC   C0CL97336   9.911   1.955  11.774
  138SBC   C0E997337   9.788   1.949  11.845
  138SBC   C0GE97338   9.646   1.957  11.817
  138SBC   C0E797339   9.881   2.104  11.474
  138SBC   C0CJ97340  10.016   2.069  11.475
  138SBC   C0E697341  10.105   2.137  11.395
  138SBC   H00Y97342  10.210   2.113  11.400
  138SBC   C0EO97343  10.051   2.240  11.313
  138SBC   H01197344  10.117   2.298  11.250
  138SBC   C0G697345   9.908   2.272  11.316
  138SBC   C0G597346   9.844   2.379  11.236
  138SBC   H01F97347   9.902   2.439  11.167
  138SBC   C0GD97348   9.712   2.405  11.257
  138SBC   H01I97349   9.672   2.481  11.191
  138SBC   O00H97350   9.628   2.344  11.338
  138SBC   C0EQ97351   9.819   2.207  11.398
  138SBC   C0GC97352   9.685   2.238  11.405
  138SBC   C0G797353   9.593   2.016  11.700
  138SBC   C0DD97354   9.364   1.797  12.120
  138SBC   C0GF97355   9.559   1.902  11.919
  138SBC   C0CO97356   9.834   1.932  11.971
  138SBC   C0D097357   9.702   1.695  12.175
  138SBC   C0C497358   9.962   1.647  12.232
  138SBC   C0CN97359   9.973   1.942  11.989
  138SBC   C0CP97360  10.174   1.651  11.987
  138SBC   C0CM97361  10.024   1.955  11.861
  138SBC   C0CI97362  10.032   1.960  11.565
  138SBC   C0CD97363  10.438   1.833  11.372
  138SBC   C0BR97364  10.328   1.765  11.718
  138SBC   C0CS97365  10.528   1.688  11.842
  138SBC   C0B697366  10.811   1.688  11.876
  138SBC   C0CG97367  10.634   1.792  11.510
  138SBC   C0CF97368  10.577   1.822  11.382
  138SBC   C0E597369  10.462   1.884  11.136
  138SBC   C0DT97370  10.623   1.906  10.915
  138SBC   C0DL97371  10.875   1.829  11.167
  138SBC   C0DM97372  11.017   1.828  11.178
  138SBC   C0DY97373  11.038   1.866  10.943
  138SBC   C0DU97374  10.711   1.921  10.808
  138SBC   C0F097375  10.733   1.998  10.582
  138SBC   C0F497376  10.885   2.131  10.401
  138SBC   C0FG97377  11.134   1.939  10.598
  138SBC   O00B97378  11.123   2.202  10.358
  138SBC   C0FN97379  11.270   1.961  10.594
  138SBC   C0DZ97380  11.127   1.887  10.831
  138SBC   O00C97381  11.457   1.930  10.995
  138SBC   C0FR97382  11.519   1.922  11.119
  138SBC   O00D97383  11.640   1.958  11.111
  138SBC   C0E097384  11.096   1.854  11.069
  138SBC   C0E397385  11.437   1.868  11.228
  138SBC   C0AW97386  11.493   1.851  11.353
  138SBC   C0AV97387  11.632   1.858  11.385
  138SBC   H00Q97388  11.707   1.865  11.307
  138SBC   C0AU97389  11.680   1.839  11.517
  138SBC   H00R97390  11.784   1.856  11.542
  138SBC   C0AT97391  11.586   1.810  11.614
  138SBC   C0AS97392  11.593   1.792  11.759
  138SBC   C0AR97393  11.720   1.773  11.830
  138SBC   C0BE97394  11.454   1.797  11.583
  138SBC   C0DN97395  11.071   1.818  11.311
  138SBC   C0AX97396  11.405   1.828  11.455
  138SBC   C0BB97397  11.053   1.784  11.548
  138SBC   C0BD97398  11.383   1.776  11.694
  138SBC   C0B297399  11.032   1.730  11.786
  138SBC   C0AH97400  11.155   1.676  12.028
  138SBC   C0BF97401  11.458   1.770  11.810
  138SBC   C0AL97402  11.320   1.681  12.242
  138SBC   C07U97403  11.631   1.757  12.066
  138SBC   C0AQ97404  11.723   1.784  11.972
  138SBC   C0BG97405  11.854   1.805  11.779
  138SBC   C0FY97406  12.159   1.714  11.963
  138SBC   C0BJ97407  11.942   1.715  11.698
  138SBC   H00S97408  11.905   1.649  11.620
  138SBC   C0FZ97409  12.232   1.624  11.886
  138SBC   C07S97410  12.138   1.692  12.104
  138SBC   C0G197411  12.393   1.419  12.133
  138SBC   C07K97412  12.309   1.446  12.495
  138SBC   C07H97413  12.126   1.642  12.381
  138SBC   C06B97414  12.147   1.788  12.696
  138SBC   C06N97415  11.924   1.786  12.743
  138SBC   C06697416  11.881   1.730  12.369
  138SBC   C06297417  11.572   1.747  12.438
  138SBC   C05Y97418  11.671   1.786  12.807
  138SBC   C06197419  11.452   1.770  12.510
  138SBC   C05H97420  11.353   1.661  12.846
  138SBC   C06V97421  11.335   1.696  12.493
  138SBC   C06Y97422  11.080   1.580  12.502
  138SBC   C05C97423  11.099   1.584  12.878
  138SBC   C06Z97424  10.866   1.535  12.594
  138SBC   C07097425  10.698   1.499  12.812
  138SBC   C05B97426  11.013   1.552  12.989
  138SBC   C05797427  10.841   1.508  13.209
  138SBC   C05997428  10.659   1.483  13.053
  139SBC   C05897429   1.194   0.251  11.334
  139SBC   C05A97430   1.286   0.161  11.276
  139SBC   C06Q97431   1.404   0.206  11.221
  139SBC   C06R97432   1.500   0.114  11.175
  139SBC   C06S97433   1.474  -0.024  11.165
  139SBC   C06T97434   1.581  -0.106  11.113
  139SBC   C06U97435   1.581  -0.253  11.090
  139SBC   C06X97436   1.488  -0.357  11.121
  139SBC   C06097437   1.526  -0.477  11.057
  139SBC   C05Z97438   1.526  -0.609  11.122
  139SBC   C06897439   1.646  -0.668  11.050
  139SBC   C06797440   1.677  -0.808  11.020
  139SBC   C06997441   1.587  -0.905  11.068
  139SBC   C06A97442   1.579  -1.043  11.017
  139SBC   C07397443   1.585  -1.097  10.886
  139SBC   C07P97444   1.472  -1.164  10.834
  139SBC   C07O97445   1.345  -1.171  10.889
  139SBC   H00D97446   1.321  -1.140  10.990
  139SBC   C07N97447   1.237  -1.220  10.819
  139SBC   H00E97448   1.139  -1.212  10.864
  139SBC   C07M97449   1.260  -1.276  10.691
  139SBC   H00F97450   1.184  -1.316  10.627
  139SBC   C07L97451   1.390  -1.290  10.639
  139SBC   C07Q97452   1.426  -1.363  10.523
  139SBC   H00G97453   1.343  -1.414  10.475
  139SBC   O00F97454   1.550  -1.364  10.462
  139SBC   C07J97455   1.646  -1.297  10.527
  139SBC   C07I97456   1.624  -1.227  10.647
  139SBC   N00497457   1.729  -1.145  10.708
  139SBC   C07R97458   1.861  -1.156  10.658
  139SBC   C07T97459   1.879  -1.218  10.533
  139SBC   C0FX97460   1.997  -1.211  10.457
  139SBC   C0FW97461   2.010  -1.236  10.324
  139SBC   C0G097462   1.903  -1.321  10.272
  139SBC   C0G297463   1.914  -1.379  10.146
  139SBC   H01E97464   1.846  -1.450  10.100
  139SBC   C0G397465   2.025  -1.342  10.069
  139SBC   H01C97466   2.032  -1.397   9.976
  139SBC   C0G497467   2.125  -1.260  10.118
  139SBC   H01D97468   2.208  -1.244  10.051
  139SBC   O00E97469   1.789  -1.353  10.345
  139SBC   C0FV97470   2.126  -1.206  10.249
  139SBC   C0FU97471   2.214  -1.111  10.317
  139SBC   H01B97472   2.299  -1.072  10.263
  139SBC   C0FT97473   2.204  -1.086  10.455
  139SBC   C0FS97474   2.261  -1.007  10.555
  139SBC   C0BI97475   2.217  -1.042  10.687
  139SBC   C0BH97476   2.240  -0.931  10.772
  139SBC   C07F97477   2.141  -0.845  10.824
  139SBC   C07E97478   2.007  -0.881  10.849
  139SBC   C07G97479   1.937  -1.000  10.818
  139SBC   C07497480   1.810  -0.978  10.872
  139SBC   C06597481   1.917  -0.790  10.902
  139SBC   C06497482   1.960  -0.657  10.913
  139SBC   C06397483   1.881  -0.548  10.958
  139SBC   C07597484   1.972  -0.435  10.941
  139SBC   C0AM97485   2.100  -0.466  10.877
  139SBC   C0AN97486   2.211  -0.377  10.829
  139SBC   C0AO97487   2.234  -0.230  10.847
  139SBC   C0B197488   2.356  -0.164  10.801
  139SBC   C0B097489   2.450  -0.230  10.733
  139SBC   C0AZ97490   2.566  -0.172  10.680
  139SBC   C0AY97491   2.652  -0.250  10.608
  139SBC   N00797492   2.768  -0.199  10.550
  139SBC   C0E297493   2.851  -0.274  10.461
  139SBC   C0E197494   2.960  -0.214  10.405
  139SBC   C0E497495   3.038  -0.298  10.315
  139SBC   C0FF97496   3.154  -0.247  10.261
  139SBC   C0FJ97497   3.256  -0.297  10.169
  139SBC   C0FK97498   3.228  -0.372  10.052
  139SBC   H01697499   3.135  -0.424  10.033
  139SBC   C0FL97500   3.343  -0.346   9.961
  139SBC   H01797501   3.359  -0.374   9.858
  139SBC   C0FM97502   3.426  -0.252  10.021
  139SBC   C0FH97503   3.509  -0.127   9.994
  139SBC   C0FI97504   3.499  -0.064  10.118
  139SBC   C0F397505   3.510   0.077  10.109
  139SBC   C0F297506   3.440   0.137  10.212
  139SBC   C0DW97507   3.333   0.086  10.284
  139SBC   C0FE97508   3.311  -0.049  10.271
  139SBC   C0DV97509   3.240   0.161  10.348
  139SBC   C0DX97510   3.131   0.104  10.400
  139SBC   C0DK97511   3.039   0.183  10.463
  139SBC   C0DJ97512   3.051   0.322  10.461
  139SBC   C0DI97513   2.964   0.405  10.528
  139SBC   C0DH97514   2.861   0.349  10.603
  139SBC   C0DG97515   2.843   0.211  10.602
  139SBC   C0BV97516   2.732   0.152  10.658
  139SBC   C0BC97517   2.703   0.013  10.646
  139SBC   C0BA97518   2.641   0.231  10.732
  139SBC   C0B497519   2.528   0.173  10.791
  139SBC   C0B397520   2.499   0.037  10.769
  139SBC   C0B597521   2.441   0.250  10.858
  139SBC   C0BU97522   2.467   0.389  10.874
  139SBC   C0BT97523   2.584   0.448  10.827
  139SBC   C0BS97524   2.608   0.588  10.838
  139SBC   C0CC97525   2.720   0.642  10.772
  139SBC   C0CB97526   2.749   0.782  10.788
  139SBC   C0CH97527   2.824   0.836  10.681
  139SBC   C0DO97528   2.914   0.760  10.599
  139SBC   C0DP97529   3.020   0.819  10.525
  139SBC   C0EA97530   3.047   0.962  10.539
  139SBC   H01297531   2.977   1.024  10.593
  139SBC   O00997532   3.156   1.018  10.481
  139SBC   C0EH97533   3.243   0.940  10.415
  139SBC   C0EG97534   3.366   0.987  10.375
  139SBC   C0EJ97535   3.434   1.110  10.391
  139SBC   H01097536   3.404   1.195  10.450
  139SBC   C0EK97537   3.561   1.111  10.325
  139SBC   H00Z97538   3.632   1.193  10.318
  139SBC   C0EL97539   3.560   0.984  10.254
  139SBC   C0EM97540   3.656   0.922  10.165
  139SBC   C0EW97541   3.781   0.969  10.119
  139SBC   H01397542   3.804   1.071  10.145
  139SBC   C0EX97543   3.872   0.884  10.038
  139SBC   H01497544   3.963   0.925   9.997
  139SBC   C0F197545   3.825   0.760   9.982
  139SBC   C0EU97546   3.703   0.718  10.035
  139SBC   C0ET97547   3.642   0.593   9.999
  139SBC   C0ES97548   3.520   0.598  10.078
  139SBC   C0EE97549   3.509   0.718  10.152
  139SBC   C0ED97550   3.420   0.780  10.246
  139SBC   C0EC97551   3.304   0.718  10.312
  139SBC   C0EB97552   3.275   0.580  10.305
  139SBC   C0EN97553   3.361   0.485  10.235
  139SBC   C0ER97554   3.350   0.355  10.274
  139SBC   C0DS97555   3.170   0.524  10.375
  139SBC   C0DR97556   3.082   0.602  10.448
  139SBC   C0EY97557   3.465   0.482  10.134
  139SBC   C0EZ97558   3.509   0.351  10.104
  139SBC   C0F597559   3.590   0.283  10.010
  139SBC   C0F697560   3.674   0.350   9.919
  139SBC   N00897561   3.742   0.268   9.826
  139SBC   C0F797562   3.709   0.128   9.810
  139SBC   C0FQ97563   3.771   0.064   9.702
  139SBC   H01897564   3.746  -0.040   9.687
  139SBC   C0FP97565   3.861   0.119   9.619
  139SBC   H01997566   3.905   0.062   9.538
  139SBC   C0FO97567   3.901   0.246   9.652
  139SBC   H01A97568   3.964   0.295   9.580
  139SBC   C0F897569   3.623   0.064   9.901
  139SBC   C0F997570   3.849   0.319   9.755
  139SBC   C0FA97571   3.896   0.449   9.770
  139SBC   H01597572   3.984   0.482   9.717
  139SBC   C0FB97573   3.833   0.537   9.869
  139SBC   C0FD97574   3.719   0.489   9.933
  139SBC   C0FC97575   3.892   0.670   9.899
  139SBC   O00A97576   3.998   0.706   9.843
  139SBC   C0EV97577   3.623   0.791  10.128
  139SBC   C0EF97578   3.450   0.909  10.303
  139SBC   C0EI97579   3.218   0.796  10.395
  139SBC   C0DQ97580   3.108   0.739  10.453
  139SBC   C0CE97581   2.892   0.622  10.607
  139SBC   H00U97582   2.826   0.943  10.696
  139SBC   C0CA97583   2.694   0.850  10.900
  139SBC   C0C997584   2.569   0.801  10.958
  139SBC   C0C897585   2.506   0.878  11.063
  139SBC   C0C797586   2.366   0.891  11.100
  139SBC   C0C697587   2.334   0.977  11.205
  139SBC   C0C597588   2.219   1.051  11.258
  139SBC   C0CQ97589   2.249   1.172  11.329
  139SBC   C0D197590   2.377   1.225  11.316
  139SBC   C0D897591   2.375   1.359  11.291
  139SBC   C0D797592   2.245   1.403  11.332
  139SBC   C0D697593   2.199   1.534  11.321
  139SBC   C0D597594   2.061   1.570  11.341
  139SBC   C0D497595   1.934   1.499  11.356
  139SBC   C0D397596   1.835   1.572  11.283
  139SBC   C0CX97597   1.725   1.482  11.241
  139SBC   C0CW97598   1.786   1.348  11.255
  139SBC   C0CV97599   1.741   1.211  11.249
  139SBC   C0D297600   1.602   1.174  11.237
  139SBC   C09D97601   1.484   1.255  11.250
  139SBC   C09C97602   1.350   1.200  11.266
  139SBC   C09B97603   1.232   1.267  11.297
  139SBC   C09A97604   1.258   1.405  11.306
  139SBC   C09997605   1.372   1.465  11.264
  139SBC   C09897606   1.377   1.590  11.330
  139SBC   C08Y97607   1.266   1.599  11.425
  139SBC   C08X97608   1.247   1.694  11.531
  139SBC   C08W97609   1.338   1.807  11.558
  139SBC   C08U97610   1.465   1.831  11.491
  139SBC   C08V97611   1.547   1.757  11.400
  139SBC   C0DC97612   1.640   1.843  11.342
  139SBC   H00W97613   1.702   1.800  11.265
  139SBC   C0DB97614   1.633   1.970  11.403
  139SBC   H00X97615   1.697   2.056  11.389
  139SBC   C08T97616   1.520   1.962  11.492
  139SBC   C08S97617   1.477   2.065  11.575
  139SBC   H00N97618   1.524   2.162  11.579
  139SBC   C08R97619   1.364   2.037  11.658
  139SBC   C08Q97620   1.310   2.120  11.756
  139SBC   H00O97621   1.350   2.220  11.758
  139SBC   C08P97622   1.221   2.089  11.856
  139SBC   C08O97623   1.198   2.184  11.961
  139SBC   H00P97624   1.255   2.274  11.982
  139SBC   C08N97625   1.098   2.147  12.056
  139SBC   C08M97626   1.066   2.236  12.161
  139SBC   O00897627   1.102   2.354  12.171
  139SBC   O00797628   0.974   2.188  12.253
  139SBC   C08H97629   0.922   2.063  12.254
  139SBC   C08G97630   0.842   2.014  12.361
  139SBC   C03V97631   0.819   2.075  12.482
  139SBC   H00997632   0.852   2.178  12.488
  139SBC   C03U97633   0.743   2.012  12.584
  139SBC   C03W97634   0.714   2.070  12.711
  139SBC   H00A97635   0.756   2.168  12.728
  139SBC   C03X97636   0.651   1.996  12.802
  139SBC   H00B97637   0.643   2.039  12.901
  139SBC   O00597638   0.594   1.873  12.785
  139SBC   C03O97639   0.622   1.814  12.669
  139SBC   C03N97640   0.573   1.686  12.642
  139SBC   O00097641   0.505   1.624  12.743
  139SBC   C01997642   0.468   1.494  12.725
  139SBC   C01897643   0.490   1.425  12.607
  139SBC   C01797644   0.549   1.490  12.499
  139SBC   C01697645   0.573   1.426  12.380
  139SBC   C01597646   0.510   1.300  12.371
  139SBC   C01497647   0.522   1.230  12.253
  139SBC   C01397648   0.591   1.276  12.142
  139SBC   C01297649   0.592   1.165  12.047
  139SBC   C01197650   0.502   1.070  12.110
  139SBC   C01097651   0.471   0.960  12.047
  139SBC   C00Z97652   0.412   0.846  12.101
  139SBC   C00Y97653   0.426   0.748  11.996
  139SBC   C01O97654   0.501   0.798  11.895
  139SBC   C01P97655   0.588   0.717  11.819
  139SBC   C02L97656   0.682   0.776  11.744
  139SBC   C02K97657   0.693   0.923  11.761
  139SBC   C01M97658   0.632   1.002  11.861
  139SBC   C02J97659   0.775   0.974  11.656
  139SBC   C02I97660   0.802   1.115  11.638
  139SBC   C02H97661   0.775   1.225  11.723
  139SBC   C01Q97662   0.721   1.236  11.848
  139SBC   C02G97663   0.723   1.372  11.893
  139SBC   C08997664   0.781   1.441  11.789
  139SBC   C08897665   0.851   1.550  11.836
  139SBC   C08797666   0.802   1.560  11.975
  139SBC   C08697667   0.821   1.674  12.067
  139SBC   C03S97668   0.765   1.689  12.201
  139SBC   N00697669   0.814   1.811  12.239
  139SBC   C08F97670   0.896   1.863  12.142
  139SBC   C01J97671   0.685   1.623  12.288
  139SBC   C03R97672   0.667   1.684  12.413
  139SBC   C03Q97673   0.716   1.816  12.445
  139SBC   C08E97674   0.906   1.778  12.041
  139SBC   C08D97675   0.990   1.810  11.930
  139SBC   C08K97676   1.060   1.933  11.941
  139SBC   C08C97677   1.019   1.738  11.812
  139SBC   C09197678   1.121   1.773  11.721
  139SBC   C09297679   1.198   1.888  11.739
  139SBC   C08B97680   0.957   1.621  11.759
  139SBC   C09097681   1.028   1.588  11.636
  139SBC   C09497682   0.989   1.485  11.546
  139SBC   C09597683   1.070   1.436  11.444
  139SBC   C09R97684   1.033   1.307  11.414
  139SBC   C09797685   0.934   1.262  11.503
  139SBC   C09697686   0.900   1.372  11.580
  139SBC   C01I97687   0.716   1.445  12.017
  139SBC   C08A97688   0.821   1.354  11.692
  139SBC   C09L97689   0.883   1.129  11.529
  139SBC   C09K97690   0.917   0.996  11.480
  139SBC   C09J97691   1.008   0.970  11.378
  139SBC   C09I97692   1.063   0.842  11.354
  139SBC   C09O97693   1.042   0.706  11.407
  139SBC   C09N97694   0.937   0.663  11.492
  139SBC   C09M97695   0.851   0.752  11.565
  139SBC   C06O97696   0.925   0.521  11.513
  139SBC   C05M97697   1.012   0.432  11.441
  139SBC   C06P97698   1.123   0.478  11.374
  139SBC   C04297699   0.992   0.294  11.458
  139SBC   C04197700   0.898   0.240  11.547
  139SBC   C04097701   0.880   0.107  11.566
  139SBC   C03Z97702   0.775   0.057  11.646
  139SBC   C03Y97703   0.694   0.144  11.714
  139SBC   C02797704   0.602   0.095  11.806
  139SBC   C02697705   0.530   0.180  11.884
  139SBC   C02897706   0.447   0.129  11.983
  139SBC   C02997707   0.441  -0.005  12.010
  139SBC   C02B97708   0.375  -0.051  12.126
  139SBC   C02C97709   0.375  -0.186  12.155
  139SBC   C02X97710   0.333  -0.225  12.282
  139SBC   C03E97711   0.352  -0.354  12.317
  139SBC   C03G97712   0.414  -0.451  12.238
  139SBC   C04Q97713   0.459  -0.413  12.111
  139SBC   C04R97714   0.539  -0.501  12.038
  139SBC   C04S97715   0.611  -0.454  11.931
  139SBC   C04L97716   0.597  -0.318  11.889
  139SBC   C04M97717   0.508  -0.233  11.960
  139SBC   C04K97718   0.678  -0.267  11.787
  139SBC   C04F97719   0.764  -0.356  11.718
  139SBC   C04E97720   0.779  -0.486  11.762
  139SBC   C04D97721   0.877  -0.570  11.704
  139SBC   C05097722   0.878  -0.704  11.739
  139SBC   C05197723   0.962  -0.789  11.672
  139SBC   C05Q97724   0.973  -0.924  11.704
  139SBC   C05V97725   1.069  -1.004  11.646
  139SBC   N00597726   1.077  -1.143  11.683
  139SBC   C07V97727   0.991  -1.186  11.781
  139SBC   C08297728   1.003  -1.316  11.818
  139SBC   C08197729   1.099  -1.402  11.762
  139SBC   C07C97730   1.180  -1.357  11.662
  139SBC   C07B97731   1.276  -1.441  11.598
  139SBC   C08097732   1.293  -1.574  11.642
  139SBC   C07Z97733   1.389  -1.658  11.583
  139SBC   H00L97734   1.403  -1.760  11.618
  139SBC   C07997735   1.454  -1.621  11.462
  139SBC   C07897736   1.437  -1.489  11.421
  139SBC   C07797737   1.503  -1.442  11.307
  139SBC   C07X97738   1.603  -1.526  11.239
  139SBC   H00I97739   1.658  -1.496  11.151
  139SBC   C07Y97740   1.623  -1.654  11.287
  139SBC   H00H97741   1.686  -1.726  11.236
  139SBC   C07697742   1.481  -1.308  11.266
  139SBC   C06C97743   1.540  -1.259  11.142
  139SBC   H00C97744   1.586  -1.324  11.068
  139SBC   C06F97745   1.402  -1.222  11.338
  139SBC   C06E97746   1.398  -1.083  11.315
  139SBC   C06G97747   1.316  -0.989  11.377
  139SBC   C06H97748   1.232  -1.040  11.475
  139SBC   C06I97749   1.243  -1.177  11.514
  139SBC   C06L97750   1.325  -0.852  11.346
  139SBC   C06M97751   1.419  -0.801  11.246
  139SBC   C06K97752   1.233  -0.770  11.404
  139SBC   C05S97753   1.147  -0.819  11.507
  139SBC   C05U97754   1.232  -0.630  11.374
  139SBC   C05X97755   1.326  -0.580  11.279
  139SBC   C05G97756   1.303  -0.434  11.263
  139SBC   C05F97757   1.200  -0.371  11.328
  139SBC   C05E97758   1.213  -0.237  11.304
  139SBC   C04897759   1.137  -0.147  11.372
  139SBC   C05697760   1.153  -0.014  11.350
  139SBC   C04597761   1.068   0.070  11.421
  139SBC   C04797762   1.038  -0.197  11.454
  139SBC   C04997763   1.029  -0.333  11.474
  139SBC   C04B97764   0.941  -0.389  11.564
  139SBC   C04697765   0.944  -0.116  11.508
  139SBC   C04H97766   0.849  -0.169  11.593
  139SBC   C05D97767   1.322  -0.207  11.230
  139SBC   C04A97768   1.115  -0.423  11.421
  139SBC   C05T97769   1.131  -0.554  11.440
  139SBC   C05597770   1.047  -0.609  11.538
  139SBC   C06D97771   1.469  -1.037  11.210
  139SBC   C07W97772   1.326  -1.270  11.444
  139SBC   C08597773   1.547  -1.703  11.396
  139SBC   H00M97774   1.580  -1.800  11.430
  139SBC   C08497775   1.224  -1.616  11.754
  139SBC   H00J97776   1.243  -1.712  11.801
  139SBC   C07A97777   1.350  -1.402  11.488
  139SBC   C08397778   1.128  -1.535  11.809
  139SBC   H00K97779   1.073  -1.575  11.893
  139SBC   O00K97780   0.919  -1.374  11.911
  139SBC   C0GO97781   0.829  -1.291  11.971
  139SBC   C0GN97782   0.747  -1.342  12.072
  139SBC   H01L97783   0.763  -1.447  12.095
  139SBC   C0GM97784   0.678  -1.252  12.155
  139SBC   C0GL97785   0.634  -1.301  12.272
  139SBC   H01M97786   0.653  -1.405  12.294
  139SBC   O00J97787   0.564  -1.222  12.361
  139SBC   C0GK97788   0.535  -1.092  12.318
  139SBC   H01N97789   0.468  -1.039  12.385
  139SBC   C05K97790   0.590  -1.040  12.201
  139SBC   C05J97791   0.588  -0.899  12.173
  139SBC   C04Y97792   0.525  -0.803  12.253
  139SBC   C04X97793   0.496  -0.674  12.207
  139SBC   O00697794   0.510  -0.830  12.382
  139SBC   C05397795   0.457  -0.742  12.474
  139SBC   C04O97796   0.413  -0.610  12.430
  139SBC   C03C97797   0.358  -0.504  12.508
  139SBC   C03B97798   0.345  -0.483  12.649
  139SBC   C05497799   0.399  -0.566  12.746
  139SBC   C0GR97800   0.392  -0.539  12.884
  139SBC   C03M97801   0.353  -0.421  12.971
  139SBC   C03I97802   0.307  -0.291  12.922
  139SBC   C03J97803   0.266  -0.193  13.018
  139SBC   N00297804   0.229  -0.062  12.980
  139SBC   C02U97805   0.192   0.042  13.072
  139SBC   C02T97806   0.163   0.171  13.034
  139SBC   C02Z97807   0.140   0.268  13.128
  139SBC   N00197808   0.116   0.400  13.094
  139SBC   C02R97809   0.082   0.500  13.190
  139SBC   C03297810   0.079   0.464  13.328
  139SBC   C03197811   0.108   0.327  13.360
  139SBC   H00797812   0.101   0.293  13.463
  139SBC   C03397813   0.042   0.566  13.424
  139SBC   H00397814   0.036   0.542  13.529
  139SBC   O00497815   0.001   0.693  13.383
  139SBC   C03497816   0.024   0.726  13.252
  139SBC   C03597817   0.011   0.862  13.219
  139SBC   C03697818   0.037   0.901  13.085
  139SBC   H00597819   0.033   1.001  13.044
  139SBC   C03797820   0.055   0.808  12.987
  139SBC   H00697821   0.079   0.844  12.888
  139SBC   C00D97822   0.078   0.672  13.019
  139SBC   C00C97823   0.122   0.574  12.928
  139SBC   C00B97824   0.151   0.614  12.787
  139SBC   C00A97825   0.167   0.727  12.697
  139SBC   C00997826   0.172   0.669  12.565
  139SBC   C00897827   0.228   0.717  12.443
  139SBC   C00797828   0.291   0.838  12.449
  139SBC   C00697829   0.347   0.890  12.334
  139SBC   C00597830   0.400   1.024  12.344
  139SBC   C00497831   0.398   1.092  12.465
  139SBC   C00397832   0.359   1.028  12.582
  139SBC   C00297833   0.366   1.092  12.703
  139SBC   C01C97834   0.396   1.229  12.713
  139SBC   C01B97835   0.372   1.300  12.831
  139SBC   H00097836   0.330   1.263  12.924
  139SBC   C00197837   0.349   1.019  12.819
  139SBC   C00097838   0.318   0.883  12.810
  139SBC   C01U97839   0.344   0.834  12.940
  139SBC   H00297840   0.336   0.735  12.981
  139SBC   C01T97841   0.371   0.954  13.026
  139SBC   O00297842   0.392   0.965  13.142
  139SBC   O00197843   0.390   1.054  12.940
  139SBC   C01S97844   0.306   0.899  12.575
  139SBC   C00N97845   0.248   0.624  12.337
  139SBC   C00M97846   0.227   0.488  12.349
  139SBC   C00J97847   0.191   0.441  12.471
  139SBC   C00I97848   0.196   0.312  12.505
  139SBC   C00H97849   0.180   0.273  12.638
  139SBC   C00G97850   0.149   0.364  12.737
  139SBC   C00F97851   0.146   0.334  12.871
  139SBC   C01X97852   0.196   0.144  12.673
  139SBC   C01W97853   0.217   0.052  12.571
  139SBC   C01V97854   0.243   0.088  12.440
  139SBC   C02097855   0.276  -0.002  12.342
  139SBC   C01Z97856   0.238  -0.083  12.611
  139SBC   C02Y97857   0.272  -0.163  12.509
  139SBC   C03997858   0.283  -0.299  12.546
  139SBC   C02W97859   0.243  -0.125  12.746
  139SBC   C01Y97860   0.196   0.106  12.810
  139SBC   C00U97861   0.236   0.219  12.406
  139SBC   C00S97862   0.280   0.263  12.282
  139SBC   C00T97863   0.324   0.174  12.188
  139SBC   C00R97864   0.277   0.397  12.258
  139SBC   C00Q97865   0.337   0.441  12.146
  139SBC   C00V97866   0.390   0.354  12.053
  139SBC   C02497867   0.470   0.398  11.944
  139SBC   C00X97868   0.481   0.531  11.928
  139SBC   C00P97869   0.353   0.571  12.128
  139SBC   C00O97870   0.321   0.666  12.228
  139SBC   C00K97871   0.147   0.537  12.572
  139SBC   N00097872   0.271   0.830  12.692
  139SBC   C00L97873   0.139   0.503  12.702
  139SBC   H00497874  -0.022   0.939  13.286
  139SBC   C02Q97875   0.064   0.633  13.152
  139SBC   C00E97876   0.120   0.438  12.960
  139SBC   C03097877   0.142   0.233  13.264
  139SBC   O00397878   0.173   0.105  13.303
  139SBC   C02S97879   0.169   0.203  12.906
  139SBC   C03897880   0.193   0.008  13.210
  139SBC   C03L97881   0.223  -0.125  13.247
  139SBC   H00897882   0.224  -0.145  13.354
  139SBC   C02V97883   0.221  -0.031  12.845
  139SBC   C03K97884   0.265  -0.222  13.156
  139SBC   C0BK97885   0.326  -0.341  13.191
  139SBC   H00T97886   0.348  -0.361  13.295
  139SBC   C03H97887   0.285  -0.251  12.786
  139SBC   C0BL97888   0.370  -0.444  13.107
  139SBC   C0GU97889   0.429  -0.560  13.162
  139SBC   H01O97890   0.436  -0.568  13.269
  139SBC   C0GT97891   0.468  -0.671  13.084
  139SBC   H01P97892   0.514  -0.759  13.127
  139SBC   C0GS97893   0.450  -0.658  12.946
  139SBC   C0GV97894   0.485  -0.755  12.844
  139SBC   C0GW97895   0.533  -0.881  12.860
  139SBC   H01Q97896   0.551  -0.927  12.957
  139SBC   C0GX97897   0.546  -0.953  12.747
  139SBC   H01R97898   0.592  -1.049  12.758
  139SBC   O00L97899   0.508  -0.910  12.621
  139SBC   C0GQ97900   0.446  -0.701  12.721
  139SBC   C03A97901   0.302  -0.347  12.679
  139SBC   C05L97902   0.467  -0.781  12.607
  139SBC   C04W97903   0.647  -0.851  12.053
  139SBC   C05I97904   0.724  -0.936  11.977
  139SBC   C05O97905   0.734  -1.073  12.005
  139SBC   C05297906   0.803  -0.886  11.873
  139SBC   C04V97907   0.628  -0.721  12.008
  139SBC   C04U97908   0.712  -0.670  11.908
  139SBC   N00997909   0.664  -1.123  12.116
  139SBC   C0GP97910   0.819  -1.152  11.937
  139SBC   C05W97911   0.897  -1.103  11.836
  139SBC   C07D97912   1.169  -1.226  11.620
  139SBC   C06J97913   1.150  -0.954  11.543
  139SBC   C05P97914   0.888  -0.971  11.802
  139SBC   C05R97915   1.052  -0.739  11.572
  139SBC   C04Z97916   0.798  -0.751  11.841
  139SBC   C04C97917   0.957  -0.521  11.603
  139SBC   C04G97918   0.848  -0.306  11.622
  139SBC   C04J97919   0.678  -0.132  11.755
  139SBC   C04T97920   0.702  -0.538  11.865
  139SBC   N00397921   0.550  -0.633  12.080
  139SBC   C04P97922   0.435  -0.579  12.291
  139SBC   C03D97923   0.329  -0.383  12.447
  139SBC   C02197924   0.294  -0.131  12.378
  139SBC   C03F97925   0.438  -0.280  12.070
  139SBC   C02297926   0.323   0.038  12.215
  139SBC   C02A97927   0.510  -0.098  11.929
  139SBC   C02397928   0.389   0.215  12.076
  139SBC   C02597929   0.543   0.313  11.865
  139SBC   C02D97930   0.638   0.366  11.776
  139SBC   C02E97931   0.659   0.497  11.767
  139SBC   C02N97932   0.754   0.554  11.679
  139SBC   C04N97933   0.594  -0.044  11.829
  139SBC   C02P97934   0.715   0.280  11.699
  139SBC   C04I97935   0.769  -0.081  11.667
  139SBC   C04497936   0.964   0.022  11.501
  139SBC   C04397937   0.814   0.329  11.616
  139SBC   C05N97938   0.832   0.465  11.601
  139SBC   C09U97939   1.140   0.615  11.361
  139SBC   C09V97940   1.267   0.659  11.309
  139SBC   C09X97941   1.298   0.790  11.290
  139SBC   C09Y97942   1.423   0.843  11.256
  139SBC   C0A197943   1.523   0.759  11.234
  139SBC   C0A297944   1.490   0.620  11.235
  139SBC   C0A497945   1.588   0.525  11.203
  139SBC   C07197946   1.558   0.389  11.195
  139SBC   C0A597947   1.650   0.300  11.146
  139SBC   C0A997948   1.775   0.346  11.113
  139SBC   C0A897949   1.805   0.480  11.132
  139SBC   C0AP97950   1.927   0.530  11.094
  139SBC   C0BY97951   1.953   0.665  11.110
  139SBC   C0BX97952   1.871   0.754  11.162
  139SBC   C0C297953   1.900   0.888  11.175
  139SBC   C0C397954   1.807   0.983  11.214
  139SBC   C0CT97955   1.676   0.943  11.221
  139SBC   C0C197956   2.035   0.926  11.158
  139SBC   C0C097957   2.121   0.843  11.078
  139SBC   C0A797958   1.743   0.706  11.189
  139SBC   C0BZ97959   2.075   0.715  11.067
  139SBC   C0BO97960   2.169   0.628  11.010
  139SBC   C0BN97961   2.152   0.490  10.999
  139SBC   C0BM97962   2.253   0.411  10.954
  139SBC   C0B997963   2.222   0.278  10.936
  139SBC   C0B897964   2.097   0.231  10.972
  139SBC   C0AD97965   1.996   0.316  11.022
  139SBC   C0AF97966   2.071   0.099  10.959
  139SBC   C0AG97967   2.166   0.003  10.913
  139SBC   C0B797968   2.285   0.054  10.872
  139SBC   C0AE97969   1.950   0.053  10.993
  139SBC   C0AB97970   1.848   0.135  11.044
  139SBC   C0AA97971   1.723   0.084  11.082
  139SBC   C0AJ97972   1.922  -0.082  10.977
  139SBC   C0AK97973   1.803  -0.131  11.024
  139SBC   C06W97974   1.806  -0.264  10.999
  139SBC   C0AI97975   2.007  -0.181  10.927
  139SBC   C0BP97976   2.289   0.694  10.993
  139SBC   C0BQ97977   2.402   0.611  10.957
  139SBC   C0BW97978   2.022   0.448  11.035
  139SBC   C0AC97979   1.873   0.267  11.063
  139SBC   C0A697980   1.714   0.572  11.175
  139SBC   C0A397981   1.648   0.804  11.213
  139SBC   C09Z97982   1.445   0.982  11.241
  139SBC   C09W97983   1.365   0.567  11.274
  139SBC   C07297984   1.334   0.434  11.272
  139SBC   C09H97985   1.191   0.875  11.300
  139SBC   C09G97986   1.217   1.011  11.273
  139SBC   C09P97987   1.100   1.074  11.325
  139SBC   C02O97988   0.845   0.898  11.553
  139SBC   C02M97989   0.762   0.697  11.660
  139SBC   C02F97990   0.572   0.580  11.833
  139SBC   C00W97991   0.411   0.611  12.016
  139SBC   C01R97992   0.356   0.803  12.223
  139SBC   C01N97993   0.527   0.927  11.926
  139SBC   C01L97994   0.656   1.132  11.918
  139SBC   C01H97995   0.650   1.406  12.142
  139SBC   C01K97996   0.469   1.099  12.239
  139SBC   C01E97997   0.453   1.225  12.480
  139SBC   C01G97998   0.639   1.488  12.267
  139SBC   C01D97999   0.449   1.290  12.601
  139SBC   C01A98000   0.408   1.437  12.837
  139SBC   H00198001   0.398   1.495  12.927
  139SBC   C01F98002   0.597   1.618  12.517
  139SBC   C03P98003   0.694   1.880  12.563
  139SBC   C03T98004   0.786   1.882  12.351
  139SBC   C08I98005   0.955   1.984  12.149
  139SBC   C08J98006   1.040   2.021  12.049
  139SBC   C08L98007   1.158   1.971  11.843
  139SBC   C09398008   1.304   1.909  11.649
  139SBC   C08Z98009   1.140   1.678  11.622
  139SBC   C09T98010   1.513   1.620  11.354
  139SBC   C09S98011   1.193   1.489  11.393
  139SBC   C09Q98012   1.110   1.215  11.344
  139SBC   C09F98013   1.342   1.064  11.252
  139SBC   C09E98014   1.490   1.397  11.263
  139SBC   C0A098015   1.574   1.035  11.230
  139SBC   C0CU98016   1.843   1.111  11.239
  139SBC   C0CR98017   1.982   1.135  11.250
  139SBC   C0CZ98018   2.022   1.265  11.293
  139SBC   C0DA98019   1.587   1.502  11.292
  139SBC   C0D998020   1.901   1.666  11.191
  139SBC   H00V98021   1.864   1.703  11.097
  139SBC   C0CY98022   1.921   1.367  11.301
  139SBC   C0DF98023   2.034   1.681  11.255
  139SBC   C0DE98024   2.160   1.735  11.211
  139SBC   C0GI98025   2.197   1.864  11.156
  139SBC   H01K98026   2.130   1.945  11.132
  139SBC   C0GJ98027   2.328   1.885  11.132
  139SBC   H01J98028   2.352   1.981  11.088
  139SBC   O00I98029   2.430   1.794  11.171
  139SBC   C0GH98030   2.396   1.672  11.221
  139SBC   C0GG98031   2.502   1.572  11.212
  139SBC   O00G98032   2.626   1.632  11.184
  139SBC   C0G898033   2.717   1.552  11.134
  139SBC   C0G998034   2.830   1.619  11.089
  139SBC   H01G98035   2.848   1.725  11.091
  139SBC   C0GA98036   2.938   1.551  11.033
  139SBC   H01H98037   3.026   1.610  11.010
  139SBC   C0GB98038   2.935   1.411  11.007
  139SBC   C0EP98039   2.816   1.342  11.044
  139SBC   C0E898040   2.811   1.206  10.993
  139SBC   C0CK98041   2.717   1.098  11.007
  139SBC   C0CL98042   2.627   1.090  11.117
  139SBC   C0E998043   2.576   1.206  11.184
  139SBC   C0GE98044   2.594   1.350  11.180
  139SBC   C0E798045   2.920   1.142  10.943
  139SBC   C0CJ98046   2.911   1.004  10.928
  139SBC   C0E698047   3.018   0.926  10.889
  139SBC   H00Y98048   3.012   0.820  10.873
  139SBC   C0EO98049   3.136   0.997  10.860
  139SBC   H01198050   3.225   0.944  10.827
  139SBC   C0G698051   3.153   1.137  10.872
  139SBC   C0G598052   3.272   1.217  10.835
  139SBC   H01F98053   3.367   1.173  10.808
  139SBC   C0GD98054   3.266   1.354  10.862
  139SBC   H01I98055   3.357   1.409  10.845
  139SBC   O00H98056   3.161   1.420  10.914
  139SBC   C0EQ98057   3.040   1.209  10.919
  139SBC   C0GC98058   3.048   1.347  10.947
  139SBC   C0G798059   2.712   1.409  11.113
  139SBC   C0DD98060   2.265   1.643  11.252
  139SBC   C0GF98061   2.487   1.430  11.234
  139SBC   C0CO98062   2.479   1.153  11.266
  139SBC   C0D098063   2.161   1.287  11.317
  139SBC   C0C498064   2.084   1.043  11.216
  139SBC   C0CN98065   2.465   1.013  11.256
  139SBC   C0CP98066   2.262   0.827  11.029
  139SBC   C0CM98067   2.563   0.972  11.160
  139SBC   C0CI98068   2.767   0.974  10.939
  139SBC   C0CD98069   2.794   0.564  10.689
  139SBC   C0BR98070   2.525   0.668  10.916
  139SBC   C0CS98071   2.375   0.473  10.931
  139SBC   C0B698072   2.315   0.195  10.892
  139SBC   C0CG98073   2.667   0.370  10.744
  139SBC   C0CF98074   2.772   0.427  10.681
  139SBC   C0E598075   2.980   0.543  10.525
  139SBC   C0DT98076   3.157   0.382  10.388
  139SBC   C0DL98077   2.925   0.130  10.526
  139SBC   C0DM98078   2.902  -0.006  10.511
  139SBC   C0DY98079   3.103  -0.028  10.381
  139SBC   C0DU98080   3.244   0.296  10.341
  139SBC   C0F098081   3.440   0.278  10.200
  139SBC   C0F498082   3.575   0.142  10.006
  139SBC   C0FG98083   3.408  -0.124  10.204
  139SBC   O00B98084   3.577  -0.069   9.885
  139SBC   C0FN98085   3.387  -0.251  10.158
  139SBC   C0DZ98086   3.193  -0.115  10.310
  139SBC   O00C98087   3.009  -0.428  10.288
  139SBC   C0FR98088   2.891  -0.482  10.335
  139SBC   O00D98089   2.861  -0.588  10.282
  139SBC   C0E098090   2.988  -0.080  10.432
  139SBC   C0E398091   2.817  -0.409  10.434
  139SBC   C0AW98092   2.713  -0.468  10.509
  139SBC   C0AV98093   2.678  -0.608  10.500
  139SBC   H00Q98094   2.730  -0.682  10.441
  139SBC   C0AU98095   2.567  -0.663  10.576
  139SBC   H00R98096   2.551  -0.769  10.583
  139SBC   C0AT98097   2.483  -0.572  10.648
  139SBC   C0AS98098   2.361  -0.579  10.718
  139SBC   C0AR98099   2.302  -0.701  10.757
  139SBC   C0BE98100   2.524  -0.436  10.647
  139SBC   C0DN98101   2.791  -0.064  10.573
  139SBC   C0AX98102   2.638  -0.385  10.587
  139SBC   C0BB98103   2.591  -0.042  10.697
  139SBC   C0BD98104   2.432  -0.365  10.715
  139SBC   C0B298105   2.379  -0.024  10.815
  139SBC   C0AH98106   2.143  -0.135  10.897
  139SBC   C0BF98107   2.324  -0.440  10.760
  139SBC   C0AL98108   1.927  -0.299  10.936
  139SBC   C07U98109   2.089  -0.608  10.871
  139SBC   C0AQ98110   2.180  -0.709  10.825
  139SBC   C0BG98111   2.333  -0.841  10.709
  139SBC   C0FY98112   2.095  -1.111  10.660
  139SBC   C0BJ98113   2.339  -0.884  10.563
  139SBC   H00S98114   2.382  -0.823  10.486
  139SBC   C0FZ98115   2.095  -1.142  10.523
  139SBC   C07S98116   1.970  -1.104  10.727
  139SBC   C0G198117   1.771  -1.284  10.467
  139SBC   C07K98118   1.494  -1.226  10.707
  139SBC   C07H98119   1.705  -1.069  10.826
  139SBC   C06B98120   1.528  -1.121  11.121
  139SBC   C06N98121   1.484  -0.906  11.178
  139SBC   C06698122   1.798  -0.853  10.943
  139SBC   C06298123   1.734  -0.559  11.004
  139SBC   C05Y98124   1.424  -0.664  11.218
  139SBC   C06198125   1.647  -0.453  10.995
  139SBC   C05H98126   1.377  -0.331  11.198
  139SBC   C06V98127   1.687  -0.325  11.022
  139SBC   C06Y98128   1.697  -0.050  11.070
  139SBC   C05C98129   1.352  -0.066  11.221
  139SBC   C06Z98130   1.620   0.165  11.133
  139SBC   C07098131   1.432   0.343  11.224
  139SBC   C05B98132   1.264   0.027  11.280
  139SBC   C05798133   1.082   0.207  11.401
  139SBC   C05998134   1.212   0.389  11.325
  140SBC   C05898135  13.161   9.491   5.295
  140SBC   C05A98136  13.128   9.510   5.433
  140SBC   C06Q98137  13.133   9.402   5.519
  140SBC   C06R98138  13.101   9.424   5.657
  140SBC   C06S98139  13.057   9.551   5.707
  140SBC   C06T98140  13.021   9.564   5.842
  140SBC   C06U98141  12.986   9.684   5.923
  140SBC   C06X98142  12.970   9.816   5.892
  140SBC   C06098143  12.950   9.896   6.006
  140SBC   C05Z98144  12.879  10.018   6.040
  140SBC   C06898145  12.812   9.988   6.174
  140SBC   C06798146  12.736  10.083   6.262
  140SBC   C06998147  12.738  10.225   6.232
  140SBC   C06A98148  12.674  10.333   6.308
  140SBC   C07398149  12.571  10.353   6.395
  140SBC   C07P98150  12.499  10.475   6.384
  140SBC   C07O98151  12.502  10.572   6.271
  140SBC   H00D98152  12.550  10.549   6.177
  140SBC   C07N98153  12.455  10.703   6.279
  140SBC   H00E98154  12.471  10.766   6.193
  140SBC   C07M98155  12.405  10.741   6.398
  140SBC   H00F98156  12.369  10.842   6.400
  140SBC   C07L98157  12.379  10.649   6.507
  140SBC   C07Q98158  12.304  10.688   6.626
  140SBC   H00G98159  12.257  10.785   6.634
  140SBC   O00F98160  12.301  10.606   6.736
  140SBC   C07J98161  12.358  10.486   6.728
  140SBC   C07I98162  12.414  10.432   6.604
  140SBC   N00498163  12.472  10.303   6.604
  140SBC   C07R98164  12.463  10.225   6.726
  140SBC   C07T98165  12.407  10.280   6.839
  140SBC   C0FX98166  12.410  10.216   6.959
  140SBC   C0FW98167  12.388  10.261   7.088
  140SBC   C0G098168  12.344  10.396   7.091
  140SBC   C0G298169  12.318  10.451   7.215
  140SBC   H01E98170  12.274  10.550   7.204
  140SBC   C0G398171  12.330  10.379   7.333
  140SBC   H01C98172  12.297  10.406   7.432
  140SBC   C0G498173  12.380  10.253   7.325
  140SBC   H01D98174  12.394  10.193   7.413
  140SBC   O00E98175  12.322  10.467   6.970
  140SBC   C0FV98176  12.403  10.187   7.203
  140SBC   C0FU98177  12.448  10.051   7.186
  140SBC   H01B98178  12.455   9.985   7.271
  140SBC   C0FT98179  12.462   9.993   7.060
  140SBC   C0FS98180  12.506   9.874   6.999
  140SBC   C0BI98181  12.464   9.886   6.863
  140SBC   C0BH98182  12.518   9.785   6.780
  140SBC   C07F98183  12.591   9.798   6.660
  140SBC   C07E98184  12.598   9.909   6.573
  140SBC   C07G98185  12.555  10.039   6.596
  140SBC   C07498186  12.587  10.116   6.485
  140SBC   C06598187  12.670   9.912   6.455
  140SBC   C06498188  12.739   9.787   6.437
  140SBC   C06398189  12.814   9.752   6.326
  140SBC   C07598190  12.846   9.606   6.355
  140SBC   C0AM98191  12.798   9.557   6.480
  140SBC   C0AN98192  12.805   9.415   6.532
  140SBC   C0AO98193  12.850   9.283   6.477
  140SBC   C0B198194  12.840   9.158   6.552
  140SBC   C0B098195  12.778   9.152   6.673
  140SBC   C0AZ98196  12.757   9.036   6.751
  140SBC   C0AY98197  12.689   9.043   6.867
  140SBC   N00798198  12.657   8.931   6.939
  140SBC   C0E298199  12.577   8.935   7.060
  140SBC   C0E198200  12.543   8.819   7.121
  140SBC   C0E498201  12.454   8.824   7.230
  140SBC   C0FF98202  12.420   8.710   7.298
  140SBC   C0FJ98203  12.318   8.687   7.403
  140SBC   C0FK98204  12.199   8.755   7.445
  140SBC   H01698205  12.170   8.858   7.428
  140SBC   C0FL98206  12.118   8.648   7.511
  140SBC   H01798207  12.013   8.649   7.538
  140SBC   C0FM98208  12.184   8.526   7.516
  140SBC   C0FH98209  12.194   8.377   7.535
  140SBC   C0FI98210  12.317   8.353   7.472
  140SBC   C0F398211  12.356   8.224   7.426
  140SBC   C0F298212  12.464   8.230   7.343
  140SBC   C0DW98213  12.514   8.346   7.286
  140SBC   C0FE98214  12.474   8.466   7.331
  140SBC   C0DV98215  12.593   8.346   7.174
  140SBC   C0DX98216  12.617   8.464   7.103
  140SBC   C0DK98217  12.677   8.449   6.979
  140SBC   C0DJ98218  12.705   8.328   6.919
  140SBC   C0DI98219  12.765   8.319   6.793
  140SBC   C0DH98220  12.815   8.434   6.731
  140SBC   C0DG98221  12.779   8.557   6.786
  140SBC   C0BV98222  12.816   8.676   6.722
  140SBC   C0BC98223  12.781   8.797   6.779
  140SBC   C0BA98224  12.890   8.667   6.603
  140SBC   C0B498225  12.924   8.790   6.536
  140SBC   C0B398226  12.873   8.912   6.583
  140SBC   C0B598227  12.989   8.776   6.411
  140SBC   C0BU98228  13.029   8.649   6.364
  140SBC   C0BT98229  12.996   8.531   6.429
  140SBC   C0BS98230  13.029   8.408   6.370
  140SBC   C0CC98231  12.987   8.288   6.438
  140SBC   C0CB98232  13.008   8.163   6.387
  140SBC   C0CH98233  12.922   8.055   6.431
  140SBC   C0DO98234  12.852   8.061   6.552
  140SBC   C0DP98235  12.803   7.951   6.613
  140SBC   C0EA98236  12.818   7.818   6.551
  140SBC   H01298237  12.861   7.811   6.452
  140SBC   O00998238  12.799   7.702   6.618
  140SBC   C0EH98239  12.748   7.708   6.746
  140SBC   C0EG98240  12.725   7.592   6.820
  140SBC   C0EJ98241  12.738   7.449   6.798
  140SBC   H01098242  12.776   7.409   6.705
  140SBC   C0EK98243  12.685   7.369   6.907
  140SBC   H00Z98244  12.680   7.261   6.907
  140SBC   C0EL98245  12.632   7.464   6.992
  140SBC   C0EM98246  12.528   7.455   7.091
  140SBC   C0EW98247  12.485   7.338   7.155
  140SBC   H01398248  12.527   7.239   7.141
  140SBC   C0EX98249  12.373   7.347   7.248
  140SBC   H01498250  12.333   7.260   7.297
  140SBC   C0F198251  12.313   7.474   7.290
  140SBC   C0EU98252  12.373   7.586   7.232
  140SBC   C0ET98253  12.336   7.720   7.262
  140SBC   C0ES98254  12.421   7.792   7.170
  140SBC   C0EE98255  12.504   7.708   7.093
  140SBC   C0ED98256  12.606   7.718   6.993
  140SBC   C0EC98257  12.651   7.837   6.937
  140SBC   C0EB98258  12.635   7.965   6.996
  140SBC   C0EN98259  12.582   7.980   7.132
  140SBC   C0ER98260  12.578   8.108   7.178
  140SBC   C0DS98261  12.683   8.083   6.931
  140SBC   C0DR98262  12.738   8.077   6.802
  140SBC   C0EY98263  12.480   7.912   7.209
  140SBC   C0EZ98264  12.428   7.994   7.311
  140SBC   C0F598265  12.303   7.989   7.397
  140SBC   C0F698266  12.227   7.871   7.428
  140SBC   N00898267  12.118   7.894   7.521
  140SBC   C0F798268  12.083   8.027   7.568
  140SBC   C0FQ98269  11.977   8.037   7.663
  140SBC   H01898270  11.951   8.127   7.716
  140SBC   C0FP98271  11.909   7.925   7.713
  140SBC   H01998272  11.841   7.938   7.796
  140SBC   C0FO98273  11.951   7.801   7.661
  140SBC   H01A98274  11.913   7.707   7.699
  140SBC   C0F898275  12.157   8.132   7.521
  140SBC   C0F998276  12.050   7.783   7.571
  140SBC   C0FA98277  12.078   7.648   7.528
  140SBC   H01598278  12.020   7.571   7.575
  140SBC   C0FB98279  12.173   7.637   7.417
  140SBC   C0FD98280  12.250   7.742   7.374
  140SBC   C0FC98281  12.206   7.501   7.380
  140SBC   O00A98282  12.147   7.401   7.423
  140SBC   C0EV98283  12.472   7.576   7.139
  140SBC   C0EF98284  12.663   7.597   6.942
  140SBC   C0EI98285  12.720   7.834   6.812
  140SBC   C0DQ98286  12.751   7.953   6.743
  140SBC   C0CE98287  12.855   8.183   6.618
  140SBC   H00U98288  12.931   7.965   6.373
  140SBC   C0CA98289  13.107   8.150   6.285
  140SBC   C0C998290  13.151   8.263   6.206
  140SBC   C0C898291  13.250   8.243   6.104
  140SBC   C0C798292  13.275   8.309   5.976
  140SBC   C0C698293  13.379   8.258   5.896
  140SBC   C0C598294  13.423   8.258   5.753
  140SBC   C0CQ98295  13.502   8.154   5.710
  140SBC   C0D198296  13.499   8.036   5.785
  140SBC   C0D898297  13.480   7.930   5.701
  140SBC   C0D798298  13.540   7.972   5.578
  140SBC   C0D698299  13.520   7.899   5.461
  140SBC   C0D598300  13.564   7.944   5.334
  140SBC   C0D498301  13.588   8.077   5.285
  140SBC   C0D398302  13.558   8.083   5.142
  140SBC   C0CX98303  13.504   8.212   5.108
  140SBC   C0CW98304  13.472   8.285   5.231
  140SBC   C0CV98305  13.420   8.415   5.276
  140SBC   C0D298306  13.374   8.515   5.179
  140SBC   C09D98307  13.361   8.498   5.039
  140SBC   C09C98308  13.319   8.602   4.955
  140SBC   C09B98309  13.312   8.610   4.815
  140SBC   C09A98310  13.348   8.493   4.754
  140SBC   C09998311  13.372   8.380   4.821
  140SBC   C09898312  13.453   8.296   4.743
  140SBC   C08Y98313  13.496   8.374   4.626
  140SBC   C08X98314  13.602   8.356   4.528
  140SBC   C08W98315  13.690   8.240   4.542
  140SBC   C08U98316  13.681   8.139   4.652
  140SBC   C08V98317  13.617   8.123   4.781
  140SBC   C0DC98318  13.638   7.989   4.831
  140SBC   H00W98319  13.581   7.947   4.912
  140SBC   C0DB98320  13.720   7.923   4.732
  140SBC   H00X98321  13.743   7.818   4.718
  140SBC   C08T98322  13.757   8.020   4.640
  140SBC   C08S98323  13.846   7.998   4.542
  140SBC   H00N98324  13.899   7.904   4.537
  140SBC   C08R98325  13.880   8.102   4.448
  140SBC   C08Q98326  13.983   8.101   4.356
  140SBC   H00O98327  14.055   8.020   4.360
  140SBC   C08P98328  14.015   8.198   4.258
  140SBC   C08O98329  14.125   8.185   4.164
  140SBC   H00P98330  14.189   8.098   4.162
  140SBC   C08N98331  14.152   8.300   4.075
  140SBC   C08M98332  14.270   8.300   3.987
  140SBC   O00898333  14.346   8.205   3.977
  140SBC   O00798334  14.292   8.404   3.903
  140SBC   C08H98335  14.212   8.515   3.910
  140SBC   C08G98336  14.241   8.627   3.832
  140SBC   C03V98337  14.348   8.641   3.751
  140SBC   H00998338  14.412   8.556   3.732
  140SBC   C03U98339  14.375   8.753   3.673
  140SBC   C03W98340  14.482   8.775   3.577
  140SBC   H00A98341  14.557   8.699   3.562
  140SBC   C03X98342  14.493   8.886   3.508
  140SBC   H00B98343  14.580   8.892   3.444
  140SBC   O00598344  14.408   8.995   3.516
  140SBC   C03O98345  14.311   8.981   3.615
  140SBC   C03N98346  14.217   9.084   3.635
  140SBC   O00098347  14.244   9.191   3.567
  140SBC   C01998348  14.176   9.307   3.595
  140SBC   C01898349  14.069   9.315   3.692
  140SBC   C01798350  14.040   9.198   3.762
  140SBC   C01698351  13.933   9.191   3.853
  140SBC   C01598352  13.860   9.309   3.858
  140SBC   C01498353  13.741   9.306   3.928
  140SBC   C01398354  13.702   9.189   4.000
  140SBC   C01298355  13.593   9.243   4.075
  140SBC   C01198356  13.565   9.372   4.035
  140SBC   C01098357  13.472   9.448   4.090
  140SBC   C00Z98358  13.467   9.587   4.087
  140SBC   C00Y98359  13.384   9.621   4.192
  140SBC   C01O98360  13.346   9.505   4.259
  140SBC   C01P98361  13.328   9.511   4.396
  140SBC   C02L98362  13.338   9.396   4.466
  140SBC   C02K98363  13.377   9.283   4.397
  140SBC   C01M98364  13.432   9.278   4.264
  140SBC   C02J98365  13.350   9.169   4.467
  140SBC   C02I98366  13.377   9.040   4.427
  140SBC   C02H98367  13.446   8.984   4.318
  140SBC   C01Q98368  13.514   9.050   4.215
  140SBC   C02G98369  13.585   8.951   4.144
  140SBC   C08998370  13.530   8.828   4.180
  140SBC   C08898371  13.636   8.742   4.165
  140SBC   C08798372  13.738   8.811   4.076
  140SBC   C08698373  13.864   8.768   4.028
  140SBC   C03S98374  13.959   8.833   3.948
  140SBC   N00698375  14.059   8.741   3.930
  140SBC   C08F98376  14.032   8.630   4.003
  140SBC   C01J98377  13.978   8.954   3.887
  140SBC   C03R98378  14.093   8.965   3.806
  140SBC   C03Q98379  14.182   8.857   3.779
  140SBC   C08E98380  13.918   8.641   4.073
  140SBC   C08D98381  13.869   8.530   4.154
  140SBC   C08K98382  13.954   8.413   4.162
  140SBC   C08C98383  13.759   8.528   4.237
  140SBC   C09198384  13.742   8.422   4.334
  140SBC   C09298385  13.826   8.311   4.352
  140SBC   C08B98386  13.657   8.623   4.253
  140SBC   C09098387  13.572   8.568   4.366
  140SBC   C09498388  13.446   8.620   4.414
  140SBC   C09598389  13.399   8.598   4.547
  140SBC   C09R98390  13.345   8.710   4.602
  140SBC   C09798391  13.360   8.813   4.509
  140SBC   C09698392  13.416   8.757   4.399
  140SBC   C01I98393  13.705   8.953   4.065
  140SBC   C08A98394  13.456   8.847   4.297
  140SBC   C09L98395  13.332   8.954   4.527
  140SBC   C09K98396  13.284   9.035   4.635
  140SBC   C09J98397  13.250   8.980   4.766
  140SBC   C09I98398  13.241   9.056   4.883
  140SBC   C09O98399  13.238   9.194   4.924
  140SBC   C09N98400  13.251   9.298   4.827
  140SBC   C09M98401  13.289   9.292   4.686
  140SBC   C06O98402  13.233   9.428   4.886
  140SBC   C05M98403  13.205   9.447   5.020
  140SBC   C06P98404  13.209   9.343   5.110
  140SBC   C04298405  13.184   9.577   5.073
  140SBC   C04198406  13.193   9.689   4.992
  140SBC   C04098407  13.176   9.821   5.040
  140SBC   C03Z98408  13.174   9.931   4.956
  140SBC   C03Y98409  13.203   9.912   4.823
  140SBC   C02798410  13.195  10.024   4.740
  140SBC   C02698411  13.230  10.012   4.609
  140SBC   C02898412  13.241  10.122   4.524
  140SBC   C02998413  13.218  10.254   4.572
  140SBC   C02B98414  13.241  10.365   4.492
  140SBC   C02C98415  13.214  10.488   4.541
  140SBC   C02X98416  13.244  10.600   4.468
  140SBC   C03E98417  13.235  10.724   4.529
  140SBC   C03G98418  13.198  10.745   4.657
  140SBC   C04Q98419  13.172  10.632   4.729
  140SBC   C04R98420  13.140  10.647   4.867
  140SBC   C04S98421  13.118  10.536   4.946
  140SBC   C04L98422  13.131  10.415   4.891
  140SBC   C04M98423  13.171  10.398   4.758
  140SBC   C04K98424  13.119  10.298   4.968
  140SBC   C04F98425  13.092  10.313   5.102
  140SBC   C04E98426  13.066  10.438   5.155
  140SBC   C04D98427  13.032  10.449   5.289
  140SBC   C05098428  13.024  10.570   5.349
  140SBC   C05198429  13.005  10.584   5.489
  140SBC   C05Q98430  13.026  10.706   5.552
  140SBC   C05V98431  13.005  10.711   5.689
  140SBC   N00598432  13.045  10.827   5.757
  140SBC   C07V98433  13.093  10.936   5.683
  140SBC   C08298434  13.134  11.053   5.750
  140SBC   C08198435  13.134  11.064   5.891
  140SBC   C07C98436  13.082  10.954   5.965
  140SBC   C07B98437  13.078  10.960   6.103
  140SBC   C08098438  13.128  11.072   6.170
  140SBC   C07Z98439  13.119  11.068   6.306
  140SBC   H00L98440  13.161  11.157   6.348
  140SBC   C07998441  13.049  10.977   6.382
  140SBC   C07898442  12.995  10.868   6.314
  140SBC   C07798443  12.918  10.765   6.379
  140SBC   C07X98444  12.895  10.772   6.516
  140SBC   H00I98445  12.834  10.700   6.568
  140SBC   C07Y98446  12.938  10.887   6.583
  140SBC   H00H98447  12.913  10.900   6.688
  140SBC   C07698448  12.872  10.653   6.306
  140SBC   C06C98449  12.787  10.557   6.368
  140SBC   H00C98450  12.735  10.546   6.462
  140SBC   C06F98451  12.904  10.643   6.175
  140SBC   C06E98452  12.878  10.528   6.101
  140SBC   C06G98453  12.903  10.508   5.969
  140SBC   C06H98454  12.949  10.615   5.894
  140SBC   C06I98455  12.986  10.729   5.967
  140SBC   C06L98456  12.889  10.375   5.920
  140SBC   C06M98457  12.857  10.258   6.001
  140SBC   C06K98458  12.924  10.363   5.783
  140SBC   C05S98459  12.949  10.480   5.706
  140SBC   C05U98460  12.935  10.239   5.729
  140SBC   C05X98461  12.919  10.120   5.811
  140SBC   C05G98462  12.945   9.996   5.735
  140SBC   C05F98463  12.967  10.004   5.600
  140SBC   C05E98464  13.011   9.881   5.551
  140SBC   C04898465  13.059   9.864   5.424
  140SBC   C05698466  13.086   9.736   5.383
  140SBC   C04598467  13.129   9.725   5.252
  140SBC   C04798468  13.055   9.977   5.342
  140SBC   C04998469  13.029  10.104   5.389
  140SBC   C04B98470  13.040  10.215   5.312
  140SBC   C04698471  13.094   9.962   5.214
  140SBC   C04H98472  13.103  10.077   5.131
  140SBC   C05D98473  13.006   9.782   5.651
  140SBC   C04A98474  12.989  10.115   5.520
  140SBC   C05T98475  12.965  10.232   5.590
  140SBC   C05598476  12.987  10.349   5.509
  140SBC   C06D98477  12.812  10.426   6.168
  140SBC   C07W98478  12.966  10.744   6.107
  140SBC   C08598479  13.014  10.980   6.517
  140SBC   H00M98480  13.044  11.065   6.577
  140SBC   C08498481  13.181  11.178   6.097
  140SBC   H00J98482  13.221  11.270   6.137
  140SBC   C07A98483  13.018  10.855   6.177
  140SBC   C08398484  13.188  11.167   5.964
  140SBC   H00K98485  13.238  11.245   5.907
  140SBC   O00K98486  13.192  11.160   5.685
  140SBC   C0GO98487  13.205  11.152   5.551
  140SBC   C0GN98488  13.270  11.255   5.481
  140SBC   H01L98489  13.304  11.339   5.540
  140SBC   C0GM98490  13.281  11.247   5.341
  140SBC   C0GL98491  13.343  11.345   5.273
  140SBC   H01M98492  13.378  11.431   5.328
  140SBC   O00J98493  13.362  11.338   5.137
  140SBC   C0GK98494  13.319  11.221   5.076
  140SBC   H01N98495  13.359  11.213   4.976
  140SBC   C05K98496  13.248  11.127   5.141
  140SBC   C05J98497  13.195  11.020   5.062
  140SBC   C04Y98498  13.196  11.004   4.918
  140SBC   C04X98499  13.185  10.881   4.850
  140SBC   O00698500  13.221  11.118   4.843
  140SBC   C05398501  13.278  11.105   4.712
  140SBC   C04O98502  13.261  10.981   4.646
  140SBC   C03C98503  13.308  10.951   4.511
  140SBC   C03B98504  13.394  11.018   4.418
  140SBC   C05498505  13.448  11.142   4.434
  140SBC   C0GR98506  13.541  11.203   4.342
  140SBC   C03M98507  13.617  11.161   4.223
  140SBC   C03I98508  13.613  11.028   4.161
  140SBC   C03J98509  13.709  11.000   4.055
  140SBC   N00298510  13.717  10.866   4.001
  140SBC   C02U98511  13.811  10.839   3.897
  140SBC   C02T98512  13.828  10.710   3.846
  140SBC   C02Z98513  13.929  10.686   3.751
  140SBC   N00198514  13.951  10.556   3.702
  140SBC   C02R98515  14.058  10.527   3.611
  140SBC   C03298516  14.132  10.636   3.562
  140SBC   C03198517  14.098  10.767   3.600
  140SBC   H00798518  14.160  10.851   3.572
  140SBC   C03398519  14.234  10.596   3.467
  140SBC   H00398520  14.293  10.668   3.412
  140SBC   O00498521  14.265  10.467   3.438
  140SBC   C03498522  14.187  10.367   3.477
  140SBC   C03598523  14.203  10.237   3.423
  140SBC   C03698524  14.107  10.136   3.450
  140SBC   H00598525  14.111  10.044   3.393
  140SBC   C03798526  14.009  10.162   3.543
  140SBC   H00698527  13.935  10.084   3.551
  140SBC   C00D98528  13.997  10.284   3.612
  140SBC   C00C98529  13.901  10.308   3.707
  140SBC   C00B98530  13.816  10.196   3.762
  140SBC   C00A98531  13.797  10.049   3.761
  140SBC   C00998532  13.671  10.030   3.827
  140SBC   C00898533  13.620   9.913   3.891
  140SBC   C00798534  13.691   9.797   3.869
  140SBC   C00698535  13.640   9.681   3.929
  140SBC   C00598536  13.700   9.553   3.889
  140SBC   C00498537  13.825   9.557   3.821
  140SBC   C00398538  13.878   9.678   3.776
  140SBC   C00298539  13.997   9.676   3.698
  140SBC   C01C98540  14.052   9.553   3.660
  140SBC   C01B98541  14.164   9.547   3.566
  140SBC   H00098542  14.197   9.634   3.511
  140SBC   C00198543  14.056   9.798   3.667
  140SBC   C00098544  14.002   9.912   3.727
  140SBC   C01U98545  14.113   9.996   3.742
  140SBC   H00298546  14.123  10.093   3.789
  140SBC   C01T98547  14.235   9.930   3.699
  140SBC   O00298548  14.355   9.970   3.697
  140SBC   O00198549  14.194   9.809   3.643
  140SBC   C01S98550  13.809   9.798   3.800
  140SBC   C00N98551  13.522   9.934   3.987
  140SBC   C00M98552  13.476  10.061   4.024
  140SBC   C00J98553  13.519  10.174   3.967
  140SBC   C00I98554  13.504  10.301   4.013
  140SBC   C00H98555  13.576  10.408   3.961
  140SBC   C00G98556  13.682  10.384   3.872
  140SBC   C00F98557  13.772  10.478   3.834
  140SBC   C01X98558  13.560  10.536   4.012
  140SBC   C01W98559  13.472  10.555   4.118
  140SBC   C01V98560  13.413  10.446   4.176
  140SBC   C02098561  13.335  10.458   4.292
  140SBC   C01Z98562  13.455  10.683   4.177
  140SBC   C02Y98563  13.372  10.689   4.284
  140SBC   C03998564  13.357  10.814   4.337
  140SBC   C02W98565  13.540  10.789   4.140
  140SBC   C01Y98566  13.645  10.639   3.971
  140SBC   C00U98567  13.428  10.317   4.123
  140SBC   C00S98568  13.375  10.210   4.190
  140SBC   C00T98569  13.318  10.223   4.317
  140SBC   C00R98570  13.406  10.080   4.143
  140SBC   C00Q98571  13.371   9.970   4.220
  140SBC   C00V98572  13.315   9.983   4.347
  140SBC   C02498573  13.281   9.873   4.423
  140SBC   C00X98574  13.301   9.748   4.373
  140SBC   C00P98575  13.397   9.845   4.168
  140SBC   C00O98576  13.480   9.824   4.055
  140SBC   C00K98577  13.620  10.154   3.869
  140SBC   N00098578  13.876   9.928   3.765
  140SBC   C00L98579  13.701  10.256   3.825
  140SBC   H00498580  14.276  10.213   3.347
  140SBC   C02Q98581  14.077  10.395   3.571
  140SBC   C00E98582  13.873  10.443   3.743
  140SBC   C03098583  14.005  10.790   3.703
  140SBC   O00398584  13.984  10.919   3.746
  140SBC   C02S98585  13.744  10.609   3.882
  140SBC   C03898586  13.898  10.944   3.851
  140SBC   C03L98587  13.873  11.073   3.891
  140SBC   H00898588  13.930  11.159   3.860
  140SBC   C02V98589  13.633  10.761   4.037
  140SBC   C03K98590  13.782  11.106   3.996
  140SBC   C0BK98591  13.766  11.232   4.050
  140SBC   H00T98592  13.815  11.312   3.996
  140SBC   C03H98593  13.531  10.916   4.201
  140SBC   C0BL98594  13.693  11.267   4.159
  140SBC   C0GU98595  13.687  11.393   4.210
  140SBC   H01O98596  13.741  11.467   4.152
  140SBC   C0GT98597  13.631  11.432   4.331
  140SBC   H01P98598  13.625  11.537   4.357
  140SBC   C0GS98599  13.552  11.340   4.390
  140SBC   C0GV98600  13.483  11.355   4.512
  140SBC   C0GW98601  13.459  11.473   4.592
  140SBC   H01Q98602  13.488  11.570   4.555
  140SBC   C0GX98603  13.391  11.459   4.707
  140SBC   H01R98604  13.375  11.548   4.766
  140SBC   O00L98605  13.340  11.336   4.749
  140SBC   C0GQ98606  13.415  11.233   4.539
  140SBC   C03A98607  13.433  10.928   4.314
  140SBC   C05L98608  13.339  11.226   4.661
  140SBC   C04W98609  13.153  10.908   5.132
  140SBC   C05I98610  13.137  10.912   5.273
  140SBC   C05O98611  13.171  11.026   5.342
  140SBC   C05298612  13.081  10.804   5.335
  140SBC   C04V98613  13.130  10.787   5.065
  140SBC   C04U98614  13.086  10.674   5.134
  140SBC   N00998615  13.228  11.135   5.279
  140SBC   C0GP98616  13.158  11.036   5.482
  140SBC   C05W98617  13.110  10.928   5.547
  140SBC   C07D98618  13.041  10.837   5.898
  140SBC   C06J98619  12.962  10.604   5.763
  140SBC   C05P98620  13.067  10.814   5.474
  140SBC   C05R98621  12.980  10.469   5.567
  140SBC   C04Z98622  13.061  10.683   5.271
  140SBC   C04C98623  13.017  10.337   5.371
  140SBC   C04G98624  13.080  10.202   5.183
  140SBC   C04J98625  13.153  10.172   4.918
  140SBC   C04T98626  13.084  10.552   5.077
  140SBC   N00398627  13.148  10.771   4.926
  140SBC   C04P98628  13.208  10.871   4.716
  140SBC   C03D98629  13.291  10.825   4.456
  140SBC   C02198630  13.305  10.583   4.340
  140SBC   C03F98631  13.182  10.504   4.677
  140SBC   C02298632  13.290  10.351   4.365
  140SBC   C02A98633  13.187  10.269   4.705
  140SBC   C02398634  13.296  10.110   4.394
  140SBC   C02598635  13.249   9.888   4.554
  140SBC   C02D98636  13.244   9.769   4.633
  140SBC   C02E98637  13.273   9.643   4.588
  140SBC   C02N98638  13.270   9.530   4.666
  140SBC   C04N98639  13.173  10.156   4.787
  140SBC   C02P98640  13.223   9.783   4.771
  140SBC   C04I98641  13.140  10.058   5.002
  140SBC   C04498642  13.135   9.836   5.169
  140SBC   C04398643  13.223   9.672   4.859
  140SBC   C05N98644  13.247   9.543   4.806
  140SBC   C09U98645  13.226   9.215   5.064
  140SBC   C09V98646  13.236   9.111   5.159
  140SBC   C09X98647  13.259   8.981   5.124
  140SBC   C09Y98648  13.281   8.875   5.204
  140SBC   C0A198649  13.275   8.897   5.336
  140SBC   C0A298650  13.246   9.025   5.382
  140SBC   C0A498651  13.228   9.047   5.518
  140SBC   C07198652  13.200   9.177   5.563
  140SBC   C0A598653  13.162   9.191   5.695
  140SBC   C0A998654  13.168   9.085   5.784
  140SBC   C0A898655  13.212   8.960   5.740
  140SBC   C0AP98656  13.209   8.853   5.824
  140SBC   C0BY98657  13.246   8.731   5.773
  140SBC   C0BX98658  13.279   8.703   5.642
  140SBC   C0C298659  13.313   8.573   5.599
  140SBC   C0C398660  13.354   8.557   5.468
  140SBC   C0CT98661  13.337   8.663   5.378
  140SBC   C0C198662  13.317   8.465   5.682
  140SBC   C0C098663  13.244   8.485   5.815
  140SBC   C0A798664  13.276   8.814   5.560
  140SBC   C0BZ98665  13.220   8.618   5.849
  140SBC   C0BO98666  13.161   8.635   5.973
  140SBC   C0BN98667  13.152   8.758   6.039
  140SBC   C0BM98668  13.099   8.760   6.165
  140SBC   C0B998669  13.056   8.883   6.215
  140SBC   C0B898670  13.069   9.000   6.135
  140SBC   C0AD98671  13.124   8.989   6.004
  140SBC   C0AF98672  13.020   9.119   6.182
  140SBC   C0AG98673  12.963   9.132   6.307
  140SBC   C0B798674  12.948   9.016   6.386
  140SBC   C0AE98675  13.033   9.220   6.094
  140SBC   C0AB98676  13.081   9.217   5.962
  140SBC   C0AA98677  13.078   9.327   5.875
  140SBC   C0AJ98678  12.987   9.343   6.141
  140SBC   C0AK98679  12.989   9.454   6.053
  140SBC   C06W98680  12.955   9.562   6.127
  140SBC   C0AI98681  12.935   9.377   6.265
  140SBC   C0BP98682  13.150   8.509   6.036
  140SBC   C0BQ98683  13.113   8.515   6.177
  140SBC   C0BW98684  13.165   8.867   5.957
  140SBC   C0AC98685  13.122   9.093   5.917
  140SBC   C0A698686  13.240   8.943   5.607
  140SBC   C0A398687  13.292   8.788   5.425
  140SBC   C09Z98688  13.300   8.745   5.155
  140SBC   C09W98689  13.227   9.132   5.294
  140SBC   C07298690  13.199   9.258   5.339
  140SBC   C09H98691  13.252   8.958   4.989
  140SBC   C09G98692  13.268   8.833   4.939
  140SBC   C09P98693  13.275   8.842   4.802
  140SBC   C02O98694  13.303   9.169   4.604
  140SBC   C02M98695  13.299   9.405   4.606
  140SBC   C02F98696  13.305   9.634   4.455
  140SBC   C00W98697  13.352   9.746   4.243
  140SBC   C01R98698  13.531   9.699   4.020
  140SBC   C01N98699  13.413   9.403   4.205
  140SBC   C01L98700  13.515   9.186   4.192
  140SBC   C01H98701  13.773   9.064   4.000
  140SBC   C01K98702  13.663   9.424   3.947
  140SBC   C01E98703  13.895   9.434   3.801
  140SBC   C01G98704  13.892   9.063   3.917
  140SBC   C01D98705  14.010   9.436   3.721
  140SBC   C01A98706  14.222   9.422   3.536
  140SBC   H00198707  14.312   9.417   3.476
  140SBC   C01F98708  14.110   9.083   3.731
  140SBC   C03P98709  14.290   8.867   3.691
  140SBC   C03T98710  14.166   8.738   3.848
  140SBC   C08I98711  14.104   8.513   4.001
  140SBC   C08J98712  14.064   8.405   4.075
  140SBC   C08L98713  13.930   8.308   4.255
  140SBC   C09398714  13.800   8.212   4.453
  140SBC   C08Z98715  13.635   8.443   4.420
  140SBC   C09T98716  13.526   8.215   4.835
  140SBC   C09S98717  13.410   8.485   4.630
  140SBC   C09Q98718  13.306   8.725   4.736
  140SBC   C09F98719  13.293   8.720   5.017
  140SBC   C09E98720  13.402   8.381   4.958
  140SBC   C0A098721  13.340   8.640   5.237
  140SBC   C0CU98722  13.403   8.433   5.419
  140SBC   C0CR98723  13.426   8.333   5.512
  140SBC   C0CZ98724  13.490   8.212   5.471
  140SBC   C0DA98725  13.480   8.261   4.976
  140SBC   C0D998726  13.478   7.966   5.117
  140SBC   H00V98727  13.400   7.956   5.043
  140SBC   C0CY98728  13.528   8.195   5.332
  140SBC   C0DF98729  13.506   7.873   5.227
  140SBC   C0DE98730  13.445   7.760   5.292
  140SBC   C0GI98731  13.390   7.646   5.235
  140SBC   H01K98732  13.393   7.634   5.128
  140SBC   C0GJ98733  13.333   7.558   5.321
  140SBC   H01J98734  13.285   7.466   5.289
  140SBC   O00I98735  13.335   7.570   5.462
  140SBC   C0GH98736  13.392   7.680   5.523
  140SBC   C0GG98737  13.370   7.694   5.668
  140SBC   O00G98738  13.295   7.588   5.712
  140SBC   C0G898739  13.253   7.594   5.842
  140SBC   C0G998740  13.195   7.472   5.891
  140SBC   H01G98741  13.191   7.383   5.829
  140SBC   C0GA98742  13.151   7.462   6.022
  140SBC   H01H98743  13.103   7.372   6.058
  140SBC   C0GB98744  13.172   7.564   6.115
  140SBC   C0EP98745  13.218   7.690   6.062
  140SBC   C0E898746  13.188   7.805   6.150
  140SBC   C0CK98747  13.182   7.945   6.130
  140SBC   C0CL98748  13.299   8.000   6.071
  140SBC   C0E998749  13.358   7.938   5.955
  140SBC   C0GE98750  13.342   7.815   5.875
  140SBC   C0E798751  13.174   7.785   6.288
  140SBC   C0CJ98752  13.156   7.909   6.358
  140SBC   C0E698753  13.150   7.900   6.496
  140SBC   H00Y98754  13.138   7.990   6.554
  140SBC   C0EO98755  13.132   7.771   6.558
  140SBC   H01198756  13.126   7.758   6.665
  140SBC   C0G698757  13.121   7.651   6.477
  140SBC   C0G598758  13.085   7.519   6.523
  140SBC   H01F98759  13.050   7.502   6.624
  140SBC   C0GD98760  13.083   7.416   6.434
  140SBC   H01I98761  13.064   7.319   6.478
  140SBC   O00H98762  13.118   7.423   6.299
  140SBC   C0EQ98763  13.146   7.658   6.339
  140SBC   C0GC98764  13.141   7.546   6.254
  140SBC   C0G798765  13.263   7.707   5.928
  140SBC   C0DD98766  13.455   7.775   5.438
  140SBC   C0GF98767  13.401   7.810   5.744
  140SBC   C0CO98768  13.445   8.040   5.914
  140SBC   C0D098769  13.507   8.117   5.580
  140SBC   C0C498770  13.387   8.345   5.650
  140SBC   C0CN98771  13.436   8.157   5.982
  140SBC   C0CP98772  13.198   8.413   5.938
  140SBC   C0CM98773  13.350   8.133   6.094
  140SBC   C0CI98774  13.147   8.010   6.257
  140SBC   C0CD98775  12.910   8.300   6.558
  140SBC   C0BR98776  13.098   8.393   6.246
  140SBC   C0CS98777  13.076   8.643   6.233
  140SBC   C0B698778  13.005   8.893   6.340
  140SBC   C0CG98779  12.928   8.544   6.550
  140SBC   C0CF98780  12.885   8.426   6.610
  140SBC   C0E598781  12.781   8.193   6.737
  140SBC   C0DT98782  12.675   8.213   6.988
  140SBC   C0DL98783  12.711   8.569   6.912
  140SBC   C0DM98784  12.668   8.693   6.960
  140SBC   C0DY98785  12.567   8.585   7.149
  140SBC   C0DU98786  12.623   8.226   7.114
  140SBC   C0F098787  12.497   8.109   7.291
  140SBC   C0F498788  12.276   8.117   7.447
  140SBC   C0FG98789  12.388   8.465   7.438
  140SBC   O00B98790  12.114   8.261   7.551
  140SBC   C0FN98791  12.313   8.566   7.476
  140SBC   C0DZ98792  12.489   8.590   7.263
  140SBC   O00C98793  12.405   8.948   7.274
  140SBC   C0FR98794  12.437   9.059   7.220
  140SBC   O00D98795  12.386   9.159   7.268
  140SBC   C0E098796  12.593   8.700   7.076
  140SBC   C0E398797  12.531   9.058   7.106
  140SBC   C0AW98798  12.568   9.173   7.039
  140SBC   C0AV98799  12.532   9.307   7.075
  140SBC   H00Q98800  12.464   9.330   7.156
  140SBC   C0AU98801  12.569   9.417   7.004
  140SBC   H00R98802  12.539   9.517   7.033
  140SBC   C0AT98803  12.637   9.400   6.881
  140SBC   C0AS98804  12.690   9.488   6.773
  140SBC   C0AR98805  12.687   9.631   6.782
  140SBC   C0BE98806  12.679   9.276   6.850
  140SBC   C0DN98807  12.701   8.808   6.891
  140SBC   C0AX98808  12.647   9.163   6.928
  140SBC   C0BB98809  12.808   8.915   6.708
  140SBC   C0BD98810  12.737   9.275   6.725
  140SBC   C0B298811  12.887   9.030   6.508
  140SBC   C0AH98812  12.915   9.261   6.352
  140SBC   C0BF98813  12.745   9.400   6.664
  140SBC   C0AL98814  12.909   9.516   6.259
  140SBC   C07U98815  12.737   9.675   6.530
  140SBC   C0AQ98816  12.676   9.691   6.651
  140SBC   C0BG98817  12.592   9.701   6.865
  140SBC   C0FY98818  12.459  10.018   6.832
  140SBC   C0BJ98819  12.589   9.754   7.002
  140SBC   H00S98820  12.645   9.717   7.086
  140SBC   C0FZ98821  12.433  10.079   6.950
  140SBC   C07S98822  12.491  10.087   6.718
  140SBC   C0G198823  12.359  10.411   6.848
  140SBC   C07K98824  12.431  10.518   6.496
  140SBC   C07H98825  12.540  10.252   6.489
  140SBC   C06B98826  12.761  10.444   6.289
  140SBC   C06N98827  12.799  10.299   6.124
  140SBC   C06698828  12.669  10.042   6.390
  140SBC   C06298829  12.858   9.849   6.218
  140SBC   C05Y98830  12.873  10.131   5.948
  140SBC   C06198831  12.946   9.809   6.114
  140SBC   C05H98832  12.959   9.859   5.764
  140SBC   C06V98833  12.968   9.683   6.063
  140SBC   C06Y98834  13.032   9.447   5.919
  140SBC   C05C98835  13.053   9.651   5.610
  140SBC   C06Z98836  13.113   9.314   5.743
  140SBC   C07098837  13.179   9.279   5.475
  140SBC   C05B98838  13.087   9.636   5.479
  140SBC   C05798839  13.161   9.596   5.208
  140SBC   C05998840  13.191   9.364   5.251
  141SBC   C05898841  13.055   6.748  15.117
  141SBC   C05A98842  13.071   6.720  14.979
  141SBC   C06Q98843  13.054   6.595  14.925
  141SBC   C06R98844  13.062   6.580  14.787
  141SBC   C06S98845  13.090   6.691  14.698
  141SBC   C06T98846  13.081   6.665  14.555
  141SBC   C06U98847  13.082   6.761  14.441
  141SBC   C06X98848  13.115   6.902  14.434
  141SBC   C06098849  13.079   6.948  14.302
  141SBC   C05Z98850  13.156   7.044  14.218
  141SBC   C06898851  13.186   6.975  14.084
  141SBC   C06798852  13.263   7.023  13.968
  141SBC   C06998853  13.306   7.166  13.960
  141SBC   C06A98854  13.392   7.226  13.858
  141SBC   C07398855  13.484   7.177  13.763
  141SBC   C07P98856  13.604   7.245  13.731
  141SBC   C07O98857  13.693   7.304  13.826
  141SBC   H00D98858  13.668   7.286  13.930
  141SBC   C07N98859  13.801   7.384  13.789
  141SBC   H00E98860  13.884   7.415  13.852
  141SBC   C07M98861  13.812   7.420  13.652
  141SBC   H00F98862  13.885   7.496  13.630
  141SBC   C07L98863  13.720   7.367  13.557
  141SBC   C07Q98864  13.708   7.408  13.417
  141SBC   H00G98865  13.767   7.491  13.381
  141SBC   O00F98866  13.612   7.361  13.331
  141SBC   C07J98867  13.537   7.254  13.367
  141SBC   C07I98868  13.534   7.218  13.504
  141SBC   N00498869  13.466   7.103  13.547
  141SBC   C07R98870  13.400   7.025  13.449
  141SBC   C07T98871  13.394   7.069  13.319
  141SBC   C0FX98872  13.325   6.998  13.216
  141SBC   C0FW98873  13.291   7.040  13.091
  141SBC   C0G098874  13.348   7.165  13.061
  141SBC   C0G298875  13.322   7.227  12.937
  141SBC   H01E98876  13.368   7.321  12.913
  141SBC   C0G398877  13.244   7.155  12.848
  141SBC   H01C98878  13.233   7.196  12.749
  141SBC   C0G498879  13.187   7.035  12.879
  141SBC   H01D98880  13.124   6.986  12.806
  141SBC   O00E98881  13.441   7.226  13.147
  141SBC   C0FV98882  13.200   6.975  13.007
  141SBC   C0FU98883  13.134   6.857  13.060
  141SBC   H01B98884  13.065   6.806  12.995
  141SBC   C0FT98885  13.177   6.806  13.183
  141SBC   C0FS98886  13.149   6.694  13.274
  141SBC   C0BI98887  13.254   6.690  13.371
  141SBC   C0BH98888  13.221   6.608  13.478
  141SBC   C07F98889  13.214   6.650  13.612
  141SBC   C07E98890  13.267   6.763  13.677
  141SBC   C07G98891  13.337   6.867  13.623
  141SBC   C07498892  13.351   6.967  13.717
  141SBC   C06598893  13.231   6.802  13.807
  141SBC   C06498894  13.146   6.712  13.876
  141SBC   C06398895  13.103   6.721  14.006
  141SBC   C07598896  13.033   6.597  14.025
  141SBC   C0AM98897  13.010   6.521  13.901
  141SBC   C0AN98898  12.953   6.385  13.878
  141SBC   C0AO98899  12.910   6.279  13.974
  141SBC   C0B198900  12.868   6.149  13.931
  141SBC   C0B098901  12.851   6.124  13.799
  141SBC   C0AZ98902  12.821   5.998  13.743
  141SBC   C0AY98903  12.814   5.979  13.605
  141SBC   N00798904  12.768   5.857  13.558
  141SBC   C0E298905  12.766   5.839  13.416
  141SBC   C0E198906  12.703   5.724  13.370
  141SBC   C0E498907  12.687   5.713  13.231
  141SBC   C0FF98908  12.605   5.605  13.176
  141SBC   C0FJ98909  12.583   5.563  13.037
  141SBC   C0FK98910  12.684   5.583  12.935
  141SBC   H01698911  12.766   5.653  12.930
  141SBC   C0FL98912  12.661   5.465  12.843
  141SBC   H01798913  12.732   5.428  12.770
  141SBC   C0FM98914  12.558   5.384  12.898
  141SBC   C0FH98915  12.516   5.247  12.918
  141SBC   C0FI98916  12.448   5.241  13.043
  141SBC   C0F398917  12.467   5.134  13.122
  141SBC   C0F298918  12.455   5.162  13.255
  141SBC   C0DW98919  12.473   5.290  13.315
  141SBC   C0FE98920  12.476   5.399  13.236
  141SBC   C0DV98921  12.501   5.301  13.450
  141SBC   C0DX98922  12.554   5.416  13.498
  141SBC   C0DK98923  12.590   5.419  13.633
  141SBC   C0DJ98924  12.581   5.306  13.713
  141SBC   C0DI98925  12.609   5.315  13.846
  141SBC   C0DH98926  12.644   5.436  13.901
  141SBC   C0DG98927  12.670   5.548  13.817
  141SBC   C0BV98928  12.717   5.668  13.873
  141SBC   C0BC98929  12.739   5.777  13.786
  141SBC   C0BA98930  12.728   5.683  14.010
  141SBC   C0B498931  12.771   5.810  14.057
  141SBC   C0B398932  12.801   5.919  13.969
  141SBC   C0B598933  12.775   5.821  14.192
  141SBC   C0BU98934  12.744   5.713  14.278
  141SBC   C0BT98935  12.702   5.590  14.228
  141SBC   C0BS98936  12.663   5.481  14.313
  141SBC   C0CC98937  12.645   5.356  14.254
  141SBC   C0CB98938  12.608   5.250  14.333
  141SBC   C0CH98939  12.624   5.121  14.277
  141SBC   C0DO98940  12.626   5.099  14.139
  141SBC   C0DP98941  12.622   4.972  14.084
  141SBC   C0EA98942  12.655   4.851  14.159
  141SBC   H01298943  12.684   4.847  14.263
  141SBC   O00998944  12.673   4.727  14.099
  141SBC   C0EH98945  12.650   4.728  13.965
  141SBC   C0EG98946  12.676   4.605  13.909
  141SBC   C0EJ98947  12.718   4.475  13.959
  141SBC   H01098948  12.749   4.468  14.062
  141SBC   C0EK98949  12.717   4.383  13.853
  141SBC   H00Z98950  12.755   4.282  13.855
  141SBC   C0EL98951  12.679   4.451  13.734
  141SBC   C0EM98952  12.670   4.412  13.595
  141SBC   C0EW98953  12.683   4.291  13.537
  141SBC   H01398954  12.693   4.207  13.604
  141SBC   C0EX98955  12.677   4.277  13.387
  141SBC   H01498956  12.684   4.180  13.339
  141SBC   C0F198957  12.653   4.395  13.301
  141SBC   C0EU98958  12.634   4.513  13.367
  141SBC   C0ET98959  12.614   4.640  13.310
  141SBC   C0ES98960  12.590   4.732  13.421
  141SBC   C0EE98961  12.614   4.664  13.544
  141SBC   C0ED98962  12.623   4.687  13.681
  141SBC   C0EC98963  12.602   4.818  13.741
  141SBC   C0EB98964  12.565   4.937  13.672
  141SBC   C0EN98965  12.535   4.941  13.532
  141SBC   C0ER98966  12.495   5.063  13.473
  141SBC   C0DS98967  12.564   5.064  13.733
  141SBC   C0DR98968  12.595   5.075  13.874
  141SBC   C0EY98969  12.543   4.857  13.409
  141SBC   C0EZ98970  12.515   4.926  13.285
  141SBC   C0F598971  12.535   4.901  13.145
  141SBC   C0F698972  12.579   4.778  13.090
  141SBC   N00898973  12.591   4.776  12.945
  141SBC   C0F798974  12.585   4.891  12.869
  141SBC   C0FQ98975  12.616   4.886  12.729
  141SBC   H01898976  12.595   4.971  12.667
  141SBC   C0FP98977  12.655   4.774  12.660
  141SBC   H01998978  12.666   4.771  12.553
  141SBC   C0FO98979  12.664   4.658  12.738
  141SBC   H01A98980  12.681   4.566  12.683
  141SBC   C0F898981  12.553   5.013  12.933
  141SBC   C0F998982  12.626   4.656  12.876
  141SBC   C0FA98983  12.647   4.535  12.954
  141SBC   H01598984  12.683   4.447  12.902
  141SBC   C0FB98985  12.634   4.531  13.095
  141SBC   C0FD98986  12.597   4.653  13.161
  141SBC   C0FC98987  12.661   4.404  13.157
  141SBC   O00A98988  12.701   4.305  13.097
  141SBC   C0EV98989  12.636   4.525  13.504
  141SBC   C0EF98990  12.662   4.586  13.773
  141SBC   C0EI98991  12.616   4.837  13.882
  141SBC   C0DQ98992  12.609   4.960  13.946
  141SBC   C0CE98993  12.622   5.215  14.061
  141SBC   H00U98994  12.611   5.037  14.343
  141SBC   C0CA98995  12.562   5.282  14.467
  141SBC   C0C998996  12.625   5.388  14.540
  141SBC   C0C898997  12.647   5.367  14.684
  141SBC   C0C798998  12.682   5.455  14.787
  141SBC   C0C698999  12.697   5.399  14.917
  141SBC   C0C599000  12.689   5.445  15.055
  141SBC   C0CQ99001  12.640   5.347  15.145
  141SBC   C0D199002  12.585   5.233  15.095
  141SBC   C0D899003  12.473   5.201  15.165
  141SBC   C0D799004  12.485   5.268  15.294
  141SBC   C0D699005  12.386   5.271  15.397
  141SBC   C0D599006  12.393   5.359  15.515
  141SBC   C0D499007  12.486   5.464  15.553
  141SBC   C0D399008  12.410   5.559  15.631
  141SBC   C0CX99009  12.478   5.686  15.627
  141SBC   C0CW99010  12.569   5.676  15.510
  141SBC   C0CV99011  12.662   5.764  15.437
  141SBC   C0D299012  12.710   5.879  15.497
  141SBC   C09D99013  12.718   5.902  15.638
  141SBC   C09C99014  12.778   6.021  15.687
  141SBC   C09B99015  12.778   6.067  15.820
  141SBC   C09A99016  12.719   5.977  15.918
  141SBC   C09999017  12.671   5.853  15.879
  141SBC   C09899018  12.569   5.817  15.969
  141SBC   C08Y99019  12.541   5.930  16.055
  141SBC   C08X99020  12.426   5.962  16.141
  141SBC   C08W99021  12.321   5.867  16.152
  141SBC   C08U99022  12.304   5.739  16.082
  141SBC   C08V99023  12.375   5.672  15.976
  141SBC   C0DC99024  12.317   5.546  15.955
  141SBC   H00W99025  12.345   5.474  15.879
  141SBC   C0DB99026  12.210   5.527  16.045
  141SBC   H00X99027  12.150   5.438  16.058
  141SBC   C08T99028  12.197   5.652  16.116
  141SBC   C08S99029  12.104   5.678  16.215
  141SBC   H00N99030  12.031   5.604  16.244
  141SBC   C08R99031  12.103   5.806  16.269
  141SBC   C08Q99032  12.001   5.845  16.358
  141SBC   H00O99033  11.932   5.764  16.376
  141SBC   C08P99034  11.987   5.970  16.415
  141SBC   C08O99035  11.877   6.019  16.497
  141SBC   H00P99036  11.794   5.952  16.515
  141SBC   C08N99037  11.887   6.146  16.564
  141SBC   C08M99038  11.773   6.182  16.647
  141SBC   O00899039  11.676   6.107  16.678
  141SBC   O00799040  11.780   6.300  16.700
  141SBC   C08H99041  11.882   6.388  16.673
  141SBC   C08G99042  11.876   6.522  16.727
  141SBC   C03V99043  11.781   6.582  16.815
  141SBC   H00999044  11.703   6.513  16.845
  141SBC   C03U99045  11.795   6.706  16.877
  141SBC   C03W99046  11.708   6.775  16.972
  141SBC   H00A99047  11.614   6.728  16.998
  141SBC   C03X99048  11.733   6.900  17.020
  141SBC   H00B99049  11.663   6.945  17.087
  141SBC   O00599050  11.856   6.962  17.003
  141SBC   C03O99051  11.937   6.906  16.912
  141SBC   C03N99052  12.050   6.978  16.869
  141SBC   O00099053  12.062   7.105  16.924
  141SBC   C01999054  12.163   7.185  16.884
  141SBC   C01899055  12.250   7.146  16.781
  141SBC   C01799056  12.240   7.020  16.727
  141SBC   C01699057  12.331   6.976  16.629
  141SBC   C01599058  12.427   7.071  16.590
  141SBC   C01499059  12.525   7.033  16.498
  141SBC   C01399060  12.541   6.899  16.453
  141SBC   C01299061  12.647   6.913  16.352
  141SBC   C01199062  12.692   7.045  16.366
  141SBC   C01099063  12.802   7.085  16.297
  141SBC   C00Z99064  12.851   7.213  16.280
  141SBC   C00Y99065  12.930   7.201  16.158
  141SBC   C01O99066  12.942   7.070  16.115
  141SBC   C01P99067  12.947   7.042  15.977
  141SBC   C02L99068  12.916   6.914  15.941
  141SBC   C02K99069  12.856   6.834  16.040
  141SBC   C01M99070  12.802   6.874  16.168
  141SBC   C02J99071  12.853   6.699  15.997
  141SBC   C02I99072  12.803   6.592  16.074
  141SBC   C02H99073  12.721   6.593  16.186
  141SBC   C01Q99074  12.668   6.691  16.268
  141SBC   C02G99075  12.577   6.633  16.359
  141SBC   C08999076  12.588   6.496  16.340
  141SBC   C08899077  12.476   6.424  16.384
  141SBC   C08799078  12.402   6.532  16.451
  141SBC   C08699079  12.285   6.518  16.521
  141SBC   C03S99080  12.213   6.618  16.596
  141SBC   N00699081  12.090   6.563  16.625
  141SBC   C08F99082  12.083   6.438  16.573
  141SBC   C01J99083  12.228   6.751  16.633
  141SBC   C03R99084  12.122   6.803  16.718
  141SBC   C03Q99085  12.006   6.731  16.753
  141SBC   C08E99086  12.202   6.403  16.516
  141SBC   C08D99087  12.210   6.276  16.445
  141SBC   C08K99088  12.098   6.184  16.456
  141SBC   C08C99089  12.312   6.231  16.364
  141SBC   C09199090  12.303   6.108  16.289
  141SBC   C09299091  12.200   6.017  16.309
  141SBC   C08B99092  12.439   6.286  16.341
  141SBC   C09099093  12.511   6.190  16.251
  141SBC   C09499094  12.646   6.214  16.192
  141SBC   C09599095  12.692   6.138  16.082
  141SBC   C09R99096  12.774   6.223  16.002
  141SBC   C09799097  12.776   6.351  16.059
  141SBC   C09699098  12.694   6.352  16.172
  141SBC   C01I99099  12.471   6.665  16.446
  141SBC   C08A99100  12.670   6.466  16.230
  141SBC   C09L99101  12.826   6.472  16.006
  141SBC   C09K99102  12.905   6.505  15.886
  141SBC   C09J99103  12.917   6.413  15.777
  141SBC   C09I99104  12.937   6.460  15.640
  141SBC   C09O99105  12.949   6.581  15.564
  141SBC   C09N99106  12.955   6.709  15.624
  141SBC   C09M99107  12.931   6.747  15.761
  141SBC   C06O99108  12.985   6.815  15.536
  141SBC   C05M99109  13.010   6.794  15.396
  141SBC   C06P99110  12.992   6.669  15.342
  141SBC   C04299111  13.044   6.899  15.312
  141SBC   C04199112  13.034   7.034  15.358
  141SBC   C04099113  13.055   7.137  15.269
  141SBC   C03Z99114  13.043   7.273  15.314
  141SBC   C03Y99115  13.027   7.299  15.445
  141SBC   C02799116  13.026   7.430  15.488
  141SBC   C02699117  13.003   7.455  15.623
  141SBC   C02899118  12.978   7.583  15.667
  141SBC   C02999119  12.983   7.684  15.574
  141SBC   C02B99120  12.948   7.811  15.615
  141SBC   C02C99121  12.925   7.912  15.520
  141SBC   C02X99122  12.883   8.035  15.561
  141SBC   C03E99123  12.867   8.130  15.470
  141SBC   C03G99124  12.883   8.117  15.336
  141SBC   C04Q99125  12.932   7.995  15.293
  141SBC   C04R99126  12.955   7.971  15.161
  141SBC   C04S99127  12.999   7.848  15.119
  141SBC   C04L99128  13.012   7.744  15.212
  141SBC   C04M99129  12.990   7.766  15.347
  141SBC   C04K99130  13.040   7.613  15.168
  141SBC   C04F99131  13.057   7.590  15.037
  141SBC   C04E99132  13.054   7.691  14.942
  141SBC   C04D99133  13.083   7.666  14.809
  141SBC   C05099134  13.085   7.769  14.720
  141SBC   C05199135  13.126   7.744  14.593
  141SBC   C05Q99136  13.126   7.845  14.502
  141SBC   C05V99137  13.153   7.818  14.368
  141SBC   N00599138  13.159   7.923  14.274
  141SBC   C07V99139  13.136   8.051  14.314
  141SBC   C08299140  13.133   8.160  14.220
  141SBC   C08199141  13.149   8.139  14.081
  141SBC   C07C99142  13.185   8.009  14.044
  141SBC   C07B99143  13.240   7.987  13.919
  141SBC   C08099144  13.243   8.091  13.820
  141SBC   C07Z99145  13.321   8.059  13.707
  141SBC   H00L99146  13.336   8.139  13.636
  141SBC   C07999147  13.402   7.945  13.689
  141SBC   C07899148  13.372   7.842  13.774
  141SBC   C07799149  13.423   7.712  13.742
  141SBC   C07X99150  13.526   7.695  13.638
  141SBC   H00I99151  13.581   7.606  13.614
  141SBC   C07Y99152  13.563   7.808  13.564
  141SBC   H00H99153  13.650   7.805  13.500
  141SBC   C07699154  13.385   7.606  13.824
  141SBC   C06C99155  13.416   7.476  13.780
  141SBC   H00C99156  13.468   7.459  13.687
  141SBC   C06F99157  13.317   7.625  13.943
  141SBC   C06E99158  13.284   7.526  14.025
  141SBC   C06G99159  13.222   7.534  14.154
  141SBC   C06H99160  13.204   7.666  14.195
  141SBC   C06I99161  13.217   7.772  14.105
  141SBC   C06L99162  13.203   7.419  14.233
  141SBC   C06M99163  13.219   7.283  14.181
  141SBC   C06K99164  13.177   7.449  14.366
  141SBC   C05S99165  13.161   7.587  14.412
  141SBC   C05U99166  13.178   7.340  14.458
  141SBC   C05X99167  13.182   7.207  14.409
  141SBC   C05G99168  13.184   7.113  14.522
  141SBC   C05F99169  13.166   7.156  14.654
  141SBC   C05E99170  13.162   7.049  14.742
  141SBC   C04899171  13.139   7.073  14.878
  141SBC   C05699172  13.109   6.961  14.955
  141SBC   C04599173  13.087   6.984  15.088
  141SBC   C04799174  13.135   7.204  14.922
  141SBC   C04999175  13.144   7.306  14.829
  141SBC   C04B99176  13.116   7.440  14.868
  141SBC   C04699177  13.105   7.222  15.054
  141SBC   C04H99178  13.092   7.354  15.093
  141SBC   C05D99179  13.155   6.933  14.675
  141SBC   C04A99180  13.155   7.289  14.696
  141SBC   C05T99181  13.159   7.377  14.594
  141SBC   C05599182  13.139   7.508  14.636
  141SBC   C06D99183  13.302   7.396  13.974
  141SBC   C07W99184  13.278   7.754  13.982
  141SBC   C08599185  13.490   7.923  13.585
  141SBC   H00M99186  13.515   8.009  13.524
  141SBC   C08499187  13.192   8.217  13.853
  141SBC   H00J99188  13.200   8.299  13.783
  141SBC   C07A99189  13.304   7.864  13.894
  141SBC   C08399190  13.147   8.240  13.983
  141SBC   H00K99191  13.115   8.340  14.013
  141SBC   O00K99192  13.107   8.283  14.268
  141SBC   C0GO99193  13.100   8.312  14.402
  141SBC   C0GN99194  13.083   8.444  14.444
  141SBC   H01L99195  13.097   8.530  14.380
  141SBC   C0GM99196  13.027   8.467  14.574
  141SBC   C0GL99197  12.996   8.590  14.607
  141SBC   H01M99198  13.008   8.663  14.529
  141SBC   O00J99199  12.924   8.624  14.716
  141SBC   C0GK99200  12.899   8.517  14.802
  141SBC   H01N99201  12.841   8.545  14.889
  141SBC   C05K99202  12.949   8.391  14.783
  141SBC   C05J99203  12.928   8.290  14.878
  141SBC   C04Y99204  12.871   8.298  15.014
  141SBC   C04X99205  12.888   8.197  15.110
  141SBC   O00699206  12.796   8.405  15.055
  141SBC   C05399207  12.741   8.424  15.180
  141SBC   C04O99208  12.793   8.338  15.282
  141SBC   C03C99209  12.773   8.353  15.426
  141SBC   C03B99210  12.708   8.443  15.515
  141SBC   C05499211  12.614   8.534  15.468
  141SBC   C0GR99212  12.537   8.613  15.560
  141SBC   C03M99213  12.510   8.628  15.709
  141SBC   C03I99214  12.547   8.530  15.806
  141SBC   C03J99215  12.495   8.545  15.937
  141SBC   N00299216  12.522   8.444  16.038
  141SBC   C02U99217  12.470   8.452  16.165
  141SBC   C02T99218  12.495   8.358  16.262
  141SBC   C02Z99219  12.452   8.378  16.395
  141SBC   N00199220  12.482   8.278  16.495
  141SBC   C02R99221  12.441   8.292  16.629
  141SBC   C03299222  12.370   8.404  16.660
  141SBC   C03199223  12.325   8.496  16.559
  141SBC   H00799224  12.262   8.576  16.593
  141SBC   C03399225  12.342   8.413  16.802
  141SBC   H00399226  12.292   8.499  16.843
  141SBC   O00499227  12.379   8.329  16.900
  141SBC   C03499228  12.445   8.216  16.862
  141SBC   C03599229  12.493   8.121  16.957
  141SBC   C03699230  12.570   8.009  16.917
  141SBC   H00599231  12.624   7.943  16.982
  141SBC   C03799232  12.584   7.981  16.777
  141SBC   H00699233  12.645   7.896  16.750
  141SBC   C00D99234  12.534   8.074  16.681
  141SBC   C00C99235  12.563   8.060  16.551
  141SBC   C00B99236  12.619   7.927  16.507
  141SBC   C00A99237  12.644   7.781  16.541
  141SBC   C00999238  12.730   7.733  16.441
  141SBC   C00899239  12.755   7.597  16.405
  141SBC   C00799240  12.681   7.494  16.468
  141SBC   C00699241  12.704   7.362  16.428
  141SBC   C00599242  12.612   7.268  16.484
  141SBC   C00499243  12.506   7.304  16.574
  141SBC   C00399244  12.487   7.439  16.609
  141SBC   C00299245  12.389   7.476  16.701
  141SBC   C01C99246  12.325   7.378  16.774
  141SBC   C01B99247  12.240   7.415  16.879
  141SBC   H00099248  12.232   7.514  16.921
  141SBC   C00199249  12.357   7.609  16.714
  141SBC   C00099250  12.428   7.708  16.647
  141SBC   C01U99251  12.353   7.825  16.649
  141SBC   H00299252  12.362   7.917  16.593
  141SBC   C01T99253  12.231   7.787  16.729
  141SBC   O00299254  12.139   7.862  16.760
  141SBC   O00199255  12.236   7.650  16.754
  141SBC   C01S99256  12.573   7.531  16.552
  141SBC   C00N99257  12.823   7.576  16.284
  141SBC   C00M99258  12.834   7.680  16.191
  141SBC   C00J99259  12.797   7.806  16.218
  141SBC   C00I99260  12.792   7.908  16.132
  141SBC   C00H99261  12.726   8.027  16.169
  141SBC   C00G99262  12.671   8.048  16.292
  141SBC   C00F99263  12.594   8.156  16.330
  141SBC   C01X99264  12.701   8.124  16.075
  141SBC   C01W99265  12.748   8.104  15.948
  141SBC   C01V99266  12.818   7.984  15.911
  141SBC   C02099267  12.859   7.963  15.786
  141SBC   C01Z99268  12.724   8.201  15.850
  141SBC   C02Y99269  12.783   8.179  15.730
  141SBC   C03999270  12.766   8.273  15.634
  141SBC   C02W99271  12.658   8.319  15.879
  141SBC   C01Y99272  12.622   8.239  16.106
  141SBC   C00U99273  12.831   7.885  16.004
  141SBC   C00S99274  12.884   7.761  15.968
  141SBC   C00T99275  12.917   7.736  15.836
  141SBC   C00R99276  12.887   7.659  16.066
  141SBC   C00Q99277  12.925   7.531  16.027
  141SBC   C00V99278  12.960   7.506  15.893
  141SBC   C02499279  12.981   7.379  15.848
  141SBC   C00X99280  12.968   7.277  15.937
  141SBC   C00P99281  12.909   7.428  16.116
  141SBC   C00O99282  12.851   7.449  16.247
  141SBC   C00K99283  12.755   7.831  16.347
  141SBC   N00099284  12.550   7.677  16.576
  141SBC   C00L99285  12.687   7.945  16.384
  141SBC   H00499286  12.470   8.139  17.061
  141SBC   C02Q99287  12.482   8.191  16.725
  141SBC   C00E99288  12.547   8.162  16.459
  141SBC   C03099289  12.369   8.483  16.432
  141SBC   O00399290  12.343   8.578  16.335
  141SBC   C02S99291  12.569   8.249  16.230
  141SBC   C03899292  12.395   8.565  16.201
  141SBC   C03L99293  12.369   8.667  16.109
  141SBC   H00899294  12.306   8.751  16.133
  141SBC   C02V99295  12.600   8.332  16.005
  141SBC   C03K99296  12.416   8.657  15.975
  141SBC   C0BK99297  12.387   8.747  15.878
  141SBC   H00T99298  12.323   8.826  15.914
  141SBC   C03H99299  12.631   8.418  15.781
  141SBC   C0BL99300  12.422   8.733  15.747
  141SBC   C0GU99301  12.379   8.820  15.648
  141SBC   H01O99302  12.330   8.911  15.678
  141SBC   C0GT99303  12.400   8.810  15.512
  141SBC   H01P99304  12.362   8.886  15.445
  141SBC   C0GS99305  12.477   8.707  15.468
  141SBC   C0GV99306  12.519   8.685  15.331
  141SBC   C0GW99307  12.484   8.759  15.216
  141SBC   H01Q99308  12.426   8.850  15.219
  141SBC   C0GX99309  12.545   8.721  15.101
  141SBC   H01R99310  12.529   8.785  15.016
  141SBC   O00L99311  12.628   8.614  15.087
  141SBC   C0GQ99312  12.603   8.571  15.326
  141SBC   C03A99313  12.696   8.392  15.648
  141SBC   C05L99314  12.660   8.535  15.198
  141SBC   C04W99315  12.971   8.161  14.844
  141SBC   C05I99316  13.018   8.133  14.717
  141SBC   C05O99317  13.035   8.232  14.618
  141SBC   C05299318  13.058   8.006  14.674
  141SBC   C04V99319  12.972   8.054  14.934
  141SBC   C04U99320  13.020   7.925  14.899
  141SBC   N00999321  13.008   8.360  14.662
  141SBC   C0GP99322  13.081   8.208  14.491
  141SBC   C05W99323  13.109   8.081  14.453
  141SBC   C07D99324  13.185   7.902  14.139
  141SBC   C06J99325  13.169   7.690  14.325
  141SBC   C05P99326  13.101   7.978  14.542
  141SBC   C05R99327  13.144   7.614  14.549
  141SBC   C04Z99328  13.054   7.902  14.763
  141SBC   C04C99329  13.110   7.538  14.771
  141SBC   C04G99330  13.091   7.458  14.999
  141SBC   C04J99331  13.045   7.509  15.261
  141SBC   C04T99332  13.025   7.822  14.988
  141SBC   N00399333  12.940   8.077  15.066
  141SBC   C04P99334  12.859   8.221  15.244
  141SBC   C03D99335  12.811   8.249  15.509
  141SBC   C02199336  12.842   8.060  15.694
  141SBC   C03F99337  12.946   7.892  15.387
  141SBC   C02299338  12.912   7.839  15.747
  141SBC   C02A99339  13.001   7.658  15.437
  141SBC   C02399340  12.955   7.605  15.800
  141SBC   C02599341  12.997   7.350  15.714
  141SBC   C02D99342  12.999   7.218  15.671
  141SBC   C02E99343  12.982   7.113  15.759
  141SBC   C02N99344  12.967   6.982  15.715
  141SBC   C04N99345  13.028   7.532  15.395
  141SBC   C02P99346  13.011   7.194  15.534
  141SBC   C04I99347  13.058   7.379  15.225
  141SBC   C04499348  13.088   7.113  15.138
  141SBC   C04399349  13.001   7.062  15.489
  141SBC   C05N99350  12.981   6.952  15.581
  141SBC   C09U99351  12.952   6.562  15.419
  141SBC   C09V99352  12.928   6.433  15.358
  141SBC   C09X99353  12.897   6.324  15.429
  141SBC   C09Y99354  12.861   6.200  15.381
  141SBC   C0A199355  12.870   6.184  15.250
  141SBC   C0A299356  12.913   6.289  15.168
  141SBC   C0A499357  12.925   6.268  15.033
  141SBC   C07199358  12.982   6.368  14.954
  141SBC   C0A599359  12.988   6.352  14.818
  141SBC   C0A999360  12.944   6.231  14.762
  141SBC   C0A899361  12.897   6.131  14.841
  141SBC   C0AP99362  12.860   6.008  14.792
  141SBC   C0BY99363  12.816   5.911  14.870
  141SBC   C0BX99364  12.804   5.921  15.007
  141SBC   C0C299365  12.760   5.810  15.086
  141SBC   C0C399366  12.739   5.829  15.223
  141SBC   C0CT99367  12.776   5.953  15.279
  141SBC   C0C199368  12.729   5.688  15.021
  141SBC   C0C099369  12.716   5.681  14.879
  141SBC   C0A799370  12.846   6.041  15.067
  141SBC   C0BZ99371  12.770   5.792  14.814
  141SBC   C0BO99372  12.763   5.785  14.676
  141SBC   C0BN99373  12.812   5.882  14.589
  141SBC   C0BM99374  12.795   5.854  14.456
  141SBC   C0B999375  12.832   5.958  14.373
  141SBC   C0B899376  12.885   6.078  14.423
  141SBC   C0AD99377  12.889   6.098  14.563
  141SBC   C0AF99378  12.913   6.188  14.341
  141SBC   C0AG99379  12.907   6.173  14.202
  141SBC   C0B799380  12.853   6.054  14.154
  141SBC   C0AE99381  12.965   6.295  14.402
  141SBC   C0AB99382  12.974   6.314  14.538
  141SBC   C0AA99383  13.014   6.436  14.595
  141SBC   C0AJ99384  12.991   6.399  14.318
  141SBC   C0AK99385  13.024   6.523  14.373
  141SBC   C06W99386  13.033   6.604  14.270
  141SBC   C0AI99387  12.972   6.403  14.178
  141SBC   C0BP99388  12.710   5.661  14.646
  141SBC   C0BQ99389  12.707   5.629  14.503
  141SBC   C0BW99390  12.859   5.993  14.648
  141SBC   C0AC99391  12.938   6.213  14.622
  141SBC   C0A699392  12.891   6.148  14.983
  141SBC   C0A399393  12.831   6.060  15.197
  141SBC   C09Z99394  12.824   6.094  15.464
  141SBC   C09W99395  12.952   6.410  15.228
  141SBC   C07299396  13.001   6.516  15.150
  141SBC   C09H99397  12.924   6.335  15.566
  141SBC   C09G99398  12.887   6.229  15.647
  141SBC   C09P99399  12.871   6.282  15.773
  141SBC   C02O99400  12.901   6.648  15.869
  141SBC   C02M99401  12.930   6.879  15.806
  141SBC   C02F99402  12.971   7.144  15.890
  141SBC   C00W99403  12.942   7.305  16.069
  141SBC   C01R99404  12.796   7.344  16.320
  141SBC   C01N99405  12.853   7.001  16.192
  141SBC   C01L99406  12.707   6.818  16.260
  141SBC   C01H99407  12.447   6.798  16.498
  141SBC   C01K99408  12.615   7.128  16.444
  141SBC   C01E99409  12.420   7.207  16.629
  141SBC   C01G99410  12.331   6.837  16.586
  141SBC   C01D99411  12.331   7.241  16.728
  141SBC   C01A99412  12.154   7.314  16.936
  141SBC   H00199413  12.076   7.330  17.008
  141SBC   C01F99414  12.145   6.930  16.774
  141SBC   C03P99415  11.915   6.780  16.850
  141SBC   C03T99416  11.984   6.607  16.702
  141SBC   C08I99417  11.988   6.347  16.593
  141SBC   C08J99418  11.992   6.224  16.536
  141SBC   C08L99419  12.095   6.057  16.392
  141SBC   C09399420  12.208   5.895  16.243
  141SBC   C08Z99421  12.422   6.077  16.221
  141SBC   C09T99422  12.474   5.742  15.897
  141SBC   C09S99423  12.649   6.018  16.033
  141SBC   C09Q99424  12.811   6.195  15.870
  141SBC   C09F99425  12.835   6.110  15.599
  141SBC   C09E99426  12.643   5.829  15.742
  141SBC   C0A099427  12.773   5.971  15.416
  141SBC   C0CU99428  12.681   5.731  15.297
  141SBC   C0CR99429  12.659   5.600  15.243
  141SBC   C0CZ99430  12.598   5.503  15.326
  141SBC   C0DA99431  12.523   5.744  15.754
  141SBC   C0D999432  12.266   5.530  15.608
  141SBC   H00V99433  12.185   5.600  15.620
  141SBC   C0CY99434  12.553   5.547  15.458
  141SBC   C0DF99435  12.262   5.401  15.550
  141SBC   C0DE99436  12.171   5.312  15.482
  141SBC   C0GI99437  12.033   5.303  15.489
  141SBC   H01K99438  11.967   5.369  15.543
  141SBC   C0GJ99439  11.982   5.201  15.417
  141SBC   H01J99440  11.874   5.202  15.411
  141SBC   O00I99441  12.060   5.110  15.341
  141SBC   C0GH99442  12.187   5.151  15.299
  141SBC   C0GG99443  12.237   5.101  15.172
  141SBC   O00G99444  12.148   5.011  15.113
  141SBC   C0G899445  12.170   4.966  14.994
  141SBC   C0G999446  12.090   4.862  14.953
  141SBC   H01G99447  12.026   4.810  15.023
  141SBC   C0GA99448  12.081   4.825  14.818
  141SBC   H01H99449  12.019   4.741  14.790
  141SBC   C0GB99450  12.156   4.892  14.719
  141SBC   C0EP99451  12.249   4.992  14.763
  141SBC   C0E899452  12.321   5.062  14.661
  141SBC   C0CK99453  12.431   5.147  14.658
  141SBC   C0CL99454  12.521   5.171  14.765
  141SBC   C0E999455  12.486   5.152  14.898
  141SBC   C0GE99456  12.365   5.101  14.966
  141SBC   C0E799457  12.287   5.054  14.522
  141SBC   C0CJ99458  12.362   5.135  14.435
  141SBC   C0E699459  12.317   5.140  14.304
  141SBC   H00Y99460  12.365   5.211  14.238
  141SBC   C0EO99461  12.229   5.039  14.263
  141SBC   H01199462  12.204   5.042  14.158
  141SBC   C0G699463  12.166   4.944  14.349
  141SBC   C0G599464  12.077   4.838  14.311
  141SBC   H01F99465  12.044   4.833  14.209
  141SBC   C0GD99466  12.024   4.759  14.406
  141SBC   H01I99467  11.952   4.685  14.373
  141SBC   O00H99468  12.041   4.770  14.542
  141SBC   C0EQ99469  12.195   4.949  14.488
  141SBC   C0GC99470  12.137   4.863  14.580
  141SBC   C0G799471  12.269   5.016  14.904
  141SBC   C0DD99472  12.250   5.241  15.382
  141SBC   C0GF99473  12.361   5.128  15.107
  141SBC   C0CO99474  12.590   5.198  14.963
  141SBC   C0D099475  12.578   5.377  15.266
  141SBC   C0C499476  12.694   5.575  15.101
  141SBC   C0CN99477  12.691   5.256  14.882
  141SBC   C0CP99478  12.683   5.596  14.773
  141SBC   C0CM99479  12.649   5.239  14.750
  141SBC   C0CI99480  12.460   5.198  14.522
  141SBC   C0CD99481  12.643   5.338  14.117
  141SBC   C0BR99482  12.662   5.504  14.455
  141SBC   C0CS99483  12.747   5.732  14.412
  141SBC   C0B699484  12.816   5.947  14.239
  141SBC   C0CG99485  12.700   5.573  14.091
  141SBC   C0CF99486  12.663   5.451  14.033
  141SBC   C0E599487  12.602   5.202  13.926
  141SBC   C0DT99488  12.545   5.184  13.661
  141SBC   C0DL99489  12.651   5.534  13.677
  141SBC   C0DM99490  12.684   5.633  13.590
  141SBC   C0DY99491  12.581   5.521  13.406
  141SBC   C0DU99492  12.507   5.189  13.529
  141SBC   C0F099493  12.480   5.051  13.334
  141SBC   C0F499494  12.515   5.013  13.068
  141SBC   C0FG99495  12.451   5.374  13.094
  141SBC   O00B99496  12.563   5.129  12.860
  141SBC   C0FN99497  12.501   5.459  13.000
  141SBC   C0DZ99498  12.551   5.514  13.268
  141SBC   O00C99499  12.733   5.807  13.148
  141SBC   C0FR99500  12.805   5.914  13.182
  141SBC   O00D99501  12.864   5.973  13.091
  141SBC   C0E099502  12.654   5.627  13.457
  141SBC   C0E399503  12.810   5.939  13.327
  141SBC   C0AW99504  12.854   6.062  13.375
  141SBC   C0AV99505  12.896   6.175  13.298
  141SBC   H00Q99506  12.902   6.182  13.190
  141SBC   C0AU99507  12.927   6.296  13.363
  141SBC   H00R99508  12.951   6.382  13.302
  141SBC   C0AT99509  12.921   6.308  13.504
  141SBC   C0AS99510  12.953   6.404  13.604
  141SBC   C0AR99511  13.028   6.518  13.570
  141SBC   C0BE99512  12.881   6.199  13.572
  141SBC   C0DN99513  12.739   5.750  13.647
  141SBC   C0AX99514  12.847   6.077  13.514
  141SBC   C0BB99515  12.789   5.900  13.834
  141SBC   C0BD99516  12.889   6.220  13.709
  141SBC   C0B299517  12.839   6.043  14.015
  141SBC   C0AH99518  12.930   6.284  14.113
  141SBC   C0BF99519  12.936   6.344  13.739
  141SBC   C0AL99520  13.002   6.541  14.147
  141SBC   C07U99521  13.085   6.601  13.813
  141SBC   C0AQ99522  13.107   6.580  13.673
  141SBC   C0BG99523  13.097   6.544  13.445
  141SBC   C0FY99524  13.311   6.816  13.380
  141SBC   C0BJ99525  13.048   6.603  13.318
  141SBC   H00S99526  12.953   6.587  13.270
  141SBC   C0FZ99527  13.275   6.874  13.258
  141SBC   C07S99528  13.355   6.895  13.485
  141SBC   C0G199529  13.453   7.189  13.277
  141SBC   C07K99530  13.625   7.274  13.598
  141SBC   C07H99531  13.442   7.071  13.685
  141SBC   C06B99532  13.378   7.369  13.861
  141SBC   C06N99533  13.266   7.279  14.045
  141SBC   C06699534  13.278   6.939  13.840
  141SBC   C06299535  13.118   6.844  14.094
  141SBC   C05Y99536  13.188   7.177  14.270
  141SBC   C06199537  13.050   6.843  14.223
  141SBC   C05H99538  13.176   6.973  14.533
  141SBC   C06V99539  13.052   6.728  14.309
  141SBC   C06Y99540  13.045   6.541  14.511
  141SBC   C05C99541  13.118   6.813  14.757
  141SBC   C06Z99542  13.024   6.456  14.731
  141SBC   C07099543  13.021   6.493  15.011
  141SBC   C05B99544  13.100   6.833  14.894
  141SBC   C05799545  13.068   6.877  15.176
  141SBC   C05999546  13.018   6.646  15.205
  142SBC   C05899547   9.521   4.857   8.036
  142SBC   C05A99548   9.598   4.737   8.023
  142SBC   C06Q99549   9.733   4.738   8.007
  142SBC   C06R99550   9.807   4.619   7.998
  142SBC   C06S99551   9.746   4.491   8.011
  142SBC   C06T99552   9.826   4.372   7.997
  142SBC   C06U99553   9.798   4.235   8.044
  142SBC   C06X99554   9.686   4.166   8.095
  142SBC   C06099555   9.726   4.042   8.153
  142SBC   C05Z99556   9.657   3.916   8.158
  142SBC   C06899557   9.758   3.811   8.120
  142SBC   C06799558   9.737   3.670   8.090
  142SBC   C06999559   9.610   3.605   8.130
  142SBC   C06A99560   9.567   3.465   8.110
  142SBC   C07399561   9.585   3.384   7.992
  142SBC   C07P99562   9.471   3.316   7.937
  142SBC   C07O99563   9.336   3.341   7.973
  142SBC   H00D99564   9.330   3.423   8.043
  142SBC   C07N99565   9.222   3.268   7.925
  142SBC   H00E99566   9.118   3.275   7.952
  142SBC   C07M99567   9.254   3.182   7.818
  142SBC   H00F99568   9.165   3.146   7.771
  142SBC   C07L99569   9.384   3.161   7.779
  142SBC   C07Q99570   9.412   3.064   7.675
  142SBC   H00G99571   9.327   3.024   7.622
  142SBC   O00F99572   9.541   3.038   7.632
  142SBC   C07J99573   9.639   3.099   7.698
  142SBC   C07I99574   9.618   3.190   7.803
  142SBC   N00499575   9.734   3.254   7.862
  142SBC   C07R99576   9.863   3.218   7.816
  142SBC   C07T99577   9.872   3.120   7.709
  142SBC   C0FX99578   9.989   3.092   7.651
  142SBC   C0FW99579  10.008   3.024   7.537
  142SBC   C0G099580   9.891   2.970   7.479
  142SBC   C0G299581   9.900   2.879   7.370
  142SBC   H01E99582   9.815   2.839   7.317
  142SBC   C0G399583  10.024   2.839   7.322
  142SBC   H01C99584  10.028   2.764   7.245
  142SBC   C0G499585  10.139   2.897   7.376
  142SBC   H01D99586  10.232   2.871   7.327
  142SBC   O00E99587   9.774   2.975   7.548
  142SBC   C0FV99588  10.136   3.000   7.476
  142SBC   C0FU99589  10.245   3.078   7.524
  142SBC   H01B99590  10.347   3.073   7.490
  142SBC   C0FT99591  10.227   3.157   7.637
  142SBC   C0FS99592  10.297   3.258   7.714
  142SBC   C0BI99593  10.226   3.269   7.833
  142SBC   C0BH99594  10.271   3.378   7.911
  142SBC   C07F99595  10.190   3.489   7.943
  142SBC   C07E99596  10.051   3.492   7.975
  142SBC   C07G99597   9.962   3.395   7.944
  142SBC   C07499598   9.837   3.444   7.976
  142SBC   C06599599   9.984   3.608   8.010
  142SBC   C06499600  10.069   3.721   8.019
  142SBC   C06399601  10.022   3.849   8.034
  142SBC   C07599602  10.145   3.935   8.009
  142SBC   C0AM99603  10.264   3.859   7.970
  142SBC   C0AN99604  10.406   3.901   7.941
  142SBC   C0AO99605  10.464   4.040   7.950
  142SBC   C0B199606  10.605   4.064   7.937
  142SBC   C0B099607  10.688   3.961   7.917
  142SBC   C0AZ99608  10.826   3.969   7.913
  142SBC   C0AY99609  10.901   3.857   7.874
  142SBC   N00799610  11.035   3.871   7.866
  142SBC   C0E299611  11.112   3.757   7.824
  142SBC   C0E199612  11.244   3.767   7.837
  142SBC   C0E499613  11.322   3.651   7.805
  142SBC   C0FF99614  11.463   3.647   7.828
  142SBC   C0FJ99615  11.563   3.553   7.787
  142SBC   C0FK99616  11.556   3.475   7.671
  142SBC   H01699617  11.466   3.457   7.615
  142SBC   C0FL99618  11.692   3.459   7.624
  142SBC   H01799619  11.725   3.426   7.526
  142SBC   C0FM99620  11.780   3.517   7.719
  142SBC   C0FH99621  11.910   3.581   7.739
  142SBC   C0FI99622  11.874   3.678   7.842
  142SBC   C0F399623  11.935   3.811   7.840
  142SBC   C0F299624  11.859   3.907   7.888
  142SBC   C0DW99625  11.722   3.899   7.916
  142SBC   C0FE99626  11.658   3.777   7.907
  142SBC   C0DV99627  11.644   4.013   7.924
  142SBC   C0DX99628  11.509   4.007   7.913
  142SBC   C0DK99629  11.437   4.125   7.915
  142SBC   C0DJ99630  11.502   4.249   7.923
  142SBC   C0DI99631  11.425   4.366   7.933
  142SBC   C0DH99632  11.288   4.357   7.944
  142SBC   C0DG99633  11.223   4.236   7.940
  142SBC   C0BV99634  11.084   4.233   7.943
  142SBC   C0BC99635  11.022   4.107   7.925
  142SBC   C0BA99636  11.005   4.344   7.967
  142SBC   C0B499637  10.863   4.332   7.958
  142SBC   C0B399638  10.806   4.209   7.939
  142SBC   C0B599639  10.792   4.446   7.981
  142SBC   C0BU99640  10.853   4.568   7.988
  142SBC   C0BT99641  10.996   4.585   7.981
  142SBC   C0BS99642  11.061   4.711   7.994
  142SBC   C0CC99643  11.199   4.713   7.982
  142SBC   C0CB99644  11.270   4.833   7.991
  142SBC   C0CH99645  11.402   4.838   7.935
  142SBC   C0DO99646  11.482   4.724   7.925
  142SBC   C0DP99647  11.623   4.733   7.912
  142SBC   C0EA99648  11.692   4.863   7.917
  142SBC   H01299649  11.648   4.959   7.935
  142SBC   O00999650  11.830   4.871   7.902
  142SBC   C0EH99651  11.901   4.755   7.881
  142SBC   C0EG99652  12.037   4.767   7.855
  142SBC   C0EJ99653  12.130   4.876   7.854
  142SBC   H01099654  12.108   4.978   7.884
  142SBC   C0EK99655  12.261   4.827   7.813
  142SBC   H00Z99656  12.350   4.887   7.804
  142SBC   C0EL99657  12.242   4.684   7.798
  142SBC   C0EM99658  12.321   4.579   7.735
  142SBC   C0EW99659  12.460   4.591   7.703
  142SBC   H01399660  12.511   4.686   7.709
  142SBC   C0EX99661  12.541   4.467   7.673
  142SBC   H01499662  12.647   4.473   7.651
  142SBC   C0F199663  12.471   4.343   7.671
  142SBC   C0EU99664  12.333   4.340   7.691
  142SBC   C0ET99665  12.248   4.227   7.695
  142SBC   C0ES99666  12.120   4.277   7.735
  142SBC   C0EE99667  12.131   4.417   7.754
  142SBC   C0ED99668  12.058   4.526   7.806
  142SBC   C0EC99669  11.920   4.509   7.852
  142SBC   C0EB99670  11.854   4.384   7.873
  142SBC   C0EN99671  11.921   4.259   7.870
  142SBC   C0ER99672  11.844   4.147   7.890
  142SBC   C0DS99673  11.712   4.378   7.908
  142SBC   C0DR99674  11.635   4.495   7.916
  142SBC   C0EY99675  12.049   4.202   7.827
  142SBC   C0EZ99676  12.046   4.060   7.818
  142SBC   C0F599677  12.120   3.951   7.759
  142SBC   C0F699678  12.246   3.974   7.688
  142SBC   N00899679  12.303   3.851   7.632
  142SBC   C0F799680  12.228   3.726   7.625
  142SBC   C0FQ99681  12.296   3.623   7.551
  142SBC   H01899682  12.251   3.525   7.550
  142SBC   C0FP99683  12.427   3.633   7.512
  142SBC   H01999684  12.478   3.544   7.478
  142SBC   C0FO99685  12.495   3.755   7.521
  142SBC   H01A99686  12.595   3.757   7.480
  142SBC   C0F899687  12.100   3.716   7.688
  142SBC   C0F999688  12.434   3.863   7.574
  142SBC   C0FA99689  12.505   3.986   7.580
  142SBC   H01599690  12.607   3.993   7.545
  142SBC   C0FB99691  12.446   4.104   7.628
  142SBC   C0FD99692  12.312   4.100   7.673
  142SBC   C0FC99693  12.535   4.220   7.633
  142SBC   O00A99694  12.659   4.218   7.616
  142SBC   C0EV99695  12.260   4.453   7.722
  142SBC   C0EF99696  12.112   4.656   7.826
  142SBC   C0EI99697  11.842   4.623   7.882
  142SBC   C0DQ99698  11.699   4.619   7.900
  142SBC   C0CE99699  11.418   4.605   7.941
  142SBC   H00U99700  11.448   4.936   7.930
  142SBC   C0CA99701  11.200   4.947   8.052
  142SBC   C0C999702  11.053   4.949   8.066
  142SBC   C0C899703  10.994   5.063   8.132
  142SBC   C0C799704  10.853   5.109   8.150
  142SBC   C0C699705  10.838   5.224   8.232
  142SBC   C0C599706  10.746   5.336   8.245
  142SBC   C0CQ99707  10.801   5.456   8.294
  142SBC   C0D199708  10.941   5.471   8.299
  142SBC   C0D899709  10.972   5.599   8.253
  142SBC   C0D799710  10.853   5.673   8.276
  142SBC   C0D699711  10.843   5.812   8.245
  142SBC   C0D599712  10.718   5.878   8.248
  142SBC   C0D499713  10.585   5.839   8.276
  142SBC   C0D399714  10.492   5.932   8.228
  142SBC   C0CX99715  10.371   5.873   8.180
  142SBC   C0CW99716  10.399   5.727   8.173
  142SBC   C0CV99717  10.327   5.604   8.142
  142SBC   C0D299718  10.188   5.604   8.107
  142SBC   C09D99719  10.102   5.719   8.085
  142SBC   C09C99720   9.964   5.708   8.052
  142SBC   C09B99721   9.873   5.812   8.023
  142SBC   C09A99722   9.918   5.943   8.036
  142SBC   C09999723  10.049   5.965   8.058
  142SBC   C09899724  10.057   6.093   8.121
  142SBC   C08Y99725   9.920   6.136   8.157
  142SBC   C08X99726   9.877   6.232   8.257
  142SBC   C08W99727   9.975   6.289   8.348
  142SBC   C08U99728  10.117   6.254   8.373
  142SBC   C08V99729  10.207   6.159   8.313
  142SBC   C0DC99730  10.340   6.183   8.366
  142SBC   H00W99731  10.429   6.127   8.341
  142SBC   C0DB99732  10.336   6.296   8.452
  142SBC   H00X99733  10.419   6.345   8.502
  142SBC   C08T99734  10.197   6.333   8.457
  142SBC   C08S99735  10.143   6.429   8.535
  142SBC   H00N99736  10.211   6.475   8.605
  142SBC   C08R99737  10.006   6.457   8.537
  142SBC   C08Q99738   9.947   6.548   8.633
  142SBC   H00O99739  10.017   6.591   8.703
  142SBC   C08P99740   9.810   6.574   8.641
  142SBC   C08O99741   9.750   6.662   8.738
  142SBC   H00P99742   9.815   6.723   8.799
  142SBC   C08N99743   9.611   6.683   8.744
  142SBC   C08M99744   9.555   6.774   8.839
  142SBC   O00899745   9.615   6.849   8.916
  142SBC   O00799746   9.421   6.771   8.849
  142SBC   C08H99747   9.338   6.713   8.759
  142SBC   C08G99748   9.195   6.727   8.774
  142SBC   C03V99749   9.123   6.815   8.854
  142SBC   H00999750   9.173   6.894   8.908
  142SBC   C03U99751   8.983   6.814   8.867
  142SBC   C03W99752   8.898   6.898   8.955
  142SBC   H00A99753   8.941   6.980   9.011
  142SBC   C03X99754   8.771   6.868   8.969
  142SBC   H00B99755   8.716   6.941   9.028
  142SBC   O00599756   8.704   6.768   8.903
  142SBC   C03O99757   8.781   6.702   8.807
  142SBC   C03N99758   8.715   6.601   8.736
  142SBC   O00099759   8.586   6.591   8.753
  142SBC   C01999760   8.525   6.473   8.723
  142SBC   C01899761   8.586   6.389   8.636
  142SBC   C01799762   8.718   6.413   8.598
  142SBC   C01699763   8.778   6.325   8.505
  142SBC   C01599764   8.695   6.216   8.466
  142SBC   C01499765   8.756   6.116   8.386
  142SBC   C01399766   8.893   6.124   8.349
  142SBC   C01299767   8.909   6.006   8.259
  142SBC   C01199768   8.778   5.941   8.256
  142SBC   C01099769   8.750   5.835   8.180
  142SBC   C00Z99770   8.640   5.753   8.196
  142SBC   C00Y99771   8.694   5.627   8.143
  142SBC   C01O99772   8.820   5.635   8.103
  142SBC   C01P99773   8.911   5.536   8.112
  142SBC   C02L99774   9.046   5.562   8.098
  142SBC   C02K99775   9.081   5.697   8.102
  142SBC   C01M99776   8.990   5.803   8.135
  142SBC   C02J99777   9.213   5.712   8.066
  142SBC   C02I99778   9.287   5.836   8.061
  142SBC   C02H99779   9.250   5.961   8.111
  142SBC   C01Q99780   9.135   6.007   8.176
  142SBC   C02G99781   9.162   6.136   8.230
  142SBC   C08999782   9.290   6.173   8.179
  142SBC   C08899783   9.349   6.274   8.257
  142SBC   C08799784   9.233   6.314   8.343
  142SBC   C08699785   9.233   6.408   8.452
  142SBC   C03S99786   9.121   6.463   8.523
  142SBC   N00699787   9.179   6.553   8.610
  142SBC   C08F99788   9.316   6.561   8.589
  142SBC   C01J99789   8.983   6.444   8.536
  142SBC   C03R99790   8.919   6.532   8.626
  142SBC   C03Q99791   8.989   6.631   8.700
  142SBC   C08E99792   9.358   6.464   8.502
  142SBC   C08D99793   9.498   6.450   8.479
  142SBC   C08K99794   9.587   6.520   8.563
  142SBC   C08C99795   9.554   6.364   8.377
  142SBC   C09199796   9.695   6.358   8.368
  142SBC   C09299797   9.786   6.420   8.460
  142SBC   C08B99798   9.493   6.283   8.274
  142SBC   C09099799   9.610   6.221   8.207
  142SBC   C09499800   9.600   6.116   8.109
  142SBC   C09599801   9.703   6.031   8.069
  142SBC   C09R99802   9.653   5.910   8.026
  142SBC   C09799803   9.518   5.913   8.031
  142SBC   C09699804   9.482   6.040   8.080
  142SBC   C01I99805   9.112   6.237   8.322
  142SBC   C08A99806   9.349   6.062   8.118
  142SBC   C09L99807   9.418   5.812   8.021
  142SBC   C09K99808   9.429   5.670   8.006
  142SBC   C09J99809   9.558   5.599   8.010
  142SBC   C09I99810   9.572   5.460   8.023
  142SBC   C09O99811   9.491   5.339   8.036
  142SBC   C09N99812   9.349   5.342   8.049
  142SBC   C09M99813   9.267   5.462   8.055
  142SBC   C06O99814   9.292   5.215   8.066
  142SBC   C05M99815   9.368   5.095   8.051
  142SBC   C06P99816   9.504   5.099   8.024
  142SBC   C04299817   9.312   4.969   8.080
  142SBC   C04199818   9.178   4.962   8.116
  142SBC   C04099819   9.127   4.838   8.160
  142SBC   C03Z99820   8.998   4.831   8.207
  142SBC   C03Y99821   8.919   4.942   8.199
  142SBC   C02799822   8.786   4.933   8.242
  142SBC   C02699823   8.702   5.040   8.241
  142SBC   C02899824   8.573   5.035   8.300
  142SBC   C02999825   8.529   4.920   8.355
  142SBC   C02B99826   8.401   4.909   8.414
  142SBC   C02C99827   8.366   4.793   8.484
  142SBC   C02X99828   8.244   4.790   8.543
  142SBC   C03E99829   8.208   4.674   8.611
  142SBC   C03G99830   8.290   4.570   8.639
  142SBC   C04Q99831   8.410   4.571   8.569
  142SBC   C04R99832   8.496   4.464   8.575
  142SBC   C04S99833   8.620   4.465   8.509
  142SBC   C04L99834   8.660   4.582   8.440
  142SBC   C04M99835   8.570   4.687   8.425
  142SBC   C04K99836   8.783   4.586   8.379
  142SBC   C04F99837   8.863   4.477   8.388
  142SBC   C04E99838   8.816   4.356   8.444
  142SBC   C04D99839   8.897   4.242   8.436
  142SBC   C05099840   8.860   4.134   8.511
  142SBC   C05199841   8.946   4.020   8.515
  142SBC   C05Q99842   8.917   3.910   8.589
  142SBC   C05V99843   8.996   3.795   8.573
  142SBC   N00599844   8.955   3.676   8.638
  142SBC   C07V99845   8.847   3.685   8.727
  142SBC   C08299846   8.805   3.570   8.795
  142SBC   C08199847   8.868   3.444   8.776
  142SBC   C07C99848   8.982   3.438   8.686
  142SBC   C07B99849   9.057   3.315   8.671
  142SBC   C08099850   9.011   3.196   8.726
  142SBC   C07Z99851   9.086   3.079   8.706
  142SBC   H00L99852   9.074   2.991   8.768
  142SBC   C07999853   9.190   3.072   8.609
  142SBC   C07899854   9.230   3.192   8.551
  142SBC   C07799855   9.320   3.192   8.449
  142SBC   C07X99856   9.373   3.071   8.403
  142SBC   H00I99857   9.439   3.067   8.318
  142SBC   C07Y99858   9.352   2.949   8.468
  142SBC   H00H99859   9.396   2.857   8.433
  142SBC   C07699860   9.354   3.311   8.386
  142SBC   C06C99861   9.439   3.310   8.272
  142SBC   H00C99862   9.489   3.227   8.224
  142SBC   C06F99863   9.299   3.431   8.424
  142SBC   C06E99864   9.340   3.546   8.366
  142SBC   C06G99865   9.291   3.670   8.396
  142SBC   C06H99866   9.184   3.673   8.481
  142SBC   C06I99867   9.139   3.554   8.540
  142SBC   C06L99868   9.342   3.786   8.330
  142SBC   C06M99869   9.463   3.790   8.250
  142SBC   C06K99870   9.266   3.909   8.346
  142SBC   C05S99871   9.149   3.904   8.426
  142SBC   C05U99872   9.308   4.021   8.280
  142SBC   C05X99873   9.437   4.029   8.213
  142SBC   C05G99874   9.459   4.162   8.149
  142SBC   C05F99875   9.365   4.261   8.160
  142SBC   C05E99876   9.415   4.386   8.128
  142SBC   C04899877   9.341   4.502   8.139
  142SBC   C05699878   9.401   4.613   8.090
  142SBC   C04599879   9.330   4.730   8.104
  142SBC   C04799880   9.221   4.492   8.202
  142SBC   C04999881   9.175   4.368   8.251
  142SBC   C04B99882   9.059   4.363   8.320
  142SBC   C04699883   9.151   4.608   8.206
  142SBC   C04H99884   9.030   4.602   8.269
  142SBC   C05D99885   9.545   4.368   8.073
  142SBC   C04A99886   9.246   4.253   8.235
  142SBC   C05T99887   9.217   4.129   8.294
  142SBC   C05599888   9.100   4.130   8.368
  142SBC   C06D99889   9.445   3.547   8.279
  142SBC   C07W99890   9.200   3.434   8.518
  142SBC   C08599891   9.254   2.954   8.570
  142SBC   H00M99892   9.232   2.867   8.631
  142SBC   C08499893   8.898   3.207   8.806
  142SBC   H00J99894   8.852   3.121   8.852
  142SBC   C07A99895   9.163   3.310   8.583
  142SBC   C08399896   8.832   3.319   8.829
  142SBC   H00K99897   8.748   3.317   8.897
  142SBC   O00K99898   8.691   3.574   8.881
  142SBC   C0GO99899   8.625   3.690   8.897
  142SBC   C0GN99900   8.527   3.700   8.997
  142SBC   H01L99901   8.512   3.607   9.050
  142SBC   C0GM99902   8.454   3.821   9.020
  142SBC   C0GL99903   8.362   3.826   9.120
  142SBC   H01M99904   8.333   3.735   9.171
  142SBC   O00J99905   8.287   3.944   9.145
  142SBC   C0GK99906   8.306   4.041   9.049
  142SBC   H01N99907   8.251   4.131   9.073
  142SBC   C05K99908   8.390   4.034   8.939
  142SBC   C05J99909   8.401   4.143   8.849
  142SBC   C04Y99910   8.325   4.260   8.835
  142SBC   C04X99911   8.348   4.365   8.744
  142SBC   O00699912   8.221   4.275   8.919
  142SBC   C05399913   8.139   4.385   8.917
  142SBC   C04O99914   8.150   4.480   8.817
  142SBC   C03C99915   8.061   4.592   8.789
  142SBC   C03B99916   7.942   4.650   8.853
  142SBC   C05499917   7.899   4.607   8.978
  142SBC   C0GR99918   7.794   4.678   9.045
  142SBC   C03M99919   7.736   4.811   9.040
  142SBC   C03I99920   7.758   4.915   8.942
  142SBC   C03J99921   7.692   5.043   8.957
  142SBC   N00299922   7.721   5.157   8.879
  142SBC   C02U99923   7.659   5.281   8.898
  142SBC   C02T99924   7.705   5.393   8.836
  142SBC   C02Z99925   7.645   5.513   8.868
  142SBC   N00199926   7.693   5.636   8.808
  142SBC   C02R99927   7.631   5.762   8.837
  142SBC   C03299928   7.514   5.766   8.919
  142SBC   C03199929   7.461   5.642   8.969
  142SBC   H00799930   7.374   5.649   9.031
  142SBC   C03399931   7.456   5.895   8.938
  142SBC   H00399932   7.367   5.914   8.997
  142SBC   O00499933   7.518   6.008   8.893
  142SBC   C03499934   7.632   5.995   8.821
  142SBC   C03599935   7.687   6.114   8.781
  142SBC   C03699936   7.799   6.111   8.700
  142SBC   H00599937   7.850   6.203   8.677
  142SBC   C03799938   7.851   5.994   8.650
  142SBC   H00699939   7.934   6.004   8.581
  142SBC   C00D99940   7.804   5.873   8.697
  142SBC   C00C99941   7.851   5.747   8.665
  142SBC   C00B99942   7.971   5.734   8.577
  142SBC   C00A99943   8.073   5.817   8.509
  142SBC   C00999944   8.134   5.732   8.415
  142SBC   C00899945   8.267   5.735   8.372
  142SBC   C00799946   8.340   5.850   8.396
  142SBC   C00699947   8.467   5.865   8.339
  142SBC   C00599948   8.538   5.987   8.369
  142SBC   C00499949   8.491   6.072   8.469
  142SBC   C00399950   8.370   6.042   8.535
  142SBC   C00299951   8.329   6.116   8.646
  142SBC   C01C99952   8.394   6.235   8.668
  142SBC   C01B99953   8.335   6.329   8.753
  142SBC   H00099954   8.233   6.323   8.788
  142SBC   C00199955   8.229   6.071   8.731
  142SBC   C00099956   8.168   5.949   8.699
  142SBC   C01U99957   8.085   5.920   8.806
  142SBC   H00299958   8.021   5.837   8.831
  142SBC   C01T99959   8.120   6.021   8.910
  142SBC   O00299960   8.063   6.027   9.016
  142SBC   O00199961   8.211   6.106   8.859
  142SBC   C01S99962   8.294   5.934   8.497
  142SBC   C00N99963   8.324   5.614   8.330
  142SBC   C00M99964   8.271   5.493   8.346
  142SBC   C00J99965   8.146   5.481   8.401
  142SBC   C00I99966   8.094   5.363   8.450
  142SBC   C00H99967   7.987   5.371   8.537
  142SBC   C00G99968   7.931   5.492   8.571
  142SBC   C00F99969   7.839   5.498   8.673
  142SBC   C01X99970   7.948   5.257   8.609
  142SBC   C01W99971   8.008   5.136   8.583
  142SBC   C01V99972   8.122   5.128   8.494
  142SBC   C02099973   8.202   5.019   8.489
  142SBC   C01Z99974   7.971   5.022   8.652
  142SBC   C02Y99975   8.050   4.911   8.630
  142SBC   C03999976   8.019   4.798   8.700
  142SBC   C02W99977   7.876   5.022   8.754
  142SBC   C01Y99978   7.851   5.265   8.704
  142SBC   C00U99979   8.167   5.246   8.438
  142SBC   C00S99980   8.292   5.255   8.373
  142SBC   C00T99981   8.367   5.141   8.363
  142SBC   C00R99982   8.343   5.377   8.332
  142SBC   C00Q99983   8.466   5.380   8.272
  142SBC   C00V99984   8.542   5.264   8.257
  142SBC   C02499985   8.671   5.274   8.204
  142SBC   C00X99986   8.721   5.399   8.162
  142SBC   C00P99987   8.519   5.506   8.237
  142SBC   C00O99988   8.453   5.623   8.279
  142SBC   C00K99989   8.074   5.606   8.420
  142SBC   N00099990   8.172   5.897   8.569
  142SBC   C00L99991   7.979   5.606   8.516
  142SBC   H00499992   7.641   6.202   8.825
  142SBC   C02Q99993   7.698   5.876   8.788
  142SBC   C00E99994   7.799   5.629   8.716
  142SBC   C03099995   7.530   5.521   8.950
  142SBC   O00399996   7.482   5.402   9.002
  142SBC   C02S99997   7.796   5.383   8.735
  142SBC   C03899998   7.550   5.286   8.983
  142SBC   C03L99999   7.511   5.172   9.049
  142SBC   H008    0   7.420   5.173   9.107
  142SBC   C02V    1   7.822   5.147   8.781
  142SBC   C03K    2   7.589   5.055   9.050
  142SBC   C0BK    3   7.562   4.948   9.132
  142SBC   H00T    4   7.491   4.950   9.214
  142SBC   C03H    5   7.855   4.905   8.838
  142SBC   C0BL    6   7.639   4.830   9.141
  142SBC   C0GU    7   7.618   4.739   9.251
  142SBC   H01O    8   7.539   4.764   9.320
  142SBC   C0GT    9   7.680   4.618   9.259
  142SBC   H01P   10   7.657   4.549   9.338
  142SBC   C0GS   11   7.774   4.598   9.163
  142SBC   C0GV   12   7.859   4.480   9.153
  142SBC   C0GW   13   7.866   4.367   9.242
  142SBC   H01Q   14   7.806   4.360   9.331
  142SBC   C0GX   15   7.956   4.271   9.217
  142SBC   H01R   16   7.956   4.183   9.280
  142SBC   O00L   17   8.036   4.274   9.107
  142SBC   C0GQ   18   7.940   4.488   9.045
  142SBC   C03A   19   7.926   4.783   8.804
  142SBC   C05L   20   8.043   4.387   9.025
  142SBC   C04W   21   8.514   4.137   8.758
  142SBC   C05I   22   8.603   4.028   8.752
  142SBC   C05O   23   8.580   3.918   8.831
  142SBC   C052   24   8.715   4.026   8.670
  142SBC   C04V   25   8.549   4.241   8.671
  142SBC   C04U   26   8.665   4.244   8.591
  142SBC   N009   27   8.474   3.921   8.924
  142SBC   C0GP   28   8.662   3.806   8.820
  142SBC   C05W   29   8.772   3.800   8.733
  142SBC   C07D   30   9.027   3.551   8.622
  142SBC   C06J   31   9.113   3.790   8.495
  142SBC   C05P   32   8.805   3.918   8.668
  142SBC   C05R   33   9.069   4.018   8.439
  142SBC   C04Z   34   8.747   4.134   8.589
  142SBC   C04C   35   9.018   4.242   8.370
  142SBC   C04G   36   8.984   4.481   8.324
  142SBC   C04J   37   8.825   4.702   8.316
  142SBC   C04T   38   8.699   4.353   8.513
  142SBC   N003   39   8.462   4.354   8.666
  142SBC   C04P   40   8.261   4.473   8.729
  142SBC   C03D   41   8.099   4.686   8.692
  142SBC   C021   42   8.163   4.902   8.549
  142SBC   C03F   43   8.448   4.679   8.489
  142SBC   C022   44   8.325   5.023   8.417
  142SBC   C02A   45   8.614   4.807   8.361
  142SBC   C023   46   8.494   5.145   8.299
  142SBC   C025   47   8.750   5.163   8.203
  142SBC   C02D   48   8.885   5.177   8.158
  142SBC   C02E   49   8.942   5.303   8.127
  142SBC   C02N   50   9.075   5.320   8.095
  142SBC   C04N   51   8.739   4.812   8.302
  142SBC   C02P   52   8.967   5.067   8.156
  142SBC   C04I   53   8.950   4.713   8.258
  142SBC   C044   54   9.202   4.725   8.157
  142SBC   C043   55   9.101   5.080   8.124
  142SBC   C05N   56   9.156   5.207   8.096
  142SBC   C09U   57   9.571   5.220   8.037
  142SBC   C09V   58   9.712   5.216   8.031
  142SBC   C09X   59   9.783   5.330   8.040
  142SBC   C09Y   60   9.921   5.346   8.049
  142SBC   C0A1   61   9.992   5.228   8.047
  142SBC   C0A2   62   9.929   5.108   8.026
  142SBC   C0A4   63  10.001   4.992   8.025
  142SBC   C071   64   9.934   4.869   8.009
  142SBC   C0A5   65  10.007   4.751   7.996
  142SBC   C0A9   66  10.147   4.760   8.001
  142SBC   C0A8   67  10.208   4.882   8.008
  142SBC   C0AP   68  10.348   4.889   8.008
  142SBC   C0BY   69  10.404   5.009   8.040
  142SBC   C0BX   70  10.338   5.127   8.065
  142SBC   C0C2   71  10.411   5.244   8.098
  142SBC   C0C3   72  10.335   5.364   8.108
  142SBC   C0CT   73  10.197   5.358   8.088
  142SBC   C0C1   74  10.548   5.244   8.116
  142SBC   C0C0   75  10.618   5.122   8.072
  142SBC   C0A7   76  10.200   5.119   8.056
  142SBC   C0BZ   77  10.542   5.012   8.044
  142SBC   C0BO   78  10.619   4.902   8.007
  142SBC   C0BN   79  10.560   4.777   7.996
  142SBC   C0BM   80  10.643   4.666   8.000
  142SBC   C0B9   81  10.580   4.543   7.997
  142SBC   C0B8   82  10.440   4.534   7.988
  142SBC   C0AD   83  10.364   4.651   7.996
  142SBC   C0AF   84  10.380   4.409   7.976
  142SBC   C0AG   85  10.454   4.289   7.975
  142SBC   C0B7   86  10.591   4.303   7.971
  142SBC   C0AE   87  10.244   4.415   7.975
  142SBC   C0AB   88  10.161   4.525   7.977
  142SBC   C0AA   89  10.020   4.520   7.977
  142SBC   C0AJ   90  10.183   4.291   7.963
  142SBC   C0AK   91  10.043   4.279   7.966
  142SBC   C06W   92  10.017   4.148   7.988
  142SBC   C0AI   93  10.243   4.163   7.974
  142SBC   C0BP   94  10.751   4.928   8.029
  142SBC   C0BQ   95  10.839   4.809   8.018
  142SBC   C0BW   96  10.425   4.775   7.992
  142SBC   C0AC   97  10.222   4.645   7.994
  142SBC   C0A6   98  10.140   4.998   8.030
  142SBC   C0A3   99  10.129   5.234   8.063
  142SBC   C09Z  100   9.990   5.468   8.054
  142SBC   C09W  101   9.788   5.102   8.023
  142SBC   C072  102   9.723   4.981   8.010
  142SBC   C09H  103   9.712   5.448   8.024
  142SBC   C09G  104   9.781   5.567   8.015
  142SBC   C09P  105   9.687   5.664   8.003
  142SBC   C02O  106   9.305   5.605   8.038
  142SBC   C02M  107   9.130   5.447   8.081
  142SBC   C02F  108   8.855   5.409   8.131
  142SBC   C00W  109   8.639   5.505   8.174
  142SBC   C01R  110   8.517   5.749   8.275
  142SBC   C01N  111   8.857   5.763   8.126
  142SBC   C01L  112   9.016   5.938   8.191
  142SBC   C01H  113   8.979   6.235   8.388
  142SBC   C01K  114   8.679   6.007   8.335
  142SBC   C01E  115   8.564   6.182   8.511
  142SBC   C01G  116   8.916   6.333   8.474
  142SBC   C01D  117   8.511   6.270   8.600
  142SBC   C01A  118   8.402   6.446   8.781
  142SBC   H001  119   8.347   6.521   8.836
  142SBC   C01F  120   8.786   6.515   8.651
  142SBC   C03P  121   8.920   6.716   8.789
  142SBC   C03T  122   9.119   6.643   8.690
  142SBC   C08I  123   9.392   6.631   8.667
  142SBC   C08J  124   9.529   6.608   8.660
  142SBC   C08L  125   9.729   6.501   8.555
  142SBC   C093  126   9.924   6.388   8.446
  142SBC   C08Z  127   9.737   6.265   8.266
  142SBC   C09T  128  10.180   6.071   8.201
  142SBC   C09S  129   9.841   6.048   8.082
  142SBC   C09Q  130   9.734   5.797   8.009
  142SBC   C09F  131   9.921   5.581   8.040
  142SBC   C09E  132  10.132   5.858   8.103
  142SBC   C0A0  133  10.123   5.479   8.088
  142SBC   C0CU  134  10.398   5.480   8.151
  142SBC   C0CR  135  10.540   5.469   8.185
  142SBC   C0CZ  136  10.607   5.586   8.230
  142SBC   C0DA  137  10.235   5.931   8.165
  142SBC   C0D9  138  10.570   6.029   8.150
  142SBC   H00V  139  10.533   6.106   8.084
  142SBC   C0CY  140  10.535   5.711   8.226
  142SBC   C0DF  141  10.711   5.991   8.160
  142SBC   C0DE  142  10.847   6.002   8.116
  142SBC   C0GI  143  10.911   6.098   8.029
  142SBC   H01K  144  10.853   6.184   8.002
  142SBC   C0GJ  145  11.037   6.071   7.999
  142SBC   H01J  146  11.071   6.144   7.927
  142SBC   O00I  147  11.118   5.962   8.029
  142SBC   C0GH  148  11.055   5.865   8.107
  142SBC   C0GG  149  11.135   5.751   8.120
  142SBC   O00G  150  11.266   5.759   8.079
  142SBC   C0G8  151  11.350   5.653   8.068
  142SBC   C0G9  152  11.484   5.688   8.050
  142SBC   H01G  153  11.511   5.790   8.028
  142SBC   C0GA  154  11.583   5.590   8.061
  142SBC   H01H  155  11.685   5.616   8.037
  142SBC   C0GB  156  11.548   5.457   8.100
  142SBC   C0EP  157  11.413   5.422   8.108
  142SBC   C0E8  158  11.383   5.278   8.110
  142SBC   C0CK  159  11.267   5.201   8.080
  142SBC   C0CL  160  11.154   5.247   8.148
  142SBC   C0E9  161  11.131   5.383   8.196
  142SBC   C0GE  162  11.179   5.515   8.162
  142SBC   C0E7  163  11.475   5.186   8.129
  142SBC   C0CJ  164  11.428   5.052   8.130
  142SBC   C0E6  165  11.514   4.951   8.174
  142SBC   H00Y  166  11.475   4.851   8.187
  142SBC   C0EO  167  11.648   4.990   8.212
  142SBC   H011  168  11.725   4.918   8.237
  142SBC   C0G6  169  11.698   5.122   8.195
  142SBC   C0G5  170  11.832   5.168   8.219
  142SBC   H01F  171  11.901   5.097   8.262
  142SBC   C0GD  172  11.866   5.299   8.199
  142SBC   H01I  173  11.967   5.331   8.217
  142SBC   O00H  174  11.782   5.390   8.148
  142SBC   C0EQ  175  11.609   5.223   8.150
  142SBC   C0GC  176  11.648   5.356   8.135
  142SBC   C0G7  177  11.311   5.521   8.109
  142SBC   C0DD  178  10.922   5.883   8.155
  142SBC   C0GF  179  11.098   5.630   8.185
  142SBC   C0CO  180  11.018   5.367   8.274
  142SBC   C0D0  181  10.744   5.580   8.259
  142SBC   C0C4  182  10.617   5.348   8.181
  142SBC   C0CN  183  10.971   5.237   8.280
  142SBC   C0CP  184  10.753   5.065   8.070
  142SBC   C0CM  185  11.062   5.158   8.213
  142SBC   C0CI  186  11.295   5.059   8.086
  142SBC   C0CD  187  11.277   4.600   7.956
  142SBC   C0BR  188  10.982   4.823   8.029
  142SBC   C0CS  189  10.778   4.684   8.004
  142SBC   C0B6  190  10.657   4.429   7.987
  142SBC   C0CG  191  11.070   4.469   7.972
  142SBC   C0CF  192  11.211   4.473   7.954
  142SBC   C0E5  193  11.495   4.487   7.936
  142SBC   C0DT  194  11.640   4.256   7.918
  142SBC   C0DL  195  11.297   4.117   7.918
  142SBC   C0DM  196  11.233   3.997   7.890
  142SBC   C0DY  197  11.446   3.884   7.898
  142SBC   C0DU  198  11.708   4.135   7.916
  142SBC   C0F0  199  11.921   4.033   7.874
  142SBC   C0F4  200  12.055   3.827   7.765
  142SBC   C0FG  201  11.739   3.673   7.871
  142SBC   O00B  202  12.019   3.603   7.661
  142SBC   C0FN  203  11.695   3.559   7.821
  142SBC   C0DZ  204  11.521   3.768   7.880
  142SBC   O00C  205  11.257   3.539   7.743
  142SBC   C0FR  206  11.126   3.529   7.731
  142SBC   O00D  207  11.086   3.430   7.664
  142SBC   C0E0  208  11.306   3.880   7.875
  142SBC   C0E3  209  11.049   3.633   7.787
  142SBC   C0AW  210  10.908   3.627   7.791
  142SBC   C0AV  211  10.827   3.513   7.755
  142SBC   H00Q  212  10.873   3.428   7.706
  142SBC   C0AU  213  10.690   3.517   7.771
  142SBC   H00R  214  10.647   3.425   7.736
  142SBC   C0AT  215  10.628   3.623   7.837
  142SBC   C0AS  216  10.489   3.662   7.859
  142SBC   C0AR  217  10.381   3.578   7.860
  142SBC   C0BE  218  10.709   3.729   7.870
  142SBC   C0DN  219  11.096   3.997   7.899
  142SBC   C0AX  220  10.844   3.741   7.835
  142SBC   C0BB  221  10.884   4.096   7.927
  142SBC   C0BD  222  10.632   3.836   7.901
  142SBC   C0B2  223  10.670   4.192   7.951
  142SBC   C0AH  224  10.388   4.161   7.964
  142SBC   C0BF  225  10.498   3.804   7.904
  142SBC   C0AL  226  10.138   4.072   7.981
  142SBC   C07U  227  10.207   3.728   7.974
  142SBC   C0AQ  228  10.263   3.607   7.932
  142SBC   C0BG  229  10.387   3.428   7.844
  142SBC   C0FY  230  10.098   3.219   7.822
  142SBC   C0BJ  231  10.400   3.357   7.715
  142SBC   H00S  232  10.462   3.384   7.631
  142SBC   C0FZ  233  10.103   3.148   7.703
  142SBC   C07S  234   9.978   3.277   7.875
  142SBC   C0G1  235   9.765   3.067   7.649
  142SBC   C07K  236   9.492   3.223   7.842
  142SBC   C07H  237   9.716   3.362   7.948
  142SBC   C06B  238   9.488   3.431   8.221
  142SBC   C06N  239   9.508   3.658   8.218
  142SBC   C066  240   9.845   3.581   8.032
  142SBC   C062  241   9.887   3.886   8.098
  142SBC   C05Y  242   9.523   3.911   8.208
  142SBC   C061  243   9.861   4.020   8.125
  142SBC   C05H  244   9.563   4.224   8.081
  142SBC   C06V  245   9.896   4.131   8.043
  142SBC   C06Y  246   9.960   4.393   7.979
  142SBC   C05C  247   9.610   4.495   8.044
  142SBC   C06Z  248   9.945   4.632   7.991
  142SBC   C070  249   9.798   4.861   8.006
  142SBC   C05B  250   9.534   4.613   8.044
  142SBC   C057  251   9.385   4.853   8.077
  142SBC   C059  252   9.581   4.981   8.021
  143SBC   C058  253   6.667   8.984  10.303
  143SBC   C05A  254   6.784   8.922  10.257
  143SBC   C06Q  255   6.906   8.922  10.327
  143SBC   C06R  256   7.016   8.851  10.282
  143SBC   C06S  257   7.015   8.776  10.163
  143SBC   C06T  258   7.130   8.703  10.126
  143SBC   C06U  259   7.157   8.608  10.013
  143SBC   C06X  260   7.084   8.577   9.898
  143SBC   C060  261   7.145   8.471   9.819
  143SBC   C05Z  262   7.166   8.454   9.678
  143SBC   C068  263   7.308   8.417   9.662
  143SBC   C067  264   7.384   8.378   9.540
  143SBC   C069  265   7.307   8.362   9.413
  143SBC   C06A  266   7.362   8.339   9.280
  143SBC   C073  267   7.488   8.377   9.229
  143SBC   C07P  268   7.499   8.448   9.105
  143SBC   C07O  269   7.391   8.520   9.049
  143SBC   H00D  270   7.293   8.522   9.096
  143SBC   C07N  271   7.397   8.581   8.923
  143SBC   H00E  272   7.318   8.638   8.876
  143SBC   C07M  273   7.520   8.573   8.856
  143SBC   H00F  274   7.530   8.623   8.761
  143SBC   C07L  275   7.634   8.517   8.917
  143SBC   C07Q  276   7.772   8.528   8.865
  143SBC   H00G  277   7.775   8.591   8.777
  143SBC   O00F  278   7.884   8.488   8.929
  143SBC   C07J  279   7.862   8.420   9.045
  143SBC   C07I  280   7.737   8.403   9.103
  143SBC   N004  281   7.724   8.331   9.231
  143SBC   C07R  282   7.839   8.259   9.281
  143SBC   C07T  283   7.961   8.285   9.211
  143SBC   C0FX  284   8.081   8.250   9.273
  143SBC   C0FW  285   8.206   8.296   9.238
  143SBC   C0G0  286   8.214   8.360   9.113
  143SBC   C0G2  287   8.337   8.414   9.065
  143SBC   H01E  288   8.337   8.470   8.972
  143SBC   C0G3  289   8.445   8.403   9.154
  143SBC   H01C  290   8.536   8.450   9.117
  143SBC   C0G4  291   8.440   8.339   9.272
  143SBC   H01D  292   8.516   8.341   9.348
  143SBC   O00E  293   8.097   8.386   9.044
  143SBC   C0FV  294   8.323   8.275   9.313
  143SBC   C0FU  295   8.313   8.198   9.434
  143SBC   H01B  296   8.401   8.175   9.493
  143SBC   C0FT  297   8.185   8.149   9.469
  143SBC   C0FS  298   8.126   8.085   9.581
  143SBC   C0BI  299   7.990   8.046   9.550
  143SBC   C0BH  300   7.921   8.054   9.672
  143SBC   C07F  301   7.806   8.138   9.699
  143SBC   C07E  302   7.708   8.192   9.613
  143SBC   C07G  303   7.716   8.205   9.478
  143SBC   C074  304   7.609   8.280   9.439
  143SBC   C065  305   7.601   8.270   9.660
  143SBC   C064  306   7.601   8.305   9.794
  143SBC   C063  307   7.508   8.377   9.858
  143SBC   C075  308   7.560   8.398   9.996
  143SBC   C0AM  309   7.694   8.340  10.012
  143SBC   C0AN  310   7.782   8.335  10.129
  143SBC   C0AO  311   7.771   8.404  10.266
  143SBC   C0B1  312   7.870   8.387  10.371
  143SBC   C0B0  313   7.981   8.304  10.353
  143SBC   C0AZ  314   8.084   8.293  10.442
  143SBC   C0AY  315   8.196   8.211  10.413
  143SBC   N007  316   8.304   8.199  10.503
  143SBC   C0E2  317   8.420   8.131  10.463
  143SBC   C0E1  318   8.529   8.130  10.551
  143SBC   C0E4  319   8.649   8.073  10.512
  143SBC   C0FF  320   8.761   8.067  10.596
  143SBC   C0FJ  321   8.897   8.012  10.583
  143SBC   C0FK  322   8.907   7.881  10.533
  143SBC   H016  323   8.843   7.818  10.474
  143SBC   C0FL  324   9.021   7.820  10.606
  143SBC   H017  325   9.046   7.715  10.616
  143SBC   C0FM  326   9.075   7.919  10.697
  143SBC   C0FH  327   9.122   7.931  10.837
  143SBC   C0FI  328   9.058   8.046  10.882
  143SBC   C0F3  329   9.036   8.066  11.019
  143SBC   C0F2  330   8.925   8.143  11.039
  143SBC   C0DW  331   8.831   8.183  10.947
  143SBC   C0FE  332   8.848   8.145  10.817
  143SBC   C0DV  333   8.708   8.229  10.988
  143SBC   C0DX  334   8.609   8.234  10.895
  143SBC   C0DK  335   8.483   8.278  10.933
  143SBC   C0DJ  336   8.460   8.302  11.069
  143SBC   C0DI  337   8.332   8.348  11.108
  143SBC   C0DH  338   8.241   8.384  11.014
  143SBC   C0DG  339   8.262   8.346  10.881
  143SBC   C0BV  340   8.166   8.371  10.790
  143SBC   C0BC  341   8.176   8.326  10.659
  143SBC   C0BA  342   8.052   8.439  10.826
  143SBC   C0B4  343   7.955   8.468  10.727
  143SBC   C0B3  344   7.963   8.423  10.597
  143SBC   C0B5  345   7.845   8.549  10.762
  143SBC   C0BU  346   7.830   8.589  10.893
  143SBC   C0BT  347   7.919   8.551  10.993
  143SBC   C0BS  348   7.885   8.568  11.125
  143SBC   C0CC  349   7.969   8.522  11.224
  143SBC   C0CB  350   7.933   8.527  11.358
  143SBC   C0CH  351   8.044   8.514  11.446
  143SBC   C0DO  352   8.165   8.447  11.413
  143SBC   C0DP  353   8.251   8.399  11.509
  143SBC   C0EA  354   8.211   8.394  11.648
  143SBC   H012  355   8.129   8.453  11.685
  143SBC   O009  356   8.276   8.320  11.744
  143SBC   C0EH  357   8.390   8.256  11.703
  143SBC   C0EG  358   8.450   8.170  11.790
  143SBC   C0EJ  359   8.406   8.110  11.916
  143SBC   H010  360   8.316   8.138  11.968
  143SBC   C0EK  361   8.500   8.004  11.951
  143SBC   H00Z  362   8.499   7.949  12.044
  143SBC   C0EL  363   8.601   8.010  11.847
  143SBC   C0EM  364   8.719   7.932  11.826
  143SBC   C0EW  365   8.783   7.838  11.911
  143SBC   H013  366   8.728   7.807  11.998
  143SBC   C0EX  367   8.904   7.764  11.871
  143SBC   H014  368   8.955   7.689  11.930
  143SBC   C0F1  369   8.960   7.792  11.743
  143SBC   C0EU  370   8.896   7.886  11.660
  143SBC   C0ET  371   8.946   7.931  11.534
  143SBC   C0ES  372   8.849   8.030  11.502
  143SBC   C0EE  373   8.748   8.047  11.600
  143SBC   C0ED  374   8.633   8.119  11.625
  143SBC   C0EC  375   8.564   8.200  11.532
  143SBC   C0EB  376   8.609   8.223  11.402
  143SBC   C0EN  377   8.743   8.186  11.347
  143SBC   C0ER  378   8.774   8.214  11.212
  143SBC   C0DS  379   8.524   8.278  11.300
  143SBC   C0DR  380   8.398   8.322  11.337
  143SBC   C0EY  381   8.859   8.115  11.396
  143SBC   C0EZ  382   8.952   8.085  11.281
  143SBC   C0F5  383   9.058   7.988  11.249
  143SBC   C0F6  384   9.102   7.890  11.342
  143SBC   N008  385   9.197   7.798  11.287
  143SBC   C0F7  386   9.234   7.785  11.141
  143SBC   C0FQ  387   9.325   7.682  11.115
  143SBC   H018  388   9.352   7.665  11.012
  143SBC   C0FP  389   9.390   7.600  11.207
  143SBC   H019  390   9.459   7.520  11.184
  143SBC   C0FO  391   9.355   7.620  11.339
  143SBC   H01A  392   9.408   7.553  11.405
  143SBC   C0F8  393   9.167   7.874  11.060
  143SBC   C0F9  394   9.261   7.708  11.381
  143SBC   C0FA  395   9.234   7.699  11.519
  143SBC   H015  396   9.284   7.623  11.578
  143SBC   C0FB  397   9.124   7.767  11.566
  143SBC   C0FD  398   9.063   7.866  11.478
  143SBC   C0FC  399   9.084   7.734  11.698
  143SBC   O00A  400   9.156   7.665  11.771
  143SBC   C0EV  401   8.781   7.959  11.705
  143SBC   C0EF  402   8.562   8.102  11.746
  143SBC   C0EI  403   8.444   8.263  11.566
  143SBC   C0DQ  404   8.365   8.326  11.472
  143SBC   C0CE  405   8.191   8.428  11.280
  143SBC   H00U  406   8.021   8.531  11.550
  143SBC   C0CA  407   7.799   8.531  11.395
  143SBC   C0C9  408   7.716   8.601  11.304
  143SBC   C0C8  409   7.579   8.631  11.344
  143SBC   C0C7  410   7.483   8.730  11.293
  143SBC   C0C6  411   7.350   8.707  11.343
  143SBC   C0C5  412   7.250   8.800  11.387
  143SBC   C0CQ  413   7.178   8.774  11.502
  143SBC   C0D1  414   7.226   8.681  11.588
  143SBC   C0D8  415   7.206   8.720  11.717
  143SBC   C0D7  416   7.138   8.838  11.717
  143SBC   C0D6  417   7.080   8.904  11.826
  143SBC   C0D5  418   6.994   9.009  11.799
  143SBC   C0D4  419   6.974   9.113  11.703
  143SBC   C0D3  420   6.840   9.164  11.716
  143SBC   C0CX  421   6.794   9.199  11.581
  143SBC   C0CW  422   6.894   9.158  11.486
  143SBC   C0CV  423   6.920   9.158  11.345
  143SBC   C0D2  424   6.837   9.223  11.251
  143SBC   C09D  425   6.732   9.310  11.284
  143SBC   C09C  426   6.646   9.359  11.183
  143SBC   C09B  427   6.528   9.441  11.197
  143SBC   C09A  428   6.509   9.484  11.329
  143SBC   C099  429   6.598   9.458  11.430
  143SBC   C098  430   6.533   9.478  11.553
  143SBC   C08Y  431   6.391   9.508  11.522
  143SBC   C08X  432   6.272   9.490  11.597
  143SBC   C08W  433   6.287   9.448  11.735
  143SBC   C08U  434   6.407   9.389  11.808
  143SBC   C08V  435   6.537   9.351  11.768
  143SBC   C0DC  436   6.610   9.321  11.889
  143SBC   H00W  437   6.718   9.316  11.885
  143SBC   C0DB  438   6.522   9.333  12.003
  143SBC   H00X  439   6.546   9.325  12.108
  143SBC   C08T  440   6.401   9.380  11.951
  143SBC   C08S  441   6.291   9.409  12.023
  143SBC   H00N  442   6.285   9.394  12.130
  143SBC   C08R  443   6.173   9.439  11.961
  143SBC   C08Q  444   6.052   9.442  12.034
  143SBC   H00O  445   6.064   9.419  12.139
  143SBC   C08P  446   5.929   9.455  11.985
  143SBC   C08O  447   5.806   9.446  12.059
  143SBC   H00P  448   5.806   9.422  12.164
  143SBC   C08N  449   5.687   9.456  11.991
  143SBC   C08M  450   5.565   9.449  12.069
  143SBC   O008  451   5.554   9.437  12.190
  143SBC   O007  452   5.447   9.437  12.006
  143SBC   C08H  453   5.440   9.447  11.871
  143SBC   C08G  454   5.316   9.445  11.799
  143SBC   C03V  455   5.190   9.433  11.860
  143SBC   H009  456   5.183   9.430  11.967
  143SBC   C03U  457   5.073   9.437  11.787
  143SBC   C03W  458   4.945   9.424  11.839
  143SBC   H00A  459   4.936   9.404  11.945
  143SBC   C03X  460   4.838   9.419  11.759
  143SBC   H00B  461   4.744   9.407  11.811
  143SBC   O005  462   4.843   9.427  11.623
  143SBC   C03O  463   4.965   9.437  11.566
  143SBC   C03N  464   4.983   9.415  11.429
  143SBC   O000  465   4.874   9.378  11.360
  143SBC   C019  466   4.878   9.342  11.229
  143SBC   C018  467   5.008   9.338  11.166
  143SBC   C017  468   5.123   9.388  11.232
  143SBC   C016  469   5.244   9.399  11.169
  143SBC   C015  470   5.239   9.352  11.039
  143SBC   C014  471   5.359   9.372  10.964
  143SBC   C013  472   5.480   9.420  11.023
  143SBC   C012  473   5.573   9.419  10.913
  143SBC   C011  474   5.492   9.383  10.798
  143SBC   C010  475   5.545   9.377  10.675
  143SBC   C00Z  476   5.480   9.338  10.562
  143SBC   C00Y  477   5.590   9.323  10.476
  143SBC   C01O  478   5.711   9.366  10.530
  143SBC   C01P  479   5.834   9.311  10.499
  143SBC   C02L  480   5.939   9.331  10.580
  143SBC   C02K  481   5.909   9.387  10.707
  143SBC   C01M  482   5.771   9.414  10.757
  143SBC   C02J  483   6.027   9.425  10.781
  143SBC   C02I  484   6.026   9.487  10.906
  143SBC   C02H  485   5.927   9.515  10.999
  143SBC   C01Q  486   5.792   9.497  10.991
  143SBC   C02G  487   5.738   9.528  11.124
  143SBC   C089  488   5.841   9.581  11.199
  143SBC   C088  489   5.823   9.567  11.337
  143SBC   C087  490   5.682   9.520  11.341
  143SBC   C086  491   5.601   9.508  11.458
  143SBC   C03S  492   5.458   9.486  11.468
  143SBC   N006  493   5.430   9.471  11.603
  143SBC   C08F  494   5.548   9.477  11.667
  143SBC   C01J  495   5.347   9.465  11.378
  143SBC   C03R  496   5.221   9.450  11.441
  143SBC   C03Q  497   5.202   9.454  11.581
  143SBC   C08E  498   5.659   9.502  11.586
  143SBC   C08D  499   5.787   9.512  11.643
  143SBC   C08K  500   5.798   9.489  11.782
  143SBC   C08C  501   5.908   9.539  11.571
  143SBC   C091  502   6.029   9.517  11.639
  143SBC   C092  503   6.043   9.486  11.775
  143SBC   C08B  504   5.931   9.574  11.438
  143SBC   C090  505   6.077   9.581  11.428
  143SBC   C094  506   6.153   9.590  11.304
  143SBC   C095  507   6.285   9.553  11.285
  143SBC   C09R  508   6.307   9.535  11.151
  143SBC   C097  509   6.189   9.535  11.081
  143SBC   C096  510   6.096   9.575  11.174
  143SBC   C01I  511   5.620   9.504  11.206
  143SBC   C08A  512   5.960   9.574  11.125
  143SBC   C09L  513   6.162   9.491  10.948
  143SBC   C09K  514   6.244   9.436  10.844
  143SBC   C09J  515   6.383   9.404  10.855
  143SBC   C09I  516   6.451   9.312  10.765
  143SBC   C09O  517   6.436   9.250  10.636
  143SBC   C09N  518   6.309   9.242  10.568
  143SBC   C09M  519   6.183   9.298  10.616
  143SBC   C06O  520   6.309   9.166  10.449
  143SBC   C05M  521   6.432   9.113  10.395
  143SBC   C06P  522   6.549   9.123  10.467
  143SBC   C042  523   6.429   9.039  10.278
  143SBC   C041  524   6.314   9.023  10.210
  143SBC   C040  525   6.312   8.941  10.098
  143SBC   C03Z  526   6.196   8.906  10.035
  143SBC   C03Y  527   6.076   8.956  10.083
  143SBC   C027  528   5.959   8.927  10.015
  143SBC   C026  529   5.840   8.978  10.056
  143SBC   C028  530   5.721   8.937  10.000
  143SBC   C029  531   5.723   8.840   9.904
  143SBC   C02B  532   5.601   8.781   9.870
  143SBC   C02C  533   5.599   8.673   9.784
  143SBC   C02X  534   5.488   8.594   9.773
  143SBC   C03E  535   5.495   8.486   9.690
  143SBC   C03G  536   5.606   8.450   9.615
  143SBC   C04Q  537   5.714   8.530   9.633
  143SBC   C04R  538   5.831   8.500   9.563
  143SBC   C04S  539   5.954   8.554   9.598
  143SBC   C04L  540   5.956   8.647   9.702
  143SBC   C04M  541   5.838   8.696   9.756
  143SBC   C04K  542   6.071   8.694   9.754
  143SBC   C04F  543   6.189   8.646   9.696
  143SBC   C04E  544   6.192   8.560   9.592
  143SBC   C04D  545   6.314   8.518   9.538
  143SBC   C050  546   6.313   8.430   9.430
  143SBC   C051  547   6.431   8.383   9.379
  143SBC   C05Q  548   6.434   8.297   9.266
  143SBC   C05V  549   6.557   8.257   9.209
  143SBC   N005  550   6.555   8.171   9.100
  143SBC   C07V  551   6.431   8.134   9.043
  143SBC   C082  552   6.433   8.069   8.918
  143SBC   C081  553   6.550   8.030   8.854
  143SBC   C07C  554   6.671   8.065   8.915
  143SBC   C07B  555   6.790   8.025   8.856
  143SBC   C080  556   6.788   7.948   8.740
  143SBC   C07Z  557   6.911   7.906   8.684
  143SBC   H00L  558   6.907   7.849   8.592
  143SBC   C079  559   7.035   7.934   8.741
  143SBC   C078  560   7.034   8.020   8.855
  143SBC   C077  561   7.156   8.057   8.920
  143SBC   C07X  562   7.281   8.005   8.866
  143SBC   H00I  563   7.376   8.027   8.912
  143SBC   C07Y  564   7.281   7.913   8.759
  143SBC   H00H  565   7.377   7.874   8.728
  143SBC   C076  566   7.158   8.148   9.024
  143SBC   C06C  567   7.281   8.202   9.078
  143SBC   H00C  568   7.377   8.188   9.032
  143SBC   C06F  569   7.036   8.184   9.085
  143SBC   C06E  570   7.028   8.261   9.199
  143SBC   C06G  571   6.911   8.299   9.263
  143SBC   C06H  572   6.792   8.265   9.204
  143SBC   C06I  573   6.796   8.182   9.089
  143SBC   C06L  574   6.919   8.377   9.380
  143SBC   C06M  575   7.044   8.406   9.452
  143SBC   C06K  576   6.798   8.426   9.433
  143SBC   C05S  577   6.672   8.386   9.380
  143SBC   C05U  578   6.799   8.507   9.553
  143SBC   C05X  579   6.923   8.522   9.629
  143SBC   C05G  580   6.894   8.597   9.753
  143SBC   C05F  581   6.772   8.657   9.778
  143SBC   C05E  582   6.769   8.717   9.903
  143SBC   C048  583   6.651   8.768   9.957
  143SBC   C056  584   6.661   8.840  10.071
  143SBC   C045  585   6.548   8.901  10.117
  143SBC   C047  586   6.542   8.747   9.885
  143SBC   C049  587   6.543   8.675   9.768
  143SBC   C04B  588   6.428   8.641   9.704
  143SBC   C046  589   6.425   8.797   9.940
  143SBC   C04H  590   6.306   8.774   9.868
  143SBC   C05D  591   6.893   8.714   9.965
  143SBC   C04A  592   6.659   8.626   9.707
  143SBC   C05T  593   6.674   8.550   9.594
  143SBC   C055  594   6.553   8.511   9.537
  143SBC   C06D  595   7.146   8.297   9.262
  143SBC   C07W  596   6.917   8.145   9.023
  143SBC   C085  597   7.164   7.885   8.693
  143SBC   H00M  598   7.176   7.815   8.612
  143SBC   C084  599   6.668   7.926   8.670
  143SBC   H00J  600   6.660   7.873   8.576
  143SBC   C07A  601   6.915   8.062   8.909
  143SBC   C083  602   6.553   7.969   8.732
  143SBC   H00K  603   6.457   7.946   8.687
  143SBC   O00K  604   6.308   8.048   8.857
  143SBC   C0GO  605   6.191   8.077   8.926
  143SBC   C0GN  606   6.073   8.034   8.874
  143SBC   H01L  607   6.071   7.968   8.788
  143SBC   C0GM  608   5.947   8.069   8.928
  143SBC   C0GL  609   5.832   8.026   8.870
  143SBC   H01M  610   5.823   7.960   8.785
  143SBC   O00J  611   5.712   8.038   8.935
  143SBC   C0GK  612   5.718   8.093   9.060
  143SBC   H01N  613   5.625   8.092   9.115
  143SBC   C05K  614   5.827   8.153   9.114
  143SBC   C05J  615   5.820   8.220   9.244
  143SBC   C04Y  616   5.707   8.244   9.329
  143SBC   C04X  617   5.707   8.327   9.444
  143SBC   O006  618   5.577   8.194   9.300
  143SBC   C053  619   5.457   8.219   9.367
  143SBC   C04O  620   5.463   8.294   9.488
  143SBC   C03C  621   5.357   8.322   9.582
  143SBC   C03B  622   5.220   8.277   9.608
  143SBC   C054  623   5.144   8.222   9.501
  143SBC   C0GR  624   5.005   8.197   9.509
  143SBC   C03M  625   4.895   8.239   9.606
  143SBC   C03I  626   4.908   8.334   9.712
  143SBC   C03J  627   4.789   8.371   9.782
  143SBC   N002  628   4.787   8.482   9.871
  143SBC   C02U  629   4.672   8.520   9.944
  143SBC   C02T  630   4.671   8.619  10.040
  143SBC   C02Z  631   4.562   8.645  10.116
  143SBC   N001  632   4.563   8.751  10.221
  143SBC   C02R  633   4.452   8.774  10.301
  143SBC   C032  634   4.343   8.691  10.286
  143SBC   C031  635   4.339   8.591  10.185
  143SBC   H007  636   4.249   8.534  10.174
  143SBC   C033  637   4.239   8.724  10.378
  143SBC   H003  638   4.149   8.670  10.354
  143SBC   O004  639   4.235   8.827  10.476
  143SBC   C034  640   4.351   8.894  10.488
  143SBC   C035  641   4.357   8.990  10.589
  143SBC   C036  642   4.461   9.086  10.586
  143SBC   H005  643   4.461   9.162  10.662
  143SBC   C037  644   4.565   9.072  10.499
  143SBC   H006  645   4.644   9.146  10.501
  143SBC   C00D  646   4.571   8.958  10.412
  143SBC   C00C  647   4.684   8.922  10.339
  143SBC   C00B  648   4.810   8.997  10.363
  143SBC   C00A  649   4.874   9.109  10.443
  143SBC   C009  650   4.999   9.129  10.374
  143SBC   C008  651   5.120   9.187  10.419
  143SBC   C007  652   5.125   9.218  10.555
  143SBC   C006  653   5.242   9.274  10.612
  143SBC   C005  654   5.243   9.305  10.753
  143SBC   C004  655   5.134   9.274  10.830
  143SBC   C003  656   5.021   9.211  10.772
  143SBC   C002  657   4.915   9.178  10.852
  143SBC   C01C  658   4.904   9.237  10.977
  143SBC   C01B  659   4.774   9.242  11.043
  143SBC   H000  660   4.684   9.202  10.998
  143SBC   C001  661   4.826   9.082  10.811
  143SBC   C000  662   4.824   9.044  10.680
  143SBC   C01U  663   4.737   8.937  10.682
  143SBC   H002  664   4.705   8.866  10.606
  143SBC   C01T  665   4.680   8.923  10.821
  143SBC   O002  666   4.585   8.853  10.858
  143SBC   O001  667   4.742   9.017  10.891
  143SBC   C01S  668   5.019   9.182  10.637
  143SBC   C00N  669   5.233   9.171  10.343
  143SBC   C00M  670   5.236   9.098  10.227
  143SBC   C00J  671   5.125   9.021  10.196
  143SBC   C00I  672   5.125   8.917  10.102
  143SBC   C00H  673   5.009   8.846  10.081
  143SBC   C00G  674   4.897   8.871  10.158
  143SBC   C00F  675   4.786   8.794  10.148
  143SBC   C01X  676   5.010   8.741   9.994
  143SBC   C01W  677   5.130   8.703   9.939
  143SBC   C01V  678   5.245   8.781   9.963
  143SBC   C020  679   5.369   8.746   9.911
  143SBC   C01Z  680   5.135   8.591   9.864
  143SBC   C02Y  681   5.261   8.555   9.823
  143SBC   C039  682   5.268   8.448   9.743
  143SBC   C02W  683   5.021   8.513   9.836
  143SBC   C01Y  684   4.895   8.664   9.980
  143SBC   C00U  685   5.239   8.890  10.044
  143SBC   C00S  686   5.354   8.968  10.070
  143SBC   C00T  687   5.480   8.933  10.012
  143SBC   C00R  688   5.354   9.068  10.161
  143SBC   C00Q  689   5.474   9.117  10.207
  143SBC   C00V  690   5.597   9.084  10.156
  143SBC   C024  691   5.718   9.115  10.215
  143SBC   C00X  692   5.714   9.205  10.320
  143SBC   C00P  693   5.472   9.190  10.328
  143SBC   C00O  694   5.354   9.219  10.397
  143SBC   C00K  695   5.005   9.053  10.263
  143SBC   N000  696   4.910   9.101  10.582
  143SBC   C00L  697   4.901   8.970  10.257
  143SBC   H004  698   4.273   9.001  10.657
  143SBC   C02Q  699   4.458   8.876  10.396
  143SBC   C00E  700   4.680   8.823  10.239
  143SBC   C030  701   4.451   8.564  10.104
  143SBC   O003  702   4.453   8.461  10.013
  143SBC   C02S  703   4.783   8.695  10.053
  143SBC   C038  704   4.558   8.441   9.929
  143SBC   C03L  705   4.556   8.341   9.836
  143SBC   H008  706   4.463   8.290   9.817
  143SBC   C02V  707   4.902   8.552   9.896
  143SBC   C03K  708   4.665   8.308   9.756
  143SBC   C0BK  709   4.662   8.210   9.657
  143SBC   H00T  710   4.571   8.158   9.634
  143SBC   C03H  711   5.024   8.402   9.745
  143SBC   C0BL  712   4.771   8.183   9.573
  143SBC   C0GU  713   4.757   8.089   9.467
  143SBC   H01O  714   4.660   8.046   9.445
  143SBC   C0GT  715   4.855   8.059   9.368
  143SBC   H01P  716   4.828   8.002   9.280
  143SBC   C0GS  717   4.976   8.118   9.390
  143SBC   C0GV  718   5.095   8.103   9.313
  143SBC   C0GW  719   5.113   8.047   9.191
  143SBC   H01Q  720   5.035   8.004   9.130
  143SBC   C0GX  721   5.232   8.047   9.131
  143SBC   H01R  722   5.242   7.993   9.038
  143SBC   O00L  723   5.344   8.100   9.197
  143SBC   C0GQ  724   5.203   8.168   9.381
  143SBC   C03A  725   5.163   8.365   9.706
  143SBC   C05L  726   5.336   8.164   9.321
  143SBC   C04W  727   5.943   8.276   9.291
  143SBC   C05I  728   6.064   8.253   9.226
  143SBC   C05O  729   6.071   8.179   9.108
  143SBC   C052  730   6.188   8.297   9.276
  143SBC   C04V  731   5.950   8.358   9.403
  143SBC   C04U  732   6.070   8.415   9.446
  143SBC   N009  733   5.948   8.144   9.045
  143SBC   C0GP  734   6.190   8.145   9.047
  143SBC   C05W  735   6.312   8.174   9.105
  143SBC   C07D  736   6.674   8.138   9.036
  143SBC   C06J  737   6.677   8.303   9.265
  143SBC   C05P  738   6.310   8.256   9.218
  143SBC   C05R  739   6.552   8.427   9.434
  143SBC   C04Z  740   6.190   8.382   9.386
  143SBC   C04C  741   6.432   8.562   9.591
  143SBC   C04G  742   6.307   8.687   9.756
  143SBC   C04J  743   6.075   8.782   9.862
  143SBC   C04T  744   6.072   8.508   9.546
  143SBC   N003  745   5.829   8.394   9.470
  143SBC   C04P  746   5.590   8.360   9.511
  143SBC   C03D  747   5.382   8.409   9.685
  143SBC   C021  748   5.370   8.630   9.835
  143SBC   C03F  749   5.717   8.634   9.723
  143SBC   C022  750   5.481   8.821   9.930
  143SBC   C02A  751   5.839   8.793   9.855
  143SBC   C023  752   5.597   8.993  10.051
  143SBC   C025  753   5.839   9.069  10.164
  143SBC   C02D  754   5.953   9.093  10.232
  143SBC   C02E  755   5.950   9.178  10.346
  143SBC   C02N  756   6.068   9.202  10.420
  143SBC   C04N  757   5.962   8.834   9.913
  143SBC   C02P  758   6.074   9.043  10.188
  143SBC   C04I  759   6.193   8.826   9.918
  143SBC   C044  760   6.430   8.883  10.047
  143SBC   C043  761   6.193   9.077  10.254
  143SBC   C05N  762   6.190   9.142  10.378
  143SBC   C09U  763   6.554   9.189  10.586
  143SBC   C09V  764   6.674   9.180  10.662
  143SBC   C09X  765   6.678   9.210  10.793
  143SBC   C09Y  766   6.780   9.194  10.886
  143SBC   C0A1  767   6.892   9.133  10.841
  143SBC   C0A2  768   6.901   9.093  10.709
  143SBC   C0A4  769   7.012   9.028  10.666
  143SBC   C071  770   7.016   8.980  10.536
  143SBC   C0A5  771   7.130   8.907  10.496
  143SBC   C0A9  772   7.242   8.897  10.581
  143SBC   C0A8  773   7.233   8.938  10.715
  143SBC   C0AP  774   7.335   8.921  10.802
  143SBC   C0BY  775   7.318   8.961  10.931
  143SBC   C0BX  776   7.200   9.009  10.984
  143SBC   C0C2  777   7.176   9.016  11.117
  143SBC   C0C3  778   7.065   9.086  11.166
  143SBC   C0CT  779   6.972   9.130  11.069
  143SBC   C0C1  780   7.263   8.952  11.206
  143SBC   C0C0  781   7.397   8.907  11.159
  143SBC   C0A7  782   7.103   9.041  10.893
  143SBC   C0BZ  783   7.419   8.926  11.019
  143SBC   C0BO  784   7.530   8.849  10.982
  143SBC   C0BN  785   7.542   8.805  10.856
  143SBC   C0BM  786   7.645   8.715  10.826
  143SBC   C0B9  787   7.653   8.671  10.692
  143SBC   C0B8  788   7.555   8.705  10.599
  143SBC   C0AD  789   7.451   8.792  10.632
  143SBC   C0AF  790   7.563   8.641  10.476
  143SBC   C0AG  791   7.659   8.551  10.437
  143SBC   C0B7  792   7.758   8.523  10.535
  143SBC   C0AE  793   7.456   8.673  10.392
  143SBC   C0AB  794   7.349   8.758  10.423
  143SBC   C0AA  795   7.239   8.769  10.336
  143SBC   C0AJ  796   7.452   8.600  10.279
  143SBC   C0AK  797   7.350   8.620  10.185
  143SBC   C06W  798   7.375   8.541  10.084
  143SBC   C0AI  799   7.547   8.510  10.227
  143SBC   C0BP  800   7.592   8.796  11.096
  143SBC   C0BQ  801   7.699   8.702  11.066
  143SBC   C0BW  802   7.443   8.842  10.762
  143SBC   C0AC  803   7.345   8.816  10.546
  143SBC   C0A6  804   7.116   9.004  10.758
  143SBC   C0A3  805   6.990   9.104  10.933
  143SBC   C09Z  806   6.766   9.225  11.020
  143SBC   C09W  807   6.791   9.109  10.623
  143SBC   C072  808   6.792   9.054  10.496
  143SBC   C09H  809   6.569   9.285  10.837
  143SBC   C09G  810   6.576   9.345  10.960
  143SBC   C09P  811   6.461   9.419  10.973
  143SBC   C02O  812   6.159   9.384  10.738
  143SBC   C02M  813   6.065   9.274  10.544
  143SBC   C02F  814   5.831   9.232  10.385
  143SBC   C00W  815   5.591   9.239  10.371
  143SBC   C01R  816   5.353   9.280  10.521
  143SBC   C01N  817   5.681   9.392  10.660
  143SBC   C01L  818   5.715   9.444  10.888
  143SBC   C01H  819   5.489   9.455  11.161
  143SBC   C01K  820   5.360   9.350  10.829
  143SBC   C01E  821   5.131   9.305  10.969
  143SBC   C01G  822   5.366   9.439  11.237
  143SBC   C01D  823   5.015   9.294  11.037
  143SBC   C01A  824   4.760   9.298  11.169
  143SBC   H001  825   4.661   9.310  11.211
  143SBC   C01F  826   5.109   9.422  11.365
  143SBC   C03P  827   5.083   9.447  11.648
  143SBC   C03T  828   5.314   9.456  11.663
  143SBC   C08I  829   5.558   9.463  11.799
  143SBC   C08J  830   5.681   9.474  11.856
  143SBC   C08L  831   5.923   9.480  11.849
  143SBC   C093  832   6.172   9.460  11.822
  143SBC   C08Z  833   6.142   9.532  11.553
  143SBC   C09T  834   6.594   9.377  11.638
  143SBC   C09S  835   6.386   9.534  11.383
  143SBC   C09Q  836   6.431   9.473  11.102
  143SBC   C09F  837   6.664   9.307  11.061
  143SBC   C09E  838   6.684   9.348  11.413
  143SBC   C0A0  839   6.860   9.188  11.120
  143SBC   C0CU  840   7.034   9.087  11.302
  143SBC   C0CR  841   7.099   8.995  11.378
  143SBC   C0CZ  842   7.063   8.985  11.512
  143SBC   C0DA  843   6.700   9.304  11.551
  143SBC   C0D9  844   6.774   9.074  11.814
  143SBC   H00V  845   6.667   9.054  11.815
  143SBC   C0CY  846   6.991   9.091  11.565
  143SBC   C0DF  847   6.875   8.989  11.871
  143SBC   C0DE  848   6.901   8.878  11.968
  143SBC   C0GI  849   6.820   8.813  12.066
  143SBC   H01K  850   6.722   8.850  12.090
  143SBC   C0GJ  851   6.873   8.702  12.125
  143SBC   H01J  852   6.811   8.649  12.196
  143SBC   O00I  853   7.001   8.651  12.099
  143SBC   C0GH  854   7.079   8.698  11.992
  143SBC   C0GG  855   7.197   8.627  11.956
  143SBC   O00G  856   7.254   8.537  12.044
  143SBC   C0G8  857   7.370   8.467  12.007
  143SBC   C0G9  858   7.426   8.383  12.100
  143SBC   H01G  859   7.366   8.374  12.190
  143SBC   C0GA  860   7.535   8.301  12.075
  143SBC   H01H  861   7.573   8.231  12.148
  143SBC   C0GB  862   7.620   8.327  11.965
  143SBC   C0EP  863   7.564   8.410  11.859
  143SBC   C0E8  864   7.651   8.427  11.742
  143SBC   C0CK  865   7.649   8.503  11.618
  143SBC   C0CL  866   7.528   8.528  11.568
  143SBC   C0E9  867   7.410   8.554  11.648
  143SBC   C0GE  868   7.372   8.558  11.787
  143SBC   C0E7  869   7.766   8.353  11.724
  143SBC   C0CJ  870   7.831   8.368  11.598
  143SBC   C0E6  871   7.931   8.276  11.568
  143SBC   H00Y  872   7.971   8.275  11.467
  143SBC   C0EO  873   7.984   8.201  11.674
  143SBC   H011  874   8.058   8.131  11.639
  143SBC   C0G6  875   7.928   8.196  11.805
  143SBC   C0G5  876   7.980   8.123  11.921
  143SBC   H01F  877   8.074   8.072  11.911
  143SBC   C0GD  878   7.911   8.124  12.034
  143SBC   H01I  879   7.947   8.071  12.121
  143SBC   O00H  880   7.790   8.190  12.052
  143SBC   C0EQ  881   7.811   8.266  11.828
  143SBC   C0GC  882   7.740   8.260  11.945
  143SBC   C0G7  883   7.442   8.482  11.882
  143SBC   C0DD  884   7.027   8.823  11.930
  143SBC   C0GF  885   7.254   8.640  11.826
  143SBC   C0CO  886   7.328   8.598  11.552
  143SBC   C0D0  887   7.123   8.873  11.578
  143SBC   C0C4  888   7.208   8.917  11.328
  143SBC   C0CN  889   7.368   8.589  11.421
  143SBC   C0CP  890   7.512   8.834  11.211
  143SBC   C0CM  891   7.498   8.547  11.426
  143SBC   C0CI  892   7.769   8.479  11.533
  143SBC   C0CD  893   8.094   8.463  11.185
  143SBC   C0BR  894   7.768   8.631  11.170
  143SBC   C0CS  895   7.723   8.673  10.929
  143SBC   C0B6  896   7.751   8.582  10.664
  143SBC   C0CG  897   8.032   8.483  10.958
  143SBC   C0CF  898   8.125   8.445  11.054
  143SBC   C0E5  899   8.311   8.372  11.241
  143SBC   C0DT  900   8.553   8.277  11.165
  143SBC   C0DL  901   8.381   8.292  10.842
  143SBC   C0DM  902   8.402   8.246  10.715
  143SBC   C0DY  903   8.623   8.183  10.766
  143SBC   C0DU  904   8.676   8.250  11.117
  143SBC   C0F0  905   8.892   8.154  11.176
  143SBC   C0F4  906   9.094   7.978  11.111
  143SBC   C0FG  907   8.975   8.097  10.779
  143SBC   O00B  908   9.190   7.855  10.925
  143SBC   C0FN  909   9.012   8.040  10.659
  143SBC   C0DZ  910   8.748   8.132  10.722
  143SBC   O00C  911   8.655   8.010  10.390
  143SBC   C0FR  912   8.549   7.991  10.309
  143SBC   O00D  913   8.573   7.929  10.209
  143SBC   C0E0  914   8.522   8.188  10.675
  143SBC   C0E3  915   8.426   8.065  10.338
  143SBC   C0AW  916   8.317   8.062  10.254
  143SBC   C0AV  917   8.314   8.004  10.123
  143SBC   H00Q  918   8.391   7.937  10.086
  143SBC   C0AU  919   8.204   8.021  10.033
  143SBC   H00R  920   8.205   7.953   9.949
  143SBC   C0AT  921   8.099   8.112  10.075
  143SBC   C0AS  922   7.978   8.168  10.019
  143SBC   C0AR  923   7.929   8.145   9.891
  143SBC   C0BE  924   8.105   8.166  10.205
  143SBC   C0DN  925   8.294   8.257  10.628
  143SBC   C0AX  926   8.210   8.132  10.299
  143SBC   C0BB  927   8.077   8.352  10.563
  143SBC   C0BD  928   7.996   8.248  10.230
  143SBC   C0B2  929   7.865   8.446  10.497
  143SBC   C0AH  930   7.662   8.485  10.310
  143SBC   C0BF  931   7.903   8.252  10.120
  143SBC   C0AL  932   7.506   8.485  10.093
  143SBC   C07U  933   7.707   8.277   9.884
  143SBC   C0AQ  934   7.808   8.186   9.836
  143SBC   C0BG  935   8.004   8.074   9.784
  143SBC   C0FY  936   7.956   8.125   9.439
  143SBC   C0BJ  937   8.129   8.115   9.725
  143SBC   H00S  938   8.205   8.177   9.771
  143SBC   C0FZ  939   8.073   8.176   9.387
  143SBC   C07S  940   7.831   8.184   9.398
  143SBC   C0G1  941   7.972   8.366   9.102
  143SBC   C07K  942   7.621   8.457   9.043
  143SBC   C07H  943   7.596   8.329   9.304
  143SBC   C06B  944   7.271   8.273   9.200
  143SBC   C06N  945   7.163   8.362   9.383
  143SBC   C066  946   7.518   8.314   9.549
  143SBC   C062  947   7.370   8.412   9.800
  143SBC   C05Y  948   7.047   8.460   9.584
  143SBC   C061  949   7.262   8.442   9.886
  143SBC   C05H  950   6.968   8.635   9.873
  143SBC   C06V  951   7.268   8.530   9.994
  143SBC   C06Y  952   7.237   8.701  10.218
  143SBC   C05C  953   6.898   8.786  10.092
  143SBC   C06Z  954   7.131   8.848  10.367
  143SBC   C070  955   6.904   8.987  10.448
  143SBC   C05B  956   6.784   8.855  10.135
  143SBC   C057  957   6.546   8.977  10.231
  143SBC   C059  958   6.669   9.057  10.423
  144SBC   C058  959  12.177   1.473   5.299
  144SBC   C05A  960  12.271   1.433   5.204
  144SBC   C06Q  961  12.231   1.364   5.089
  144SBC   C06R  962  12.326   1.328   4.990
  144SBC   C06S  963  12.460   1.371   5.004
  144SBC   C06T  964  12.549   1.333   4.899
  144SBC   C06U  965  12.689   1.375   4.866
  144SBC   C06X  966  12.777   1.472   4.927
  144SBC   C060  967  12.904   1.458   4.862
  144SBC   C05Z  968  13.007   1.553   4.837
  144SBC   C068  969  13.073   1.498   4.713
  144SBC   C067  970  13.203   1.537   4.659
  144SBC   C069  971  13.271   1.660   4.702
  144SBC   C06A  972  13.399   1.710   4.656
  144SBC   C073  973  13.521   1.638   4.646
  144SBC   C07P  974  13.635   1.677   4.723
  144SBC   C07O  975  13.649   1.793   4.801
  144SBC   H00D  976  13.572   1.868   4.817
  144SBC   C07N  977  13.767   1.837   4.857
  144SBC   H00E  978  13.782   1.930   4.911
  144SBC   C07M  979  13.884   1.763   4.848
  144SBC   H00F  980  13.972   1.804   4.896
  144SBC   C07L  981  13.878   1.634   4.784
  144SBC   C07Q  982  13.984   1.538   4.774
  144SBC   H00G  983  14.079   1.557   4.821
  144SBC   O00F  984  13.958   1.406   4.735
  144SBC   C07J  985  13.854   1.380   4.657
  144SBC   C07I  986  13.744   1.469   4.655
  144SBC   N004  987  13.634   1.438   4.568
  144SBC   C07R  988  13.652   1.327   4.478
  144SBC   C07T  989  13.760   1.236   4.503
  144SBC   C0FX  990  13.763   1.110   4.444
  144SBC   C0FW  991  13.852   1.005   4.469
  144SBC   C0G0  992  13.954   1.035   4.567
  144SBC   C0G2  993  14.052   0.942   4.597
  144SBC   H01E  994  14.132   0.954   4.669
  144SBC   C0G3  995  14.031   0.811   4.558
  144SBC   H01C  996  14.092   0.734   4.603
  144SBC   C0G4  997  13.920   0.777   4.477
  144SBC   H01D  998  13.918   0.672   4.452
  144SBC   O00E  999  13.961   1.168   4.614
  144SBC   C0FV 1000  13.831   0.872   4.423
  144SBC   C0FU 1001  13.721   0.855   4.328
  144SBC   H01B 1002  13.706   0.752   4.301
  144SBC   C0FT 1003  13.648   0.969   4.283
  144SBC   C0FS 1004  13.525   0.995   4.203
  144SBC   C0BI 1005  13.508   1.143   4.193
  144SBC   C0BH 1006  13.370   1.170   4.169
  144SBC   C07F 1007  13.283   1.225   4.266
  144SBC   C07E 1008  13.299   1.327   4.358
  144SBC   C07G 1009  13.428   1.370   4.402
  144SBC   C074 1010  13.401   1.465   4.502
  144SBC   C065 1011  13.207   1.372   4.454
  144SBC   C064 1012  13.085   1.306   4.445
  144SBC   C063 1013  12.980   1.314   4.530
  144SBC   C075 1014  12.873   1.229   4.472
  144SBC   C0AM 1015  12.914   1.149   4.349
  144SBC   C0AN 1016  12.842   1.059   4.262
  144SBC   C0AO 1017  12.695   1.019   4.264
  144SBC   C0B1 1018  12.641   0.926   4.165
  144SBC   C0B0 1019  12.722   0.869   4.075
  144SBC   C0AZ 1020  12.686   0.768   3.985
  144SBC   C0AY 1021  12.778   0.702   3.901
  144SBC   N007 1022  12.746   0.588   3.832
  144SBC   C0E2 1023  12.845   0.511   3.759
  144SBC   C0E1 1024  12.802   0.399   3.697
  144SBC   C0E4 1025  12.896   0.327   3.617
  144SBC   C0FF 1026  12.863   0.202   3.556
  144SBC   C0FJ 1027  12.925   0.116   3.459
  144SBC   C0FK 1028  12.993   0.164   3.344
  144SBC   H016 1029  13.030   0.263   3.321
  144SBC   C0FL 1030  12.986   0.052   3.246
  144SBC   H017 1031  13.020   0.059   3.144
  144SBC   C0FM 1032  12.910  -0.060   3.311
  144SBC   C0FH 1033  12.815  -0.174   3.288
  144SBC   C0FI 1034  12.737  -0.172   3.412
  144SBC   C0F3 1035  12.602  -0.203   3.410
  144SBC   C0F2 1036  12.530  -0.145   3.509
  144SBC   C0DW 1037  12.567  -0.031   3.578
  144SBC   C0FE 1038  12.693   0.018   3.563
  144SBC   C0DV 1039  12.470   0.054   3.632
  144SBC   C0DX 1040  12.511   0.180   3.678
  144SBC   C0DK 1041  12.410   0.264   3.724
  144SBC   C0DJ 1042  12.272   0.220   3.730
  144SBC   C0DI 1043  12.172   0.303   3.774
  144SBC   C0DH 1044  12.208   0.422   3.839
  144SBC   C0DG 1045  12.345   0.463   3.841
  144SBC   C0BV 1046  12.379   0.574   3.911
  144SBC   C0BC 1047  12.515   0.615   3.915
  144SBC   C0BA 1048  12.282   0.646   3.982
  144SBC   C0B4 1049  12.323   0.749   4.062
  144SBC   C0B3 1050  12.458   0.787   4.074
  144SBC   C0B5 1051  12.237   0.811   4.146
  144SBC   C0BU 1052  12.100   0.774   4.139
  144SBC   C0BT 1053  12.054   0.686   4.042
  144SBC   C0BS 1054  11.917   0.655   4.030
  144SBC   C0CC 1055  11.877   0.547   3.952
  144SBC   C0CB 1056  11.745   0.519   3.938
  144SBC   C0CH 1057  11.719   0.388   3.894
  144SBC   C0DO 1058  11.814   0.297   3.846
  144SBC   C0DP 1059  11.779   0.176   3.788
  144SBC   C0EA 1060  11.644   0.125   3.787
  144SBC   H012 1061  11.565   0.179   3.838
  144SBC   O009 1062  11.605   0.006   3.730
  144SBC   C0EH 1063  11.702  -0.058   3.666
  144SBC   C0EG 1064  11.655  -0.169   3.590
  144SBC   C0EJ 1065  11.526  -0.235   3.569
  144SBC   H010 1066  11.431  -0.206   3.613
  144SBC   C0EK 1067  11.546  -0.348   3.481
  144SBC   H00Z 1068  11.469  -0.413   3.441
  144SBC   C0EL 1069  11.686  -0.342   3.447
  144SBC   C0EM 1070  11.760  -0.410   3.346
  144SBC   C0EW 1071  11.718  -0.523   3.264
  144SBC   H013 1072  11.618  -0.562   3.268
  144SBC   C0EX 1073  11.801  -0.577   3.157
  144SBC   H014 1074  11.756  -0.653   3.094
  144SBC   C0F1 1075  11.935  -0.527   3.139
  144SBC   C0EU 1076  11.976  -0.422   3.223
  144SBC   C0ET 1077  12.106  -0.369   3.242
  144SBC   C0ES 1078  12.098  -0.274   3.348
  144SBC   C0EE 1079  11.964  -0.269   3.396
  144SBC   C0ED 1080  11.887  -0.199   3.496
  144SBC   C0EC 1081  11.929  -0.088   3.570
  144SBC   C0EB 1082  12.062  -0.050   3.580
  144SBC   C0EN 1083  12.174  -0.133   3.531
  144SBC   C0ER 1084  12.303  -0.106   3.580
  144SBC   C0DS 1085  12.100   0.057   3.663
  144SBC   C0DR 1086  12.003   0.140   3.722
  144SBC   C0EY 1087  12.196  -0.237   3.429
  144SBC   C0EZ 1088  12.333  -0.252   3.405
  144SBC   C0F5 1089  12.410  -0.310   3.297
  144SBC   C0F6 1090  12.356  -0.389   3.188
  144SBC   N008 1091  12.453  -0.426   3.090
  144SBC   C0F7 1092  12.586  -0.374   3.086
  144SBC   C0FQ 1093  12.664  -0.419   2.975
  144SBC   H018 1094  12.766  -0.385   2.974
  144SBC   C0FP 1095  12.623  -0.513   2.881
  144SBC   H019 1096  12.691  -0.547   2.804
  144SBC   C0FO 1097  12.494  -0.572   2.895
  144SBC   H01A 1098  12.468  -0.641   2.816
  144SBC   C0F8 1099  12.630  -0.295   3.191
  144SBC   C0F9 1100  12.406  -0.518   2.995
  144SBC   C0FA 1101  12.275  -0.561   2.983
  144SBC   H015 1102  12.247  -0.638   2.912
  144SBC   C0FB 1103  12.176  -0.521   3.075
  144SBC   C0FD 1104  12.219  -0.428   3.169
  144SBC   C0FC 1105  12.042  -0.576   3.053
  144SBC   O00A 1106  12.014  -0.667   2.976
  144SBC   C0EV 1107  11.894  -0.368   3.320
  144SBC   C0EF 1108  11.748  -0.237   3.516
  144SBC   C0EI 1109  11.841  -0.020   3.652
  144SBC   C0DQ 1110  11.874   0.099   3.718
  144SBC   C0CE 1111  11.947   0.342   3.843
  144SBC   H00U 1112  11.614   0.366   3.899
  144SBC   C0CA 1113  11.646   0.615   3.970
  144SBC   C0C9 1114  11.683   0.724   4.056
  144SBC   C0C8 1115  11.583   0.821   4.100
  144SBC   C0C7 1116  11.555   0.900   4.222
  144SBC   C0C6 1117  11.439   0.972   4.234
  144SBC   C0C5 1118  11.353   1.024   4.346
  144SBC   C0CQ 1119  11.212   1.032   4.317
  144SBC   C0D1 1120  11.163   0.967   4.206
  144SBC   C0D8 1121  11.044   0.903   4.236
  144SBC   C0D7 1122  10.991   0.985   4.348
  144SBC   C0D6 1123  10.880   0.939   4.426
  144SBC   C0D5 1124  10.841   1.003   4.546
  144SBC   C0D4 1125  10.912   1.093   4.632
  144SBC   C0D3 1126  10.855   1.076   4.762
  144SBC   C0CX 1127  10.956   1.112   4.862
  144SBC   C0CW 1128  11.086   1.113   4.791
  144SBC   C0CV 1129  11.234   1.128   4.824
  144SBC   C0D2 1130  11.275   1.163   4.954
  144SBC   C09D 1131  11.191   1.178   5.070
  144SBC   C09C 1132  11.248   1.215   5.194
  144SBC   C09B 1133  11.181   1.241   5.317
  144SBC   C09A 1134  11.039   1.226   5.309
  144SBC   C099 1135  10.980   1.174   5.199
  144SBC   C098 1136  10.843   1.216   5.199
  144SBC   C08Y 1137  10.827   1.313   5.305
  144SBC   C08X 1138  10.716   1.407   5.332
  144SBC   C08W 1139  10.602   1.413   5.239
  144SBC   C08U 1140  10.587   1.341   5.108
  144SBC   C08V 1141  10.674   1.257   5.026
  144SBC   C0DC 1142  10.602   1.229   4.904
  144SBC   H00W 1143  10.645   1.181   4.817
  144SBC   C0DB 1144  10.473   1.282   4.912
  144SBC   H00X 1145  10.397   1.269   4.837
  144SBC   C08T 1146  10.468   1.358   5.033
  144SBC   C08S 1147  10.367   1.434   5.074
  144SBC   H00N 1148  10.277   1.437   5.014
  144SBC   C08R 1149  10.377   1.518   5.193
  144SBC   C08Q 1150  10.278   1.606   5.240
  144SBC   H00O 1151  10.187   1.601   5.182
  144SBC   C08P 1152  10.286   1.699   5.347
  144SBC   C08O 1153  10.182   1.790   5.382
  144SBC   H00P 1154  10.086   1.793   5.332
  144SBC   C08N 1155  10.200   1.874   5.495
  144SBC   C08M 1156  10.099   1.970   5.535
  144SBC   O008 1157   9.984   1.970   5.488
  144SBC   O007 1158  10.131   2.068   5.628
  144SBC   C08H 1159  10.259   2.077   5.687
  144SBC   C08G 1160  10.301   2.184   5.774
  144SBC   C03V 1161  10.231   2.295   5.821
  144SBC   H009 1162  10.123   2.295   5.808
  144SBC   C03U 1163  10.287   2.404   5.892
  144SBC   C03W 1164  10.214   2.515   5.943
  144SBC   H00A 1165  10.107   2.525   5.939
  144SBC   C03X 1166  10.289   2.620   5.988
  144SBC   H00B 1167  10.226   2.691   6.038
  144SBC   O005 1168  10.428   2.636   5.980
  144SBC   C03O 1169  10.491   2.524   5.953
  144SBC   C03N 1170  10.628   2.516   5.980
  144SBC   O000 1171  10.685   2.635   6.014
  144SBC   C019 1172  10.809   2.627   6.067
  144SBC   C018 1173  10.886   2.507   6.068
  144SBC   C017 1174  10.829   2.390   6.018
  144SBC   C016 1175  10.901   2.272   6.011
  144SBC   C015 1176  11.028   2.278   6.076
  144SBC   C014 1177  11.100   2.159   6.077
  144SBC   C013 1178  11.065   2.048   6.001
  144SBC   C012 1179  11.182   1.956   6.013
  144SBC   C011 1180  11.264   2.022   6.104
  144SBC   C010 1181  11.386   1.972   6.137
  144SBC   C00Z 1182  11.490   2.031   6.201
  144SBC   C00Y 1183  11.602   1.957   6.163
  144SBC   C01O 1184  11.571   1.850   6.079
  144SBC   C01P 1185  11.659   1.810   5.981
  144SBC   C02L 1186  11.604   1.737   5.877
  144SBC   C02K 1187  11.462   1.739   5.864
  144SBC   C01M 1188  11.370   1.815   5.941
  144SBC   C02J 1189  11.415   1.648   5.767
  144SBC   C02I 1190  11.286   1.609   5.742
  144SBC   C02H 1191  11.168   1.668   5.776
  144SBC   C01Q 1192  11.142   1.777   5.859
  144SBC   C02G 1193  11.003   1.801   5.853
  144SBC   C089 1194  10.948   1.691   5.791
  144SBC   C088 1195  10.825   1.728   5.732
  144SBC   C087 1196  10.803   1.865   5.782
  144SBC   C086 1197  10.684   1.938   5.760
  144SBC   C03S 1198  10.651   2.063   5.816
  144SBC   N006 1199  10.516   2.090   5.784
  144SBC   C08F 1200  10.473   1.984   5.704
  144SBC   C01J 1201  10.718   2.165   5.891
  144SBC   C03R 1202  10.638   2.281   5.921
  144SBC   C03Q 1203  10.501   2.291   5.888
  144SBC   C08E 1204  10.572   1.892   5.686
  144SBC   C08D 1205  10.547   1.778   5.595
  144SBC   C08K 1206  10.427   1.780   5.521
  144SBC   C08C 1207  10.632   1.675   5.571
  144SBC   C091 1208  10.610   1.590   5.459
  144SBC   C092 1209  10.498   1.591   5.379
  144SBC   C08B 1210  10.754   1.641   5.629
  144SBC   C090 1211  10.802   1.524   5.560
  144SBC   C094 1212  10.936   1.476   5.561
  144SBC   C095 1213  10.999   1.376   5.480
  144SBC   C09R 1214  11.137   1.365   5.510
  144SBC   C097 1215  11.166   1.466   5.600
  144SBC   C096 1216  11.046   1.523   5.639
  144SBC   C01I 1217  10.914   1.916   5.866
  144SBC   C08A 1218  11.048   1.614   5.739
  144SBC   C09L 1219  11.290   1.507   5.654
  144SBC   C09K 1220  11.425   1.463   5.630
  144SBC   C09J 1221  11.462   1.402   5.511
  144SBC   C09I 1222  11.586   1.415   5.447
  144SBC   C09O 1223  11.719   1.467   5.464
  144SBC   C09N 1224  11.749   1.553   5.574
  144SBC   C09M 1225  11.656   1.601   5.679
  144SBC   C06O 1226  11.884   1.601   5.581
  144SBC   C05M 1227  11.979   1.554   5.490
  144SBC   C06P 1228  11.946   1.473   5.379
  144SBC   C042 1229  12.116   1.588   5.505
  144SBC   C041 1230  12.153   1.673   5.614
  144SBC   C040 1231  12.286   1.719   5.622
  144SBC   C03Z 1232  12.325   1.811   5.719
  144SBC   C03Y 1233  12.231   1.847   5.813
  144SBC   C027 1234  12.268   1.938   5.908
  144SBC   C026 1235  12.172   1.984   5.993
  144SBC   C028 1236  12.201   2.089   6.081
  144SBC   C029 1237  12.321   2.158   6.072
  144SBC   C02B 1238  12.345   2.277   6.139
  144SBC   C02C 1239  12.464   2.347   6.119
  144SBC   C02X 1240  12.485   2.460   6.195
  144SBC   C03E 1241  12.598   2.530   6.177
  144SBC   C03G 1242  12.689   2.501   6.085
  144SBC   C04Q 1243  12.670   2.388   6.008
  144SBC   C04R 1244  12.755   2.358   5.905
  144SBC   C04S 1245  12.730   2.243   5.829
  144SBC   C04L 1246  12.620   2.164   5.854
  144SBC   C04M 1247  12.527   2.203   5.951
  144SBC   C04K 1248  12.597   2.050   5.779
  144SBC   C04F 1249  12.688   2.021   5.674
  144SBC   C04E 1250  12.795   2.100   5.645
  144SBC   C04D 1251  12.880   2.076   5.536
  144SBC   C050 1252  12.985   2.159   5.508
  144SBC   C051 1253  13.056   2.143   5.386
  144SBC   C05Q 1254  13.152   2.236   5.353
  144SBC   C05V 1255  13.219   2.218   5.233
  144SBC   N005 1256  13.309   2.319   5.191
  144SBC   C07V 1257  13.327   2.432   5.277
  144SBC   C082 1258  13.408   2.540   5.238
  144SBC   C081 1259  13.470   2.539   5.110
  144SBC   C07C 1260  13.450   2.428   5.026
  144SBC   C07B 1261  13.514   2.425   4.901
  144SBC   C080 1262  13.585   2.537   4.855
  144SBC   C07Z 1263  13.643   2.533   4.727
  144SBC   H00L 1264  13.694   2.624   4.700
  144SBC   C079 1265  13.634   2.419   4.645
  144SBC   C078 1266  13.561   2.305   4.695
  144SBC   C077 1267  13.553   2.189   4.620
  144SBC   C07X 1268  13.624   2.179   4.497
  144SBC   H00I 1269  13.630   2.088   4.439
  144SBC   C07Y 1270  13.690   2.288   4.445
  144SBC   H00H 1271  13.737   2.278   4.348
  144SBC   C076 1272  13.477   2.079   4.665
  144SBC   C06C 1273  13.474   1.955   4.598
  144SBC   H00C 1274  13.535   1.913   4.519
  144SBC   C06F 1275  13.395   2.092   4.780
  144SBC   C06E 1276  13.312   1.991   4.828
  144SBC   C06G 1277  13.234   1.996   4.940
  144SBC   C06H 1278  13.254   2.109   5.018
  144SBC   C06I 1279  13.347   2.210   4.981
  144SBC   C06L 1280  13.147   1.886   4.976
  144SBC   C06M 1281  13.135   1.764   4.898
  144SBC   C06K 1282  13.079   1.900   5.099
  144SBC   C05S 1283  13.096   2.016   5.179
  144SBC   C05U 1284  12.989   1.804   5.136
  144SBC   C05X 1285  12.960   1.694   5.051
  144SBC   C05G 1286  12.833   1.624   5.095
  144SBC   C05F 1287  12.770   1.656   5.214
  144SBC   C05E 1288  12.649   1.592   5.228
  144SBC   C048 1289  12.562   1.615   5.333
  144SBC   C056 1290  12.437   1.559   5.324
  144SBC   C045 1291  12.341   1.594   5.421
  144SBC   C047 1292  12.599   1.713   5.416
  144SBC   C049 1293  12.719   1.779   5.401
  144SBC   C04B 1294  12.749   1.884   5.486
  144SBC   C046 1295  12.506   1.738   5.515
  144SBC   C04H 1296  12.544   1.838   5.608
  144SBC   C05D 1297  12.627   1.505   5.124
  144SBC   C04A 1298  12.806   1.755   5.297
  144SBC   C05T 1299  12.917   1.828   5.258
  144SBC   C055 1300  12.931   1.942   5.336
  144SBC   C06D 1301  13.309   1.870   4.766
  144SBC   C07W 1302  13.411   2.208   4.862
  144SBC   C085 1303  13.693   2.410   4.513
  144SBC   H00M 1304  13.742   2.495   4.468
  144SBC   C084 1305  13.600   2.647   4.941
  144SBC   H00J 1306  13.634   2.744   4.908
  144SBC   C07A 1307  13.496   2.313   4.821
  144SBC   C083 1308  13.547   2.647   5.067
  144SBC   H00K 1309  13.561   2.737   5.126
  144SBC   O00K 1310  13.436   2.638   5.323
  144SBC   C0GO 1311  13.388   2.638   5.448
  144SBC   C0GN 1312  13.431   2.734   5.543
  144SBC   H01L 1313  13.504   2.809   5.515
  144SBC   C0GM 1314  13.390   2.727   5.679
  144SBC   C0GL 1315  13.439   2.810   5.771
  144SBC   H01M 1316  13.502   2.893   5.742
  144SBC   O00J 1317  13.411   2.796   5.906
  144SBC   C0GK 1318  13.291   2.726   5.928
  144SBC   H01N 1319  13.255   2.741   6.028
  144SBC   C05K 1320  13.237   2.649   5.832
  144SBC   C05J 1321  13.109   2.587   5.858
  144SBC   C04Y 1322  13.004   2.624   5.947
  144SBC   C04X 1323  12.888   2.550   5.969
  144SBC   O006 1324  13.022   2.745   6.015
  144SBC   C053 1325  12.933   2.788   6.113
  144SBC   C04O 1326  12.818   2.709   6.139
  144SBC   C03C 1327  12.716   2.742   6.228
  144SBC   C03B 1328  12.676   2.855   6.304
  144SBC   C054 1329  12.754   2.966   6.327
  144SBC   C0GR 1330  12.720   3.061   6.428
  144SBC   C03M 1331  12.607   3.099   6.508
  144SBC   C03I 1332  12.480   3.029   6.507
  144SBC   C03J 1333  12.365   3.089   6.568
  144SBC   N002 1334  12.234   3.023   6.571
  144SBC   C02U 1335  12.118   3.085   6.629
  144SBC   C02T 1336  11.996   3.027   6.636
  144SBC   C02Z 1337  11.885   3.093   6.683
  144SBC   N001 1338  11.759   3.026   6.694
  144SBC   C02R 1339  11.649   3.092   6.760
  144SBC   C032 1340  11.666   3.228   6.800
  144SBC   C031 1341  11.797   3.286   6.798
  144SBC   H007 1342  11.808   3.389   6.828
  144SBC   C033 1343  11.543   3.295   6.848
  144SBC   H003 1344  11.547   3.395   6.886
  144SBC   O004 1345  11.422   3.239   6.822
  144SBC   C034 1346  11.420   3.109   6.781
  144SBC   C035 1347  11.290   3.058   6.779
  144SBC   C036 1348  11.267   2.932   6.728
  144SBC   H005 1349  11.166   2.897   6.716
  144SBC   C037 1350  11.374   2.857   6.678
  144SBC   H006 1351  11.361   2.755   6.646
  144SBC   C00D 1352  11.504   2.907   6.683
  144SBC   C00C 1353  11.615   2.835   6.635
  144SBC   C00B 1354  11.602   2.698   6.573
  144SBC   C00A 1355  11.507   2.599   6.523
  144SBC   C009 1356  11.593   2.486   6.493
  144SBC   C008 1357  11.568   2.373   6.410
  144SBC   C007 1358  11.443   2.364   6.352
  144SBC   C006 1359  11.408   2.253   6.278
  144SBC   C005 1360  11.282   2.259   6.216
  144SBC   C004 1361  11.209   2.378   6.211
  144SBC   C003 1362  11.255   2.496   6.276
  144SBC   C002 1363  11.192   2.620   6.249
  144SBC   C01C 1364  11.068   2.622   6.178
  144SBC   C01B 1365  10.997   2.744   6.166
  144SBC   H000 1366  11.014   2.841   6.210
  144SBC   C001 1367  11.253   2.733   6.294
  144SBC   C000 1368  11.361   2.724   6.376
  144SBC   C01U 1369  11.408   2.863   6.381
  144SBC   H002 1370  11.499   2.901   6.425
  144SBC   C01T 1371  11.310   2.945   6.308
  144SBC   O002 1372  11.308   3.064   6.299
  144SBC   O001 1373  11.228   2.866   6.249
  144SBC   C01S 1374  11.370   2.482   6.346
  144SBC   C00N 1375  11.673   2.286   6.375
  144SBC   C00M 1376  11.805   2.324   6.393
  144SBC   C00J 1377  11.830   2.439   6.462
  144SBC   C00I 1378  11.954   2.504   6.464
  144SBC   C00H 1379  11.970   2.633   6.517
  144SBC   C00G 1380  11.864   2.702   6.564
  144SBC   C00F 1381  11.864   2.832   6.599
  144SBC   C01X 1382  12.089   2.695   6.505
  144SBC   C01W 1383  12.190   2.627   6.442
  144SBC   C01V 1384  12.174   2.501   6.382
  144SBC   C020 1385  12.272   2.443   6.304
  144SBC   C01Z 1386  12.310   2.694   6.426
  144SBC   C02Y 1387  12.399   2.628   6.356
  144SBC   C039 1388  12.513   2.699   6.325
  144SBC   C02W 1389  12.332   2.831   6.466
  144SBC   C01Y 1390  12.098   2.834   6.536
  144SBC   C00U 1391  12.055   2.435   6.395
  144SBC   C00S 1392  12.034   2.315   6.329
  144SBC   C00T 1393  12.132   2.254   6.250
  144SBC   C00R 1394  11.910   2.258   6.329
  144SBC   C00Q 1395  11.880   2.146   6.253
  144SBC   C00V 1396  11.982   2.084   6.175
  144SBC   C024 1397  11.956   1.975   6.100
  144SBC   C00X 1398  11.829   1.932   6.088
  144SBC   C00P 1399  11.751   2.104   6.248
  144SBC   C00O 1400  11.644   2.178   6.300
  144SBC   C00K 1401  11.724   2.511   6.516
  144SBC   N000 1402  11.416   2.603   6.415
  144SBC   C00L 1403  11.737   2.643   6.559
  144SBC   H004 1404  11.208   3.111   6.824
  144SBC   C02Q 1405  11.524   3.033   6.743
  144SBC   C00E 1406  11.743   2.898   6.639
  144SBC   C030 1407  11.904   3.220   6.739
  144SBC   O003 1408  12.027   3.286   6.724
  144SBC   C02S 1409  11.985   2.899   6.586
  144SBC   C038 1410  12.136   3.214   6.682
  144SBC   C03L 1411  12.257   3.273   6.677
  144SBC   H008 1412  12.267   3.377   6.706
  144SBC   C02V 1413  12.222   2.891   6.520
  144SBC   C03K 1414  12.374   3.217   6.623
  144SBC   C0BK 1415  12.505   3.273   6.624
  144SBC   H00T 1416  12.510   3.372   6.668
  144SBC   C03H 1417  12.454   2.900   6.446
  144SBC   C0BL 1418  12.624   3.217   6.577
  144SBC   C0GU 1419  12.745   3.280   6.596
  144SBC   H01O 1420  12.742   3.358   6.671
  144SBC   C0GT 1421  12.862   3.240   6.540
  144SBC   H01P 1422  12.958   3.288   6.551
  144SBC   C0GS 1423  12.843   3.135   6.446
  144SBC   C0GV 1424  12.941   3.089   6.353
  144SBC   C0GW 1425  13.067   3.143   6.321
  144SBC   H01Q 1426  13.091   3.235   6.371
  144SBC   C0GX 1427  13.132   3.083   6.218
  144SBC   H01R 1428  13.224   3.132   6.190
  144SBC   O00L 1429  13.092   2.966   6.151
  144SBC   C0GQ 1430  12.885   2.978   6.281
  144SBC   C03A 1431  12.546   2.828   6.367
  144SBC   C05L 1432  12.965   2.910   6.181
  144SBC   C04W 1433  13.075   2.480   5.775
  144SBC   C05I 1434  13.143   2.456   5.654
  144SBC   C05O 1435  13.248   2.539   5.615
  144SBC   C052 1436  13.115   2.347   5.567
  144SBC   C04V 1437  12.961   2.398   5.787
  144SBC   C04U 1438  12.929   2.288   5.703
  144SBC   N009 1439  13.290   2.636   5.704
  144SBC   C0GP 1440  13.302   2.540   5.488
  144SBC   C05W 1441  13.270   2.436   5.402
  144SBC   C07D 1442  13.366   2.323   5.062
  144SBC   C06J 1443  13.192   2.114   5.141
  144SBC   C05P 1444  13.180   2.339   5.443
  144SBC   C05R 1445  13.029   2.033   5.301
  144SBC   C04Z 1446  13.015   2.260   5.596
  144SBC   C04C 1447  12.856   1.967   5.452
  144SBC   C04G 1448  12.662   1.913   5.590
  144SBC   C04J 1449  12.483   1.972   5.797
  144SBC   C04T 1450  12.815   2.217   5.723
  144SBC   N003 1451  12.868   2.434   5.889
  144SBC   C04P 1452  12.797   2.587   6.063
  144SBC   C03D 1453  12.617   2.643   6.253
  144SBC   C021 1454  12.386   2.513   6.284
  144SBC   C03F 1455  12.553   2.313   6.024
  144SBC   C022 1456  12.252   2.325   6.235
  144SBC   C02A 1457  12.417   2.118   5.978
  144SBC   C023 1458  12.107   2.136   6.179
  144SBC   C025 1459  12.046   1.929   6.002
  144SBC   C02D 1460  12.010   1.836   5.903
  144SBC   C02E 1461  11.882   1.791   5.898
  144SBC   C02N 1462  11.832   1.716   5.788
  144SBC   C04N 1463  12.392   2.005   5.898
  144SBC   C02P 1464  12.100   1.802   5.806
  144SBC   C04I 1465  12.450   1.875   5.709
  144SBC   C044 1466  12.378   1.686   5.518
  144SBC   C043 1467  12.058   1.713   5.704
  144SBC   C05N 1468  11.923   1.676   5.691
  144SBC   C09U 1469  11.814   1.435   5.366
  144SBC   C09V 1470  11.775   1.361   5.253
  144SBC   C09X 1471  11.646   1.329   5.222
  144SBC   C09Y 1472  11.597   1.278   5.104
  144SBC   C0A1 1473  11.691   1.242   5.010
  144SBC   C0A2 1474  11.824   1.272   5.035
  144SBC   C0A4 1475  11.919   1.243   4.938
  144SBC   C071 1476  12.055   1.270   4.962
  144SBC   C0A5 1477  12.144   1.228   4.865
  144SBC   C0A9 1478  12.099   1.168   4.751
  144SBC   C0A8 1479  11.966   1.139   4.731
  144SBC   C0AP 1480  11.926   1.079   4.615
  144SBC   C0BY 1481  11.790   1.062   4.597
  144SBC   C0BX 1482  11.696   1.110   4.681
  144SBC   C0C2 1483  11.557   1.085   4.653
  144SBC   C0C3 1484  11.462   1.119   4.746
  144SBC   C0CT 1485  11.510   1.169   4.867
  144SBC   C0C1 1486  11.521   1.032   4.528
  144SBC   C0C0 1487  11.623   0.971   4.448
  144SBC   C0A7 1488  11.742   1.158   4.801
  144SBC   C0BZ 1489  11.754   0.995   4.481
  144SBC   C0BO 1490  11.845   0.940   4.395
  144SBC   C0BN 1491  11.977   0.974   4.408
  144SBC   C0BM 1492  12.060   0.911   4.319
  144SBC   C0B9 1493  12.194   0.948   4.332
  144SBC   C0B8 1494  12.239   1.025   4.440
  144SBC   C0AD 1495  12.152   1.066   4.537
  144SBC   C0AF 1496  12.370   1.055   4.451
  144SBC   C0AG 1497  12.459   1.032   4.346
  144SBC   C0B7 1498  12.415   0.946   4.244
  144SBC   C0AE 1499  12.408   1.119   4.564
  144SBC   C0AB 1500  12.324   1.154   4.666
  144SBC   C0AA 1501  12.369   1.222   4.779
  144SBC   C0AJ 1502  12.539   1.156   4.574
  144SBC   C0AK 1503  12.585   1.215   4.686
  144SBC   C06W 1504  12.713   1.240   4.661
  144SBC   C0AI 1505  12.638   1.137   4.477
  144SBC   C0BP 1506  11.779   0.868   4.301
  144SBC   C0BQ 1507  11.870   0.810   4.202
  144SBC   C0BW 1508  12.018   1.044   4.520
  144SBC   C0AC 1509  12.189   1.133   4.653
  144SBC   C0A6 1510  11.877   1.175   4.824
  144SBC   C0A3 1511  11.648   1.191   4.892
  144SBC   C09Z 1512  11.462   1.246   5.086
  144SBC   C09W 1513  11.869   1.330   5.157
  144SBC   C072 1514  12.002   1.364   5.171
  144SBC   C09H 1515  11.557   1.345   5.325
  144SBC   C09G 1516  11.439   1.291   5.312
  144SBC   C09P 1517  11.372   1.322   5.430
  144SBC   C02O 1518  11.509   1.565   5.692
  144SBC   C02M 1519  11.694   1.686   5.781
  144SBC   C02F 1520  11.791   1.838   5.993
  144SBC   C00W 1521  11.733   1.992   6.174
  144SBC   C01R 1522  11.508   2.154   6.268
  144SBC   C01N 1523  11.437   1.874   6.051
  144SBC   C01L 1524  11.236   1.849   5.933
  144SBC   C01H 1525  10.943   2.043   5.931
  144SBC   C01K 1526  11.227   2.150   6.143
  144SBC   C01E 1527  11.087   2.388   6.142
  144SBC   C01G 1528  10.853   2.159   5.938
  144SBC   C01D 1529  11.016   2.506   6.122
  144SBC   C01A 1530  10.863   2.740   6.121
  144SBC   H001 1531  10.805   2.830   6.132
  144SBC   C01F 1532  10.701   2.394   5.971
  144SBC   C03P 1533  10.425   2.402   5.915
  144SBC   C03T 1534  10.436   2.187   5.820
  144SBC   C08I 1535  10.352   1.978   5.653
  144SBC   C08J 1536  10.327   1.877   5.559
  144SBC   C08L 1537  10.406   1.691   5.413
  144SBC   C093 1538  10.496   1.506   5.265
  144SBC   C08Z 1539  10.712   1.498   5.442
  144SBC   C09T 1540  10.813   1.221   5.065
  144SBC   C09S 1541  10.945   1.306   5.381
  144SBC   C09Q 1542  11.234   1.300   5.427
  144SBC   C09F 1543  11.382   1.239   5.192
  144SBC   C09E 1544  11.045   1.170   5.077
  144SBC   C0A0 1545  11.416   1.192   4.970
  144SBC   C0CU 1546  11.327   1.104   4.719
  144SBC   C0CR 1547  11.290   1.073   4.587
  144SBC   C0CZ 1548  11.148   1.064   4.551
  144SBC   C0DA 1549  10.933   1.168   4.991
  144SBC   C0D9 1550  10.783   0.947   4.766
  144SBC   H00V 1551  10.759   0.888   4.853
  144SBC   C0CY 1552  11.052   1.087   4.656
  144SBC   C0DF 1553  10.765   0.907   4.623
  144SBC   C0DE 1554  10.726   0.804   4.527
  144SBC   C0GI 1555  10.623   0.707   4.521
  144SBC   H01K 1556  10.554   0.685   4.601
  144SBC   C0GJ 1557  10.616   0.627   4.417
  144SBC   H01J 1558  10.540   0.550   4.426
  144SBC   O00I 1559  10.685   0.642   4.298
  144SBC   C0GH 1560  10.792   0.726   4.301
  144SBC   C0GG 1561  10.889   0.707   4.195
  144SBC   O00G 1562  10.845   0.621   4.101
  144SBC   C0G8 1563  10.921   0.590   3.993
  144SBC   C0G9 1564  10.858   0.522   3.892
  144SBC   H01G 1565  10.751   0.504   3.893
  144SBC   C0GA 1566  10.935   0.473   3.786
  144SBC   H01H 1567  10.894   0.407   3.710
  144SBC   C0GB 1568  11.073   0.498   3.771
  144SBC   C0EP 1569  11.137   0.564   3.879
  144SBC   C0E8 1570  11.283   0.563   3.884
  144SBC   C0CK 1571  11.380   0.615   3.967
  144SBC   C0CL 1572  11.354   0.745   4.011
  144SBC   C0E9 1573  11.226   0.789   4.062
  144SBC   C0GE 1574  11.092   0.732   4.071
  144SBC   C0E7 1575  11.353   0.525   3.771
  144SBC   C0CJ 1576  11.488   0.551   3.775
  144SBC   C0E6 1577  11.573   0.529   3.660
  144SBC   H00Y 1578  11.678   0.550   3.654
  144SBC   C0EO 1579  11.502   0.475   3.550
  144SBC   H011 1580  11.561   0.458   3.460
  144SBC   C0G6 1581  11.366   0.435   3.552
  144SBC   C0G5 1582  11.295   0.384   3.437
  144SBC   H01F 1583  11.351   0.376   3.346
  144SBC   C0GD 1584  11.164   0.359   3.448
  144SBC   H01I 1585  11.106   0.323   3.364
  144SBC   O00H 1586  11.093   0.378   3.561
  144SBC   C0EQ 1587  11.289   0.466   3.662
  144SBC   C0GC 1588  11.153   0.448   3.667
  144SBC   C0G7 1589  11.059   0.625   3.984
  144SBC   C0DD 1590  10.802   0.823   4.403
  144SBC   C0GF 1591  11.003   0.782   4.171
  144SBC   C0CO 1592  11.248   0.915   4.115
  144SBC   C0D0 1593  11.115   1.034   4.415
  144SBC   C0C4 1594  11.389   1.050   4.481
  144SBC   C0CN 1595  11.384   0.949   4.109
  144SBC   C0CP 1596  11.643   0.892   4.325
  144SBC   C0CM 1597  11.455   0.850   4.037
  144SBC   C0CI 1598  11.510   0.594   3.918
  144SBC   C0CD 1599  11.980   0.465   3.895
  144SBC   C0BR 1600  11.820   0.725   4.106
  144SBC   C0CS 1601  12.008   0.829   4.224
  144SBC   C0B6 1602  12.280   0.905   4.238
  144SBC   C0CG 1603  12.149   0.616   3.968
  144SBC   C0CF 1604  12.114   0.501   3.903
  144SBC   C0E5 1605  12.040   0.261   3.778
  144SBC   C0DT 1606  12.236   0.099   3.674
  144SBC   C0DL 1607  12.444   0.388   3.779
  144SBC   C0DM 1608  12.580   0.430   3.776
  144SBC   C0DY 1609  12.641   0.224   3.662
  144SBC   C0DU 1610  12.343   0.020   3.634
  144SBC   C0F0 1611  12.396  -0.173   3.501
  144SBC   C0F4 1612  12.543  -0.276   3.304
  144SBC   C0FG 1613  12.788  -0.065   3.497
  144SBC   O00B 1614  12.749  -0.224   3.175
  144SBC   C0FN 1615  12.902  -0.016   3.442
  144SBC   C0DZ 1616  12.736   0.147   3.598
  144SBC   O00C 1617  13.022   0.382   3.596
  144SBC   C0FR 1618  13.068   0.500   3.652
  144SBC   O00D 1619  13.177   0.538   3.620
  144SBC   C0E0 1620  12.676   0.350   3.716
  144SBC   C0E3 1621  12.974   0.558   3.743
  144SBC   C0AW 1622  13.009   0.673   3.819
  144SBC   C0AV 1623  13.145   0.731   3.833
  144SBC   H00Q 1624  13.229   0.686   3.782
  144SBC   C0AU 1625  13.175   0.835   3.920
  144SBC   H00R 1626  13.278   0.869   3.923
  144SBC   C0AT 1627  13.074   0.886   4.003
  144SBC   C0AS 1628  13.060   0.988   4.109
  144SBC   C0AR 1629  13.173   1.052   4.167
  144SBC   C0BE 1630  12.945   0.843   3.981
  144SBC   C0DN 1631  12.608   0.549   3.840
  144SBC   C0AX 1632  12.911   0.740   3.888
  144SBC   C0BB 1633  12.553   0.721   3.993
  144SBC   C0BD 1634  12.857   0.904   4.069
  144SBC   C0B2 1635  12.502   0.884   4.163
  144SBC   C0AH 1636  12.599   1.068   4.355
  144SBC   C0BF 1637  12.918   0.993   4.156
  144SBC   C0AL 1638  12.756   1.193   4.534
  144SBC   C07U 1639  13.050   1.201   4.347
  144SBC   C0AQ 1640  13.158   1.162   4.260
  144SBC   C0BG 1641  13.314   1.045   4.128
  144SBC   C0FY 1642  13.585   1.196   4.297
  144SBC   C0BJ 1643  13.401   0.932   4.167
  144SBC   H00S 1644  13.370   0.832   4.190
  144SBC   C0FZ 1645  13.671   1.094   4.342
  144SBC   C07S 1646  13.553   1.302   4.389
  144SBC   C0G1 1647  13.857   1.258   4.595
  144SBC   C07K 1648  13.749   1.595   4.721
  144SBC   C07H 1649  13.518   1.523   4.568
  144SBC   C06B 1650  13.398   1.849   4.658
  144SBC   C06N 1651  13.235   1.759   4.795
  144SBC   C066 1652  13.262   1.464   4.545
  144SBC   C062 1653  12.983   1.394   4.659
  144SBC   C05Y 1654  13.037   1.668   4.931
  144SBC   C061 1655  12.898   1.361   4.768
  144SBC   C05H 1656  12.748   1.522   5.048
  144SBC   C06V 1657  12.765   1.322   4.761
  144SBC   C06Y 1658  12.502   1.252   4.797
  144SBC   C05C 1659  12.494   1.449   5.114
  144SBC   C06Z 1660  12.279   1.258   4.875
  144SBC   C070 1661  12.099   1.334   5.075
  144SBC   C05B 1662  12.403   1.481   5.215
  144SBC   C057 1663  12.212   1.550   5.409
  144SBC   C059 1664  12.044   1.432   5.288
  145SBC   C058 1665   3.111   0.711   7.923
  145SBC   C05A 1666   3.134   0.578   7.879
  145SBC   C06Q 1667   3.042   0.478   7.889
  145SBC   C06R 1668   3.066   0.344   7.853
  145SBC   C06S 1669   3.187   0.301   7.799
  145SBC   C06T 1670   3.209   0.163   7.767
  145SBC   C06U 1671   3.324   0.093   7.702
  145SBC   C06X 1672   3.452   0.134   7.673
  145SBC   C060 1673   3.531   0.029   7.599
  145SBC   C05Z 1674   3.667  -0.009   7.608
  145SBC   C068 1675   3.663  -0.157   7.603
  145SBC   C067 1676   3.774  -0.255   7.574
  145SBC   C069 1677   3.898  -0.204   7.516
  145SBC   C06A 1678   4.011  -0.276   7.459
  145SBC   C073 1679   4.074  -0.397   7.494
  145SBC   C07P 1680   4.215  -0.404   7.497
  145SBC   C07O 1681   4.308  -0.295   7.514
  145SBC   H00D 1682   4.280  -0.192   7.533
  145SBC   C07N 1683   4.443  -0.298   7.494
  145SBC   H00E 1684   4.501  -0.207   7.493
  145SBC   C07M 1685   4.491  -0.425   7.454
  145SBC   H00F 1686   4.597  -0.436   7.433
  145SBC   C07L 1687   4.414  -0.543   7.457
  145SBC   C07Q 1688   4.467  -0.678   7.446
  145SBC   H00G 1689   4.572  -0.695   7.423
  145SBC   O00F 1690   4.388  -0.790   7.452
  145SBC   C07J 1691   4.259  -0.773   7.482
  145SBC   C07I 1692   4.197  -0.643   7.479
  145SBC   N004 1693   4.056  -0.638   7.494
  145SBC   C07R 1694   3.983  -0.760   7.479
  145SBC   C07T 1695   4.052  -0.881   7.505
  145SBC   C0FX 1696   3.984  -0.995   7.524
  145SBC   C0FW 1697   4.030  -1.105   7.594
  145SBC   C0G0 1698   4.171  -1.105   7.608
  145SBC   C0G2 1699   4.238  -1.215   7.664
  145SBC   H01E 1700   4.345  -1.229   7.671
  145SBC   C0G3 1701   4.159  -1.313   7.720
  145SBC   H01C 1702   4.216  -1.392   7.767
  145SBC   C0G4 1703   4.019  -1.304   7.727
  145SBC   H01D 1704   3.964  -1.379   7.781
  145SBC   O00E 1705   4.246  -1.006   7.557
  145SBC   C0FV 1706   3.945  -1.205   7.656
  145SBC   C0FU 1707   3.803  -1.194   7.626
  145SBC   H01B 1708   3.739  -1.274   7.660
  145SBC   C0FT 1709   3.759  -1.093   7.546
  145SBC   C0FS 1710   3.634  -1.032   7.522
  145SBC   C0BI 1711   3.651  -0.920   7.440
  145SBC   C0BH 1712   3.540  -0.837   7.444
  145SBC   C07F 1713   3.547  -0.712   7.508
  145SBC   C07E 1714   3.647  -0.613   7.509
  145SBC   C07G 1715   3.781  -0.632   7.481
  145SBC   C074 1716   3.845  -0.512   7.513
  145SBC   C065 1717   3.635  -0.484   7.567
  145SBC   C064 1718   3.506  -0.459   7.623
  145SBC   C063 1719   3.457  -0.332   7.666
  145SBC   C075 1720   3.315  -0.365   7.698
  145SBC   C0AM 1721   3.282  -0.506   7.691
  145SBC   C0AN 1722   3.158  -0.587   7.729
  145SBC   C0AO 1723   3.032  -0.534   7.789
  145SBC   C0B1 1724   2.929  -0.619   7.841
  145SBC   C0B0 1725   2.944  -0.758   7.841
  145SBC   C0AZ 1726   2.852  -0.856   7.883
  145SBC   C0AY 1727   2.880  -0.993   7.859
  145SBC   N007 1728   2.789  -1.089   7.897
  145SBC   C0E2 1729   2.814  -1.226   7.878
  145SBC   C0E1 1730   2.716  -1.313   7.919
  145SBC   C0E4 1731   2.740  -1.451   7.910
  145SBC   C0FF 1732   2.651  -1.552   7.951
  145SBC   C0FJ 1733   2.658  -1.698   7.957
  145SBC   C0FK 1734   2.777  -1.782   7.964
  145SBC   H016 1735   2.883  -1.762   7.951
  145SBC   C0FL 1736   2.724  -1.912   8.009
  145SBC   H017 1737   2.783  -1.997   8.038
  145SBC   C0FM 1738   2.583  -1.898   8.035
  145SBC   C0FH 1739   2.464  -1.935   8.119
  145SBC   C0FI 1740   2.374  -1.827   8.093
  145SBC   C0F3 1741   2.295  -1.779   8.201
  145SBC   C0F2 1742   2.255  -1.646   8.187
  145SBC   C0DW 1743   2.319  -1.549   8.112
  145SBC   C0FE 1744   2.419  -1.588   8.032
  145SBC   C0DV 1745   2.298  -1.415   8.141
  145SBC   C0DX 1746   2.388  -1.321   8.087
  145SBC   C0DK 1747   2.375  -1.193   8.125
  145SBC   C0DJ 1748   2.272  -1.146   8.210
  145SBC   C0DI 1749   2.258  -1.017   8.245
  145SBC   C0DH 1750   2.340  -0.923   8.184
  145SBC   C0DG 1751   2.449  -0.965   8.111
  145SBC   C0BV 1752   2.543  -0.870   8.066
  145SBC   C0BC 1753   2.646  -0.907   7.981
  145SBC   C0BA 1754   2.519  -0.734   8.089
  145SBC   C0B4 1755   2.599  -0.639   8.022
  145SBC   C0B3 1756   2.717  -0.677   7.956
  145SBC   C0B5 1757   2.564  -0.504   8.027
  145SBC   C0BU 1758   2.447  -0.459   8.090
  145SBC   C0BT 1759   2.365  -0.552   8.160
  145SBC   C0BS 1760   2.248  -0.515   8.231
  145SBC   C0CC 1761   2.177  -0.615   8.297
  145SBC   C0CB 1762   2.072  -0.579   8.380
  145SBC   C0CH 1763   2.036  -0.667   8.483
  145SBC   C0DO 1764   2.062  -0.806   8.468
  145SBC   C0DP 1765   1.996  -0.902   8.548
  145SBC   C0EA 1766   1.909  -0.862   8.652
  145SBC   H012 1767   1.881  -0.762   8.679
  145SBC   O009 1768   1.854  -0.958   8.732
  145SBC   C0EH 1769   1.890  -1.086   8.715
  145SBC   C0EG 1770   1.841  -1.178   8.806
  145SBC   C0EJ 1771   1.749  -1.166   8.914
  145SBC   H010 1772   1.714  -1.068   8.943
  145SBC   C0EK 1773   1.728  -1.298   8.975
  145SBC   H00Z 1774   1.666  -1.325   9.059
  145SBC   C0EL 1775   1.803  -1.384   8.896
  145SBC   C0EM 1776   1.835  -1.519   8.904
  145SBC   C0EW 1777   1.801  -1.610   9.001
  145SBC   H013 1778   1.731  -1.574   9.075
  145SBC   C0EX 1779   1.854  -1.746   9.002
  145SBC   H014 1780   1.837  -1.811   9.086
  145SBC   C0F1 1781   1.942  -1.792   8.894
  145SBC   C0EU 1782   1.974  -1.701   8.791
  145SBC   C0ET 1783   2.060  -1.728   8.685
  145SBC   C0ES 1784   2.067  -1.599   8.626
  145SBC   C0EE 1785   1.989  -1.507   8.700
  145SBC   C0ED 1786   1.950  -1.368   8.691
  145SBC   C0EC 1787   1.998  -1.273   8.592
  145SBC   C0EB 1788   2.067  -1.312   8.475
  145SBC   C0EN 1789   2.091  -1.450   8.434
  145SBC   C0ER 1790   2.162  -1.471   8.319
  145SBC   C0DS 1791   2.121  -1.211   8.393
  145SBC   C0DR 1792   2.103  -1.074   8.423
  145SBC   C0EY 1793   2.077  -1.584   8.488
  145SBC   C0EZ 1794   2.148  -1.680   8.408
  145SBC   C0F5 1795   2.209  -1.813   8.428
  145SBC   C0F6 1796   2.189  -1.895   8.543
  145SBC   N008 1797   2.256  -2.020   8.540
  145SBC   C0F7 1798   2.333  -2.068   8.426
  145SBC   C0FQ 1799   2.385  -2.197   8.435
  145SBC   H018 1800   2.449  -2.229   8.353
  145SBC   C0FP 1801   2.358  -2.285   8.536
  145SBC   H019 1802   2.413  -2.378   8.540
  145SBC   C0FO 1803   2.284  -2.235   8.649
  145SBC   H01A 1804   2.274  -2.301   8.734
  145SBC   C0F8 1805   2.357  -1.977   8.323
  145SBC   C0F9 1806   2.234  -2.101   8.651
  145SBC   C0FA 1807   2.152  -2.069   8.764
  145SBC   H015 1808   2.142  -2.145   8.840
  145SBC   C0FB 1809   2.092  -1.943   8.769
  145SBC   C0FD 1810   2.107  -1.864   8.661
  145SBC   C0FC 1811   2.006  -1.919   8.882
  145SBC   O00A 1812   1.989  -2.009   8.967
  145SBC   C0EV 1813   1.919  -1.571   8.799
  145SBC   C0EF 1814   1.865  -1.308   8.789
  145SBC   C0EI 1815   1.972  -1.134   8.611
  145SBC   C0DQ 1816   2.022  -1.040   8.526
  145SBC   C0CE 1817   2.143  -0.843   8.364
  145SBC   H00U 1818   1.975  -0.626   8.563
  145SBC   C0CA 1819   1.998  -0.460   8.342
  145SBC   C0C9 1820   2.067  -0.357   8.270
  145SBC   C0C8 1821   1.994  -0.231   8.251
  145SBC   C0C7 1822   2.043  -0.092   8.237
  145SBC   C0C6 1823   1.948   0.017   8.228
  145SBC   C0C5 1824   1.946   0.155   8.277
  145SBC   C0CQ 1825   1.828   0.203   8.335
  145SBC   C0D1 1826   1.726   0.115   8.374
  145SBC   C0D8 1827   1.678   0.145   8.503
  145SBC   C0D7 1828   1.707   0.284   8.518
  145SBC   C0D6 1829   1.683   0.363   8.633
  145SBC   C0D5 1830   1.733   0.493   8.656
  145SBC   C0D4 1831   1.820   0.585   8.589
  145SBC   C0D3 1832   1.886   0.667   8.687
  145SBC   C0CX 1833   2.014   0.706   8.630
  145SBC   C0CW 1834   2.028   0.620   8.509
  145SBC   C0CV 1835   2.129   0.602   8.399
  145SBC   C0D2 1836   2.217   0.707   8.362
  145SBC   C09D 1837   2.194   0.845   8.390
  145SBC   C09C 1838   2.273   0.944   8.329
  145SBC   C09B 1839   2.275   1.080   8.350
  145SBC   C09A 1840   2.189   1.112   8.456
  145SBC   C099 1841   2.097   1.028   8.514
  145SBC   C098 1842   2.056   1.081   8.636
  145SBC   C08Y 1843   2.130   1.204   8.665
  145SBC   C08X 1844   2.131   1.281   8.780
  145SBC   C08W 1845   2.051   1.244   8.895
  145SBC   C08U 1846   1.986   1.118   8.923
  145SBC   C08V 1847   1.988   0.986   8.858
  145SBC   C0DC 1848   1.873   0.923   8.911
  145SBC   H00W 1849   1.839   0.833   8.863
  145SBC   C0DB 1850   1.829   0.987   9.027
  145SBC   H00X 1851   1.749   0.964   9.096
  145SBC   C08T 1852   1.895   1.114   9.029
  145SBC   C08S 1853   1.878   1.214   9.124
  145SBC   H00N 1854   1.798   1.210   9.197
  145SBC   C08R 1855   1.950   1.329   9.111
  145SBC   C08Q 1856   1.942   1.435   9.210
  145SBC   H00O 1857   1.881   1.424   9.299
  145SBC   C08P 1858   2.008   1.562   9.198
  145SBC   C08O 1859   1.987   1.669   9.293
  145SBC   H00P 1860   1.909   1.669   9.368
  145SBC   C08N 1861   2.074   1.785   9.274
  145SBC   C08M 1862   2.059   1.896   9.369
  145SBC   O008 1863   1.977   1.887   9.459
  145SBC   O007 1864   2.132   2.009   9.349
  145SBC   C08H 1865   2.225   2.028   9.252
  145SBC   C08G 1866   2.304   2.145   9.234
  145SBC   C03V 1867   2.315   2.263   9.313
  145SBC   H009 1868   2.239   2.279   9.388
  145SBC   C03U 1869   2.412   2.369   9.300
  145SBC   C03W 1870   2.429   2.487   9.383
  145SBC   H00A 1871   2.370   2.508   9.470
  145SBC   C03X 1872   2.536   2.566   9.362
  145SBC   H00B 1873   2.568   2.649   9.423
  145SBC   O005 1874   2.627   2.544   9.261
  145SBC   C03O 1875   2.620   2.428   9.191
  145SBC   C03N 1876   2.720   2.408   9.098
  145SBC   O000 1877   2.823   2.496   9.109
  145SBC   C019 1878   2.922   2.473   9.021
  145SBC   C018 1879   2.936   2.362   8.934
  145SBC   C017 1880   2.825   2.273   8.930
  145SBC   C016 1881   2.826   2.172   8.841
  145SBC   C015 1882   2.941   2.160   8.751
  145SBC   C014 1883   2.939   2.062   8.658
  145SBC   C013 1884   2.830   1.969   8.636
  145SBC   C012 1885   2.875   1.885   8.523
  145SBC   C011 1886   2.999   1.934   8.489
  145SBC   C010 1887   3.070   1.885   8.382
  145SBC   C00Z 1888   3.204   1.904   8.360
  145SBC   C00Y 1889   3.232   1.797   8.268
  145SBC   C01O 1890   3.121   1.724   8.239
  145SBC   C01P 1891   3.124   1.594   8.183
  145SBC   C02L 1892   3.011   1.517   8.201
  145SBC   C02K 1893   2.905   1.569   8.276
  145SBC   C01M 1894   2.910   1.698   8.351
  145SBC   C02J 1895   2.789   1.488   8.268
  145SBC   C02I 1896   2.670   1.512   8.329
  145SBC   C02H 1897   2.632   1.613   8.420
  145SBC   C01Q 1898   2.698   1.722   8.477
  145SBC   C02G 1899   2.618   1.778   8.583
  145SBC   C089 1900   2.493   1.709   8.575
  145SBC   C088 1901   2.435   1.709   8.700
  145SBC   C087 1902   2.505   1.818   8.771
  145SBC   C086 1903   2.453   1.881   8.887
  145SBC   C03S 1904   2.494   2.012   8.940
  145SBC   N006 1905   2.405   2.038   9.041
  145SBC   C08F 1906   2.321   1.930   9.062
  145SBC   C01J 1907   2.601   2.107   8.918
  145SBC   C03R 1908   2.607   2.214   9.010
  145SBC   C03Q 1909   2.509   2.229   9.114
  145SBC   C08E 1910   2.351   1.832   8.973
  145SBC   C08D 1911   2.269   1.710   8.971
  145SBC   C08K 1912   2.178   1.693   9.080
  145SBC   C08C 1913   2.276   1.605   8.877
  145SBC   C091 1914   2.203   1.483   8.895
  145SBC   C092 1915   2.112   1.464   9.004
  145SBC   C08B 1916   2.349   1.597   8.756
  145SBC   C090 1917   2.307   1.466   8.696
  145SBC   C094 1918   2.325   1.439   8.558
  145SBC   C095 1919   2.291   1.320   8.503
  145SBC   C09R 1920   2.374   1.292   8.396
  145SBC   C097 1921   2.467   1.393   8.388
  145SBC   C096 1922   2.434   1.486   8.480
  145SBC   C01I 1923   2.617   1.871   8.695
  145SBC   C08A 1924   2.506   1.601   8.489
  145SBC   C09L 1925   2.584   1.403   8.307
  145SBC   C09K 1926   2.655   1.307   8.224
  145SBC   C09J 1927   2.597   1.185   8.180
  145SBC   C09I 1928   2.675   1.077   8.129
  145SBC   C09O 1929   2.815   1.052   8.093
  145SBC   C09N 1930   2.919   1.157   8.096
  145SBC   C09M 1931   2.906   1.293   8.142
  145SBC   C06O 1932   3.045   1.110   8.052
  145SBC   C05M 1933   3.065   0.975   8.005
  145SBC   C06P 1934   2.966   0.884   8.006
  145SBC   C042 1935   3.191   0.934   7.970
  145SBC   C041 1936   3.299   1.018   7.979
  145SBC   C040 1937   3.426   0.979   7.938
  145SBC   C03Z 1938   3.537   1.063   7.951
  145SBC   C03Y 1939   3.523   1.184   8.012
  145SBC   C027 1940   3.637   1.263   8.032
  145SBC   C026 1941   3.626   1.383   8.093
  145SBC   C028 1942   3.734   1.452   8.139
  145SBC   C029 1943   3.863   1.398   8.121
  145SBC   C02B 1944   3.973   1.471   8.153
  145SBC   C02C 1945   4.097   1.423   8.127
  145SBC   C02X 1946   4.207   1.487   8.185
  145SBC   C03E 1947   4.328   1.427   8.168
  145SBC   C03G 1948   4.353   1.305   8.110
  145SBC   C04Q 1949   4.239   1.242   8.056
  145SBC   C04R 1950   4.255   1.119   7.999
  145SBC   C04S 1951   4.147   1.055   7.946
  145SBC   C04L 1952   4.025   1.114   7.954
  145SBC   C04M 1953   4.006   1.234   8.021
  145SBC   C04K 1954   3.912   1.046   7.917
  145SBC   C04F 1955   3.924   0.921   7.857
  145SBC   C04E 1956   4.054   0.867   7.838
  145SBC   C04D 1957   4.066   0.740   7.786
  145SBC   C050 1958   4.190   0.691   7.755
  145SBC   C051 1959   4.203   0.570   7.694
  145SBC   C05Q 1960   4.326   0.533   7.650
  145SBC   C05V 1961   4.330   0.412   7.569
  145SBC   N005 1962   4.455   0.378   7.520
  145SBC   C07V 1963   4.568   0.445   7.559
  145SBC   C082 1964   4.696   0.396   7.516
  145SBC   C081 1965   4.707   0.305   7.409
  145SBC   C07C 1966   4.589   0.241   7.371
  145SBC   C07B 1967   4.590   0.139   7.274
  145SBC   C080 1968   4.703   0.119   7.185
  145SBC   C07Z 1969   4.687   0.037   7.074
  145SBC   H00L 1970   4.771   0.028   7.006
  145SBC   C079 1971   4.582  -0.057   7.062
  145SBC   C078 1972   4.479  -0.045   7.150
  145SBC   C077 1973   4.372  -0.132   7.152
  145SBC   C07X 1974   4.369  -0.236   7.055
  145SBC   H00I 1975   4.297  -0.317   7.052
  145SBC   C07Y 1976   4.473  -0.258   6.968
  145SBC   H00H 1977   4.487  -0.331   6.889
  145SBC   C076 1978   4.270  -0.119   7.244
  145SBC   C06C 1979   4.180  -0.225   7.270
  145SBC   H00C 1980   4.186  -0.326   7.233
  145SBC   C06F 1981   4.258  -0.002   7.320
  145SBC   C06E 1982   4.147   0.027   7.391
  145SBC   C06G 1983   4.129   0.130   7.478
  145SBC   C06H 1984   4.232   0.218   7.475
  145SBC   C06I 1985   4.356   0.190   7.422
  145SBC   C06L 1986   4.002   0.148   7.548
  145SBC   C06M 1987   3.896   0.052   7.556
  145SBC   C06K 1988   3.991   0.273   7.608
  145SBC   C05S 1989   4.103   0.364   7.607
  145SBC   C05U 1990   3.871   0.313   7.657
  145SBC   C05X 1991   3.759   0.227   7.654
  145SBC   C05G 1992   3.636   0.293   7.695
  145SBC   C05F 1993   3.635   0.426   7.727
  145SBC   C05E 1994   3.507   0.469   7.768
  145SBC   C048 1995   3.485   0.597   7.808
  145SBC   C056 1996   3.359   0.630   7.840
  145SBC   C045 1997   3.340   0.760   7.883
  145SBC   C047 1998   3.594   0.682   7.801
  145SBC   C049 1999   3.721   0.635   7.761
  145SBC   C04B 2000   3.827   0.715   7.785
  145SBC   C046 2001   3.572   0.807   7.847
  145SBC   C04H 2002   3.681   0.890   7.866
  145SBC   C05D 2003   3.417   0.367   7.762
  145SBC   C04A 2004   3.741   0.507   7.724
  145SBC   C05T 2005   3.860   0.447   7.701
  145SBC   C055 2006   3.969   0.532   7.711
  145SBC   C06D 2007   4.055  -0.074   7.415
  145SBC   C07W 2008   4.366   0.086   7.334
  145SBC   C085 2009   4.576  -0.167   6.977
  145SBC   H00M 2010   4.660  -0.186   6.913
  145SBC   C084 2011   4.820   0.192   7.223
  145SBC   H00J 2012   4.907   0.177   7.161
  145SBC   C07A 2013   4.476   0.060   7.250
  145SBC   C083 2014   4.822   0.283   7.332
  145SBC   H00K 2015   4.916   0.324   7.366
  145SBC   O00K 2016   4.808   0.451   7.568
  145SBC   C0GO 2017   4.794   0.551   7.662
  145SBC   C0GN 2018   4.912   0.614   7.713
  145SBC   H01L 2019   5.005   0.575   7.675
  145SBC   C0GM 2020   4.907   0.727   7.804
  145SBC   C0GL 2021   5.022   0.780   7.845
  145SBC   H01M 2022   5.117   0.738   7.815
  145SBC   O00J 2023   5.022   0.893   7.930
  145SBC   C0GK 2024   4.901   0.956   7.946
  145SBC   H01N 2025   4.901   1.053   7.994
  145SBC   C05K 2026   4.780   0.900   7.902
  145SBC   C05J 2027   4.655   0.958   7.943
  145SBC   C04Y 2028   4.629   1.075   8.021
  145SBC   C04X 2029   4.502   1.131   8.041
  145SBC   O006 2030   4.732   1.136   8.095
  145SBC   C053 2031   4.727   1.258   8.154
  145SBC   C04O 2032   4.600   1.329   8.157
  145SBC   C03C 2033   4.568   1.457   8.218
  145SBC   C03B 2034   4.635   1.552   8.302
  145SBC   C054 2035   4.766   1.539   8.348
  145SBC   C0GR 2036   4.830   1.638   8.430
  145SBC   C03M 2037   4.790   1.759   8.515
  145SBC   C03I 2038   4.657   1.808   8.527
  145SBC   C03J 2039   4.627   1.911   8.620
  145SBC   N002 2040   4.494   1.956   8.653
  145SBC   C02U 2041   4.467   2.054   8.752
  145SBC   C02T 2042   4.337   2.107   8.766
  145SBC   C02Z 2043   4.308   2.200   8.865
  145SBC   N001 2044   4.180   2.254   8.882
  145SBC   C02R 2045   4.155   2.356   8.978
  145SBC   C032 2046   4.256   2.403   9.054
  145SBC   C031 2047   4.387   2.350   9.031
  145SBC   H007 2048   4.472   2.382   9.088
  145SBC   C033 2049   4.221   2.491   9.161
  145SBC   H003 2050   4.301   2.526   9.224
  145SBC   O004 2051   4.096   2.541   9.181
  145SBC   C034 2052   3.996   2.478   9.113
  145SBC   C035 2053   3.867   2.485   9.173
  145SBC   C036 2054   3.762   2.414   9.121
  145SBC   H005 2055   3.669   2.428   9.175
  145SBC   C037 2056   3.782   2.338   9.002
  145SBC   H006 2057   3.700   2.280   8.963
  145SBC   C00D 2058   3.911   2.331   8.939
  145SBC   C00C 2059   3.938   2.266   8.821
  145SBC   C00B 2060   3.830   2.228   8.722
  145SBC   C00A 2061   3.676   2.225   8.693
  145SBC   C009 2062   3.657   2.142   8.582
  145SBC   C008 2063   3.535   2.088   8.520
  145SBC   C007 2064   3.414   2.128   8.572
  145SBC   C006 2065   3.295   2.073   8.523
  145SBC   C005 2066   3.175   2.111   8.595
  145SBC   C004 2067   3.173   2.199   8.704
  145SBC   C003 2068   3.295   2.270   8.737
  145SBC   C002 2069   3.294   2.370   8.830
  145SBC   C01C 2070   3.169   2.410   8.884
  145SBC   C01B 2071   3.153   2.528   8.960
  145SBC   H000 2072   3.229   2.603   8.972
  145SBC   C001 2073   3.419   2.424   8.872
  145SBC   C000 2074   3.538   2.396   8.805
  145SBC   C01U 2075   3.625   2.497   8.847
  145SBC   H002 2076   3.724   2.519   8.811
  145SBC   C01T 2077   3.559   2.571   8.953
  145SBC   O002 2078   3.612   2.652   9.028
  145SBC   O001 2079   3.434   2.520   8.968
  145SBC   C01S 2080   3.415   2.228   8.677
  145SBC   C00N 2081   3.551   1.991   8.423
  145SBC   C00M 2082   3.678   1.936   8.396
  145SBC   C00J 2083   3.789   1.980   8.461
  145SBC   C00I 2084   3.915   1.924   8.456
  145SBC   C00H 2085   4.027   1.965   8.531
  145SBC   C00G 2086   4.008   2.072   8.623
  145SBC   C00F 2087   4.107   2.119   8.705
  145SBC   C01X 2088   4.152   1.911   8.518
  145SBC   C01W 2089   4.163   1.817   8.425
  145SBC   C01V 2090   4.053   1.766   8.356
  145SBC   C020 2091   4.071   1.655   8.275
  145SBC   C01Z 2092   4.294   1.765   8.408
  145SBC   C02Y 2093   4.301   1.657   8.324
  145SBC   C039 2094   4.424   1.605   8.304
  145SBC   C02W 2095   4.409   1.808   8.475
  145SBC   C01Y 2096   4.258   1.961   8.598
  145SBC   C00U 2097   3.927   1.820   8.372
  145SBC   C00S 2098   3.821   1.762   8.309
  145SBC   C00T 2099   3.834   1.644   8.239
  145SBC   C00R 2100   3.694   1.821   8.322
  145SBC   C00Q 2101   3.586   1.758   8.271
  145SBC   C00V 2102   3.597   1.635   8.207
  145SBC   C024 2103   3.484   1.563   8.162
  145SBC   C00X 2104   3.361   1.621   8.183
  145SBC   C00P 2105   3.463   1.813   8.298
  145SBC   C00O 2106   3.442   1.929   8.372
  145SBC   C00K 2107   3.776   2.086   8.548
  145SBC   N000 2108   3.547   2.286   8.719
  145SBC   C00L 2109   3.878   2.129   8.633
  145SBC   H004 2110   3.851   2.550   9.258
  145SBC   C02Q 2111   4.022   2.391   9.006
  145SBC   C00E 2112   4.070   2.219   8.795
  145SBC   C030 2113   4.417   2.246   8.943
  145SBC   O003 2114   4.544   2.189   8.930
  145SBC   C02S 2115   4.233   2.064   8.691
  145SBC   C038 2116   4.568   2.110   8.822
  145SBC   C03L 2117   4.696   2.061   8.800
  145SBC   H008 2118   4.770   2.108   8.862
  145SBC   C02V 2119   4.387   1.910   8.574
  145SBC   C03K 2120   4.734   1.967   8.696
  145SBC   C0BK 2121   4.863   1.923   8.665
  145SBC   H00T 2122   4.942   1.969   8.722
  145SBC   C03H 2123   4.543   1.762   8.452
  145SBC   C0BL 2124   4.899   1.819   8.584
  145SBC   C0GU 2125   5.032   1.771   8.571
  145SBC   H01O 2126   5.110   1.820   8.626
  145SBC   C0GT 2127   5.064   1.661   8.496
  145SBC   H01P 2128   5.166   1.629   8.502
  145SBC   C0GS 2129   4.968   1.594   8.430
  145SBC   C0GV 2130   4.984   1.474   8.354
  145SBC   C0GW 2131   5.103   1.393   8.338
  145SBC   H01Q 2132   5.203   1.418   8.370
  145SBC   C0GX 2133   5.084   1.289   8.259
  145SBC   H01R 2134   5.171   1.235   8.224
  145SBC   O00L 2135   4.959   1.241   8.213
  145SBC   C0GQ 2136   4.854   1.439   8.302
  145SBC   C03A 2137   4.544   1.651   8.354
  145SBC   C05L 2138   4.842   1.321   8.217
  145SBC   C04W 2139   4.537   0.898   7.885
  145SBC   C05I 2140   4.543   0.787   7.808
  145SBC   C05O 2141   4.668   0.732   7.769
  145SBC   C052 2142   4.432   0.720   7.760
  145SBC   C04V 2143   4.407   0.943   7.918
  145SBC   C04U 2144   4.291   0.883   7.869
  145SBC   N009 2145   4.787   0.785   7.824
  145SBC   C0GP 2146   4.674   0.616   7.692
  145SBC   C05W 2147   4.560   0.549   7.651
  145SBC   C07D 2148   4.467   0.268   7.439
  145SBC   C06J 2149   4.221   0.333   7.547
  145SBC   C05P 2150   4.439   0.600   7.686
  145SBC   C05R 2151   4.091   0.492   7.674
  145SBC   C04Z 2152   4.304   0.769   7.787
  145SBC   C04C 2153   3.956   0.664   7.763
  145SBC   C04G 2154   3.812   0.842   7.836
  145SBC   C04J 2155   3.781   1.091   7.940
  145SBC   C04T 2156   4.166   0.935   7.887
  145SBC   N003 2157   4.383   1.060   7.995
  145SBC   C04P 2158   4.486   1.258   8.105
  145SBC   C03D 2159   4.442   1.501   8.216
  145SBC   C021 2160   4.197   1.597   8.261
  145SBC   C03F 2161   4.116   1.301   8.064
  145SBC   C022 2162   3.958   1.592   8.220
  145SBC   C02A 2163   3.880   1.281   8.052
  145SBC   C023 2164   3.720   1.577   8.195
  145SBC   C025 2165   3.497   1.439   8.109
  145SBC   C02D 2166   3.381   1.363   8.082
  145SBC   C02E 2167   3.252   1.417   8.101
  145SBC   C02N 2168   3.137   1.331   8.095
  145SBC   C04N 2169   3.767   1.211   8.009
  145SBC   C02P 2170   3.394   1.229   8.040
  145SBC   C04I 2171   3.669   1.016   7.920
  145SBC   C044 2172   3.445   0.850   7.886
  145SBC   C043 2173   3.278   1.149   8.024
  145SBC   C05N 2174   3.151   1.201   8.049
  145SBC   C09U 2175   2.841   0.916   8.050
  145SBC   C09V 2176   2.742   0.814   8.065
  145SBC   C09X 2177   2.617   0.836   8.116
  145SBC   C09Y 2178   2.517   0.741   8.151
  145SBC   C0A1 2179   2.550   0.616   8.121
  145SBC   C0A2 2180   2.671   0.583   8.059
  145SBC   C0A4 2181   2.696   0.452   8.020
  145SBC   C071 2182   2.816   0.420   7.954
  145SBC   C0A5 2183   2.838   0.286   7.918
  145SBC   C0A9 2184   2.742   0.192   7.945
  145SBC   C0A8 2185   2.625   0.228   8.009
  145SBC   C0AP 2186   2.535   0.134   8.041
  145SBC   C0BY 2187   2.420   0.166   8.106
  145SBC   C0BX 2188   2.389   0.292   8.144
  145SBC   C0C2 2189   2.273   0.320   8.218
  145SBC   C0C3 2190   2.247   0.451   8.263
  145SBC   C0CT 2191   2.344   0.547   8.236
  145SBC   C0C1 2192   2.179   0.218   8.241
  145SBC   C0C0 2193   2.226   0.079   8.224
  145SBC   C0A7 2194   2.485   0.386   8.120
  145SBC   C0BZ 2195   2.343   0.059   8.160
  145SBC   C0BO 2196   2.371  -0.070   8.136
  145SBC   C0BN 2197   2.473  -0.107   8.050
  145SBC   C0BM 2198   2.496  -0.241   8.034
  145SBC   C0B9 2199   2.619  -0.275   7.974
  145SBC   C0B8 2200   2.703  -0.179   7.922
  145SBC   C0AD 2201   2.678  -0.041   7.945
  145SBC   C0AF 2202   2.827  -0.218   7.872
  145SBC   C0AG 2203   2.862  -0.355   7.857
  145SBC   C0B7 2204   2.773  -0.447   7.907
  145SBC   C0AE 2205   2.909  -0.118   7.837
  145SBC   C0AB 2206   2.887   0.017   7.855
  145SBC   C0AA 2207   2.982   0.118   7.836
  145SBC   C0AJ 2208   3.031  -0.154   7.783
  145SBC   C0AK 2209   3.119  -0.056   7.757
  145SBC   C06W 2210   3.229  -0.129   7.713
  145SBC   C0AI 2211   3.073  -0.285   7.763
  145SBC   C0BP 2212   2.269  -0.152   8.182
  145SBC   C0BQ 2213   2.284  -0.294   8.152
  145SBC   C0BW 2214   2.561  -0.003   8.011
  145SBC   C0AC 2215   2.766   0.057   7.912
  145SBC   C0A6 2216   2.599   0.356   8.049
  145SBC   C0A3 2217   2.459   0.515   8.161
  145SBC   C09Z 2218   2.404   0.773   8.225
  145SBC   C09W 2219   2.769   0.683   8.034
  145SBC   C072 2220   2.890   0.650   7.974
  145SBC   C09H 2221   2.586   0.968   8.138
  145SBC   C09G 2222   2.459   1.004   8.189
  145SBC   C09P 2223   2.475   1.134   8.226
  145SBC   C02O 2224   2.784   1.359   8.200
  145SBC   C02M 2225   3.018   1.380   8.145
  145SBC   C02F 2226   3.246   1.547   8.150
  145SBC   C00W 2227   3.357   1.743   8.249
  145SBC   C01R 2228   3.315   1.977   8.415
  145SBC   C01N 2229   3.022   1.771   8.321
  145SBC   C01L 2230   2.827   1.764   8.455
  145SBC   C01H 2231   2.717   1.973   8.720
  145SBC   C01K 2232   3.050   2.030   8.576
  145SBC   C01E 2233   3.053   2.238   8.766
  145SBC   C01G 2234   2.710   2.083   8.826
  145SBC   C01D 2235   3.052   2.335   8.859
  145SBC   C01A 2236   3.032   2.558   9.025
  145SBC   H001 2237   3.017   2.650   9.081
  145SBC   C01F 2238   2.717   2.297   9.014
  145SBC   C03P 2239   2.511   2.339   9.202
  145SBC   C03T 2240   2.402   2.141   9.131
  145SBC   C08I 2241   2.239   1.916   9.169
  145SBC   C08J 2242   2.166   1.799   9.174
  145SBC   C08L 2243   2.099   1.572   9.091
  145SBC   C093 2244   2.042   1.339   9.003
  145SBC   C08Z 2245   2.212   1.402   8.785
  145SBC   C09T 2246   2.025   0.967   8.717
  145SBC   C09S 2247   2.198   1.225   8.540
  145SBC   C09Q 2248   2.379   1.171   8.319
  145SBC   C09F 2249   2.377   0.904   8.247
  145SBC   C09E 2250   2.121   0.890   8.506
  145SBC   C0A0 2251   2.320   0.675   8.275
  145SBC   C0CU 2252   2.139   0.477   8.342
  145SBC   C0CR 2253   2.038   0.380   8.357
  145SBC   C0CZ 2254   1.920   0.414   8.422
  145SBC   C0DA 2255   2.057   0.844   8.625
  145SBC   C0D9 2256   1.864   0.604   8.817
  145SBC   H00V 2257   1.923   0.623   8.905
  145SBC   C0CY 2258   1.917   0.532   8.505
  145SBC   C0DF 2259   1.752   0.512   8.794
  145SBC   C0DE 2260   1.670   0.414   8.859
  145SBC   C0GI 2261   1.626   0.397   8.992
  145SBC   H01K 2262   1.654   0.472   9.065
  145SBC   C0GJ 2263   1.555   0.286   9.022
  145SBC   H01J 2264   1.532   0.262   9.124
  145SBC   O00I 2265   1.523   0.186   8.926
  145SBC   C0GH 2266   1.569   0.191   8.795
  145SBC   C0GG 2267   1.567   0.069   8.724
  145SBC   O00G 2268   1.493  -0.028   8.787
  145SBC   C0G8 2269   1.482  -0.151   8.726
  145SBC   C0G9 2270   1.387  -0.240   8.784
  145SBC   H01G 2271   1.323  -0.199   8.861
  145SBC   C0GA 2272   1.369  -0.367   8.736
  145SBC   H01H 2273   1.278  -0.417   8.765
  145SBC   C0GB 2274   1.452  -0.424   8.634
  145SBC   C0EP 2275   1.553  -0.330   8.587
  145SBC   C0E8 2276   1.665  -0.385   8.510
  145SBC   C0CK 2277   1.786  -0.345   8.448
  145SBC   C0CL 2278   1.771  -0.227   8.374
  145SBC   C0E9 2279   1.701  -0.114   8.427
  145SBC   C0GE 2280   1.622  -0.088   8.549
  145SBC   C0E7 2281   1.657  -0.522   8.473
  145SBC   C0CJ 2282   1.770  -0.569   8.403
  145SBC   C0E6 2283   1.767  -0.703   8.355
  145SBC   H00Y 2284   1.842  -0.749   8.292
  145SBC   C0EO 2285   1.647  -0.772   8.372
  145SBC   H011 2286   1.655  -0.872   8.330
  145SBC   C0G6 2287   1.530  -0.725   8.445
  145SBC   C0G5 2288   1.404  -0.794   8.474
  145SBC   H01F 2289   1.397  -0.890   8.425
  145SBC   C0GD 2290   1.308  -0.737   8.542
  145SBC   H01I 2291   1.219  -0.796   8.553
  145SBC   O00H 2292   1.319  -0.613   8.609
  145SBC   C0EQ 2293   1.536  -0.597   8.496
  145SBC   C0GC 2294   1.435  -0.548   8.573
  145SBC   C0G7 2295   1.554  -0.192   8.614
  145SBC   C0DD 2296   1.636   0.313   8.759
  145SBC   C0GF 2297   1.615   0.046   8.594
  145SBC   C0CO 2298   1.741  -0.017   8.337
  145SBC   C0D0 2299   1.820   0.308   8.423
  145SBC   C0C4 2300   2.055   0.250   8.295
  145SBC   C0CN 2301   1.829  -0.058   8.234
  145SBC   C0CP 2302   2.179  -0.060   8.245
  145SBC   C0CM 2303   1.851  -0.199   8.252
  145SBC   C0CI 2304   1.866  -0.459   8.398
  145SBC   C0CD 2305   2.210  -0.750   8.286
  145SBC   C0BR 2306   2.201  -0.385   8.221
  145SBC   C0CS 2307   2.408  -0.333   8.091
  145SBC   C0B6 2308   2.649  -0.411   7.966
  145SBC   C0CG 2309   2.399  -0.692   8.149
  145SBC   C0CF 2310   2.317  -0.783   8.203
  145SBC   C0E5 2311   2.166  -0.975   8.341
  145SBC   C0DT 2312   2.198  -1.241   8.282
  145SBC   C0DL 2313   2.470  -1.099   8.082
  145SBC   C0DM 2314   2.576  -1.140   8.006
  145SBC   C0DY 2315   2.507  -1.362   8.025
  145SBC   C0DU 2316   2.213  -1.372   8.240
  145SBC   C0F0 2317   2.183  -1.602   8.294
  145SBC   C0F4 2318   2.281  -1.855   8.317
  145SBC   C0FG 2319   2.437  -1.731   8.011
  145SBC   O00B 2320   2.455  -2.009   8.231
  145SBC   C0FN 2321   2.552  -1.781   7.973
  145SBC   C0DZ 2322   2.522  -1.502   7.996
  145SBC   O00C 2323   2.863  -1.495   7.859
  145SBC   C0FR 2324   2.961  -1.416   7.810
  145SBC   O00D 2325   3.059  -1.471   7.765
  145SBC   C0E0 2326   2.601  -1.274   7.981
  145SBC   C0E3 2327   2.931  -1.272   7.820
  145SBC   C0AW 2328   3.023  -1.174   7.770
  145SBC   C0AV 2329   3.138  -1.203   7.691
  145SBC   H00Q 2330   3.170  -1.301   7.659
  145SBC   C0AU 2331   3.216  -1.096   7.640
  145SBC   H00R 2332   3.279  -1.118   7.555
  145SBC   C0AT 2333   3.191  -0.963   7.680
  145SBC   C0AS 2334   3.245  -0.834   7.659
  145SBC   C0AR 2335   3.365  -0.812   7.589
  145SBC   C0BE 2336   3.085  -0.940   7.765
  145SBC   C0DN 2337   2.668  -1.042   7.962
  145SBC   C0AX 2338   2.995  -1.040   7.796
  145SBC   C0BB 2339   2.737  -0.812   7.936
  145SBC   C0BD 2340   3.063  -0.807   7.785
  145SBC   C0B2 2341   2.805  -0.581   7.900
  145SBC   C0AH 2342   2.988  -0.398   7.806
  145SBC   C0BF 2343   3.162  -0.729   7.725
  145SBC   C0AL 2344   3.207  -0.269   7.716
  145SBC   C07U 2345   3.404  -0.559   7.638
  145SBC   C0AQ 2346   3.437  -0.690   7.585
  145SBC   C0BG 2347   3.441  -0.909   7.519
  145SBC   C0FY 2348   3.785  -0.886   7.438
  145SBC   C0BJ 2349   3.505  -1.026   7.580
  145SBC   H00S 2350   3.466  -1.089   7.659
  145SBC   C0FZ 2351   3.850  -0.995   7.501
  145SBC   C07S 2352   3.846  -0.755   7.453
  145SBC   C0G1 2353   4.188  -0.887   7.513
  145SBC   C07K 2354   4.275  -0.528   7.470
  145SBC   C07H 2355   3.989  -0.506   7.502
  145SBC   C06B 2356   4.078  -0.199   7.363
  145SBC   C06N 2357   3.944  -0.071   7.503
  145SBC   C066 2358   3.754  -0.406   7.551
  145SBC   C062 2359   3.522  -0.202   7.630
  145SBC   C05Y 2360   3.774   0.091   7.611
  145SBC   C061 2361   3.444  -0.087   7.592
  145SBC   C05H 2362   3.499   0.257   7.716
  145SBC   C06V 2363   3.329  -0.043   7.669
  145SBC   C06Y 2364   3.103   0.081   7.789
  145SBC   C05C 2365   3.281   0.397   7.804
  145SBC   C06Z 2366   2.960   0.251   7.864
  145SBC   C070 2367   2.917   0.515   7.937
  145SBC   C05B 2368   3.256   0.534   7.842
  145SBC   C057 2369   3.213   0.801   7.932
  145SBC   C059 2370   2.989   0.751   7.965
  146SBC   C058 2371   6.537   9.455  10.300
  146SBC   C05A 2372   6.650   9.392  10.247
  146SBC   C06Q 2373   6.769   9.382  10.319
  146SBC   C06R 2374   6.876   9.314  10.269
  146SBC   C06S 2375   6.875   9.259  10.136
  146SBC   C06T 2376   6.987   9.182  10.089
  146SBC   C06U 2377   7.006   9.094   9.972
  146SBC   C06X 2378   6.926   9.070   9.857
  146SBC   C060 2379   6.977   8.944   9.792
  146SBC   C05Z 2380   6.986   8.928   9.650
  146SBC   C068 2381   7.132   8.891   9.622
  146SBC   C067 2382   7.201   8.870   9.495
  146SBC   C069 2383   7.110   8.843   9.379
  146SBC   C06A 2384   7.160   8.820   9.241
  146SBC   C073 2385   7.271   8.872   9.175
  146SBC   C07P 2386   7.270   8.926   9.041
  146SBC   C07O 2387   7.149   8.958   8.979
  146SBC   H00D 2388   7.057   8.944   9.034
  146SBC   C07N 2389   7.143   9.023   8.854
  146SBC   H00E 2390   7.045   9.050   8.817
  146SBC   C07M 2391   7.265   9.061   8.789
  146SBC   H00F 2392   7.262   9.122   8.699
  146SBC   C07L 2393   7.388   9.007   8.839
  146SBC   C07Q 2394   7.522   9.025   8.789
  146SBC   H00G 2395   7.522   9.090   8.703
  146SBC   O00F 2396   7.634   8.958   8.827
  146SBC   C07J 2397   7.624   8.901   8.948
  146SBC   C07I 2398   7.509   8.892   9.025
  146SBC   N004 2399   7.505   8.832   9.153
  146SBC   C07R 2400   7.630   8.770   9.191
  146SBC   C07T 2401   7.745   8.783   9.112
  146SBC   C0FX 2402   7.870   8.738   9.149
  146SBC   C0FW 2403   7.986   8.760   9.082
  146SBC   C0G0 2404   7.976   8.815   8.954
  146SBC   C0G2 2405   8.090   8.830   8.871
  146SBC   H01E 2406   8.095   8.872   8.772
  146SBC   C0G3 2407   8.212   8.786   8.924
  146SBC   H01C 2408   8.304   8.789   8.869
  146SBC   C0G4 2409   8.224   8.732   9.052
  146SBC   H01D 2410   8.317   8.688   9.085
  146SBC   O00E 2411   7.850   8.867   8.910
  146SBC   C0FV 2412   8.111   8.715   9.140
  146SBC   C0FU 2413   8.108   8.659   9.270
  146SBC   H01B 2414   8.197   8.633   9.325
  146SBC   C0FT 2415   7.984   8.630   9.334
  146SBC   C0FS 2416   7.943   8.590   9.457
  146SBC   C0BI 2417   7.801   8.560   9.443
  146SBC   C0BH 2418   7.742   8.559   9.573
  146SBC   C07F 2419   7.636   8.641   9.612
  146SBC   C07E 2420   7.531   8.692   9.533
  146SBC   C07G 2421   7.525   8.712   9.398
  146SBC   C074 2422   7.407   8.785   9.364
  146SBC   C065 2423   7.424   8.764   9.583
  146SBC   C064 2424   7.438   8.794   9.725
  146SBC   C063 2425   7.348   8.867   9.798
  146SBC   C075 2426   7.409   8.885   9.928
  146SBC   C0AM 2427   7.539   8.821   9.937
  146SBC   C0AN 2428   7.639   8.820  10.048
  146SBC   C0AO 2429   7.636   8.892  10.182
  146SBC   C0B1 2430   7.741   8.870  10.282
  146SBC   C0B0 2431   7.843   8.782  10.257
  146SBC   C0AZ 2432   7.950   8.754  10.341
  146SBC   C0AY 2433   8.053   8.667  10.305
  146SBC   N007 2434   8.156   8.634  10.386
  146SBC   C0E2 2435   8.265   8.557  10.340
  146SBC   C0E1 2436   8.372   8.536  10.426
  146SBC   C0E4 2437   8.478   8.465  10.375
  146SBC   C0FF 2438   8.594   8.450  10.453
  146SBC   C0FJ 2439   8.728   8.399  10.414
  146SBC   C0FK 2440   8.792   8.417  10.285
  146SBC   H016 2441   8.747   8.444  10.190
  146SBC   C0FL 2442   8.938   8.431  10.311
  146SBC   H017 2443   9.012   8.470  10.242
  146SBC   C0FM 2444   8.959   8.407  10.451
  146SBC   C0FH 2445   9.045   8.438  10.563
  146SBC   C0FI 2446   8.950   8.453  10.672
  146SBC   C0F3 2447   8.971   8.555  10.767
  146SBC   C0F2 2448   8.853   8.601  10.818
  146SBC   C0DW 2449   8.727   8.579  10.777
  146SBC   C0FE 2450   8.707   8.496  10.673
  146SBC   C0DV 2451   8.617   8.657  10.813
  146SBC   C0DX 2452   8.497   8.658  10.741
  146SBC   C0DK 2453   8.392   8.735  10.787
  146SBC   C0DJ 2454   8.409   8.827  10.893
  146SBC   C0DI 2455   8.303   8.908  10.933
  146SBC   C0DH 2456   8.187   8.909  10.860
  146SBC   C0DG 2457   8.171   8.825  10.750
  146SBC   C0BV 2458   8.059   8.837  10.672
  146SBC   C0BC 2459   8.059   8.774  10.550
  146SBC   C0BA 2460   7.960   8.925  10.711
  146SBC   C0B4 2461   7.858   8.950  10.626
  146SBC   C0B3 2462   7.853   8.895  10.497
  146SBC   C0B5 2463   7.759   9.042  10.665
  146SBC   C0BU 2464   7.757   9.093  10.795
  146SBC   C0BT 2465   7.863   9.073  10.877
  146SBC   C0BS 2466   7.871   9.137  11.003
  146SBC   C0CC 2467   7.993   9.140  11.073
  146SBC   C0CB 2468   8.008   9.201  11.199
  146SBC   C0CH 2469   8.146   9.244  11.231
  146SBC   C0DO 2470   8.254   9.189  11.165
  146SBC   C0DP 2471   8.387   9.223  11.192
  146SBC   C0EA 2472   8.413   9.336  11.275
  146SBC   H012 2473   8.334   9.406  11.301
  146SBC   O009 2474   8.546   9.372  11.314
  146SBC   C0EH 2475   8.645   9.297  11.262
  146SBC   C0EG 2476   8.773   9.339  11.294
  146SBC   C0EJ 2477   8.828   9.450  11.368
  146SBC   H010 2478   8.766   9.521  11.419
  146SBC   C0EK 2479   8.974   9.449  11.364
  146SBC   H00Z 2480   9.048   9.511  11.414
  146SBC   C0EL 2481   8.998   9.331  11.287
  146SBC   C0EM 2482   9.124   9.276  11.240
  146SBC   C0EW 2483   9.255   9.313  11.274
  146SBC   H013 2484   9.262   9.393  11.346
  146SBC   C0EX 2485   9.376   9.252  11.216
  146SBC   H014 2486   9.471   9.285  11.255
  146SBC   C0F1 2487   9.355   9.144  11.121
  146SBC   C0EU 2488   9.221   9.096  11.102
  146SBC   C0ET 2489   9.174   8.991  11.016
  146SBC   C0ES 2490   9.032   8.996  11.035
  146SBC   C0EE 2491   8.993   9.102  11.115
  146SBC   C0ED 2492   8.868   9.147  11.168
  146SBC   C0EC 2493   8.734   9.098  11.140
  146SBC   C0EB 2494   8.701   8.978  11.072
  146SBC   C0EN 2495   8.807   8.888  11.022
  146SBC   C0ER 2496   8.764   8.775  10.958
  146SBC   C0DS 2497   8.565   8.951  11.035
  146SBC   C0DR 2498   8.462   9.032  11.073
  146SBC   C0EY 2499   8.951   8.891  11.007
  146SBC   C0EZ 2500   8.995   8.776  10.934
  146SBC   C0F5 2501   9.114   8.735  10.860
  146SBC   C0F6 2502   9.241   8.804  10.859
  146SBC   N008 2503   9.346   8.749  10.779
  146SBC   C0F7 2504   9.317   8.645  10.680
  146SBC   C0FQ 2505   9.419   8.615  10.589
  146SBC   H018 2506   9.391   8.546  10.510
  146SBC   C0FP 2507   9.545   8.679  10.586
  146SBC   H019 2508   9.620   8.642  10.518
  146SBC   C0FO 2509   9.571   8.778  10.680
  146SBC   H01A 2510   9.669   8.822  10.687
  146SBC   C0F8 2511   9.189   8.591  10.678
  146SBC   C0F9 2512   9.479   8.814  10.780
  146SBC   C0FA 2513   9.512   8.907  10.879
  146SBC   H015 2514   9.616   8.934  10.887
  146SBC   C0FB 2515   9.409   8.965  10.963
  146SBC   C0FD 2516   9.275   8.915  10.946
  146SBC   C0FC 2517   9.455   9.073  11.050
  146SBC   O00A 2518   9.576   9.111  11.051
  146SBC   C0EV 2519   9.109   9.166  11.157
  146SBC   C0EF 2520   8.875   9.263  11.248
  146SBC   C0EI 2521   8.627   9.177  11.186
  146SBC   C0DQ 2522   8.491   9.144  11.153
  146SBC   C0CE 2523   8.230   9.088  11.072
  146SBC   H00U 2524   8.164   9.306  11.317
  146SBC   C0CA 2525   7.888   9.220  11.277
  146SBC   C0C9 2526   7.758   9.223  11.208
  146SBC   C0C8 2527   7.642   9.243  11.282
  146SBC   C0C7 2528   7.510   9.292  11.243
  146SBC   C0C6 2529   7.411   9.285  11.346
  146SBC   C0C5 2530   7.283   9.354  11.387
  146SBC   C0CQ 2531   7.261   9.365  11.525
  146SBC   C0D1 2532   7.366   9.344  11.611
  146SBC   C0D8 2533   7.368   9.443  11.704
  146SBC   C0D7 2534   7.239   9.496  11.697
  146SBC   C0D6 2535   7.174   9.580  11.791
  146SBC   C0D5 2536   7.038   9.620  11.791
  146SBC   C0D4 2537   6.942   9.606  11.693
  146SBC   C0D3 2538   6.846   9.711  11.703
  146SBC   C0CX 2539   6.789   9.735  11.569
  146SBC   C0CW 2540   6.868   9.660  11.472
  146SBC   C0CV 2541   6.869   9.633  11.331
  146SBC   C0D2 2542   6.774   9.694  11.244
  146SBC   C09D 2543   6.658   9.776  11.284
  146SBC   C09C 2544   6.569   9.826  11.186
  146SBC   C09B 2545   6.443   9.895  11.212
  146SBC   C09A 2546   6.422   9.927  11.349
  146SBC   C099 2547   6.513   9.893  11.443
  146SBC   C098 2548   6.455   9.900  11.567
  146SBC   C08Y 2549   6.310   9.915  11.551
  146SBC   C08X 2550   6.200   9.882  11.649
  146SBC   C08W 2551   6.227   9.833  11.781
  146SBC   C08U 2552   6.353   9.776  11.830
  146SBC   C08V 2553   6.485   9.764  11.777
  146SBC   C0DC 2554   6.558   9.694  11.879
  146SBC   H00W 2555   6.660   9.664  11.860
  146SBC   C0DB 2556   6.483   9.671  11.993
  146SBC   H00X 2557   6.507   9.619  12.084
  146SBC   C08T 2558   6.358   9.735  11.962
  146SBC   C08S 2559   6.255   9.757  12.057
  146SBC   H00N 2560   6.269   9.729  12.161
  146SBC   C08R 2561   6.131   9.788  12.012
  146SBC   C08Q 2562   6.013   9.786  12.093
  146SBC   H00O 2563   6.027   9.768  12.199
  146SBC   C08P 2564   5.882   9.799  12.051
  146SBC   C08O 2565   5.769   9.779  12.138
  146SBC   H00P 2566   5.777   9.762  12.244
  146SBC   C08N 2567   5.640   9.783  12.082
  146SBC   C08M 2568   5.527   9.776  12.168
  146SBC   O008 2569   5.534   9.756  12.285
  146SBC   O007 2570   5.406   9.774  12.105
  146SBC   C08H 2571   5.390   9.780  11.969
  146SBC   C08G 2572   5.262   9.784  11.905
  146SBC   C03V 2573   5.136   9.774  11.964
  146SBC   H009 2574   5.140   9.762  12.071
  146SBC   C03U 2575   5.016   9.778  11.891
  146SBC   C03W 2576   4.886   9.755  11.950
  146SBC   H00A 2577   4.871   9.742  12.056
  146SBC   C03X 2578   4.772   9.743  11.875
  146SBC   H00B 2579   4.675   9.737  11.922
  146SBC   O005 2580   4.775   9.763  11.735
  146SBC   C03O 2581   4.901   9.787  11.681
  146SBC   C03N 2582   4.917   9.776  11.544
  146SBC   O000 2583   4.797   9.752  11.482
  146SBC   C019 2584   4.801   9.723  11.350
  146SBC   C018 2585   4.923   9.728  11.277
  146SBC   C017 2586   5.041   9.773  11.340
  146SBC   C016 2587   5.160   9.783  11.269
  146SBC   C015 2588   5.142   9.766  11.132
  146SBC   C014 2589   5.252   9.806  11.052
  146SBC   C013 2590   5.383   9.841  11.107
  146SBC   C012 2591   5.469   9.857  10.989
  146SBC   C011 2592   5.380   9.830  10.879
  146SBC   C010 2593   5.420   9.832  10.748
  146SBC   C00Z 2594   5.358   9.797  10.631
  146SBC   C00Y 2595   5.469   9.790  10.542
  146SBC   C01O 2596   5.588   9.829  10.596
  146SBC   C01P 2597   5.710   9.774  10.553
  146SBC   C02L 2598   5.817   9.781  10.638
  146SBC   C02K 2599   5.791   9.833  10.765
  146SBC   C01M 2600   5.662   9.850  10.827
  146SBC   C02J 2601   5.908   9.862  10.837
  146SBC   C02I 2602   5.918   9.910  10.969
  146SBC   C02H 2603   5.825   9.919  11.071
  146SBC   C01Q 2604   5.687   9.913  11.068
  146SBC   C02G 2605   5.641   9.924  11.205
  146SBC   C089 2606   5.752   9.970  11.284
  146SBC   C088 2607   5.741   9.938  11.418
  146SBC   C087 2608   5.600   9.880  11.419
  146SBC   C086 2609   5.534   9.841  11.538
  146SBC   C03S 2610   5.394   9.825  11.557
  146SBC   N006 2611   5.369   9.809  11.690
  146SBC   C08F 2612   5.484   9.810  11.754
  146SBC   C01J 2613   5.281   9.811  11.476
  146SBC   C03R 2614   5.159   9.797  11.547
  146SBC   C03Q 2615   5.144   9.797  11.688
  146SBC   C08E 2616   5.589   9.832  11.667
  146SBC   C08D 2617   5.724   9.843  11.717
  146SBC   C08K 2618   5.740   9.822  11.857
  146SBC   C08C 2619   5.840   9.878  11.642
  146SBC   C091 2620   5.964   9.868  11.701
  146SBC   C092 2621   5.983   9.840  11.836
  146SBC   C08B 2622   5.852   9.916  11.508
  146SBC   C090 2623   5.994   9.939  11.482
  146SBC   C094 2624   6.057   9.988  11.357
  146SBC   C095 2625   6.194   9.973  11.324
  146SBC   C09R 2626   6.217   9.958  11.189
  146SBC   C097 2627   6.091   9.954  11.127
  146SBC   C096 2628   5.998   9.968  11.228
  146SBC   C01I 2629   5.530   9.887  11.290
  146SBC   C08A 2630   5.862   9.955  11.198
  146SBC   C09L 2631   6.057   9.925  10.990
  146SBC   C09K 2632   6.133   9.884  10.875
  146SBC   C09J 2633   6.268   9.845  10.881
  146SBC   C09I 2634   6.346   9.774  10.782
  146SBC   C09O 2635   6.319   9.700  10.662
  146SBC   C09N 2636   6.188   9.704  10.601
  146SBC   C09M 2637   6.064   9.758  10.652
  146SBC   C06O 2638   6.187   9.638  10.475
  146SBC   C05M 2639   6.300   9.574  10.416
  146SBC   C06P 2640   6.425   9.579  10.482
  146SBC   C042 2641   6.294   9.504  10.294
  146SBC   C041 2642   6.175   9.492  10.230
  146SBC   C040 2643   6.169   9.420  10.111
  146SBC   C03Z 2644   6.047   9.392  10.044
  146SBC   C03Y 2645   5.929   9.444  10.104
  146SBC   C027 2646   5.807   9.421  10.043
  146SBC   C026 2647   5.694   9.470  10.099
  146SBC   C028 2648   5.572   9.428  10.042
  146SBC   C029 2649   5.570   9.334   9.943
  146SBC   C02B 2650   5.446   9.278   9.903
  146SBC   C02C 2651   5.440   9.190   9.801
  146SBC   C02X 2652   5.322   9.130   9.769
  146SBC   C03E 2653   5.322   9.023   9.689
  146SBC   C03G 2654   5.425   8.971   9.624
  146SBC   C04Q 2655   5.546   9.031   9.654
  146SBC   C04R 2656   5.664   8.982   9.600
  146SBC   C04S 2657   5.786   9.038   9.630
  146SBC   C04L 2658   5.791   9.144   9.724
  146SBC   C04M 2659   5.675   9.194   9.781
  146SBC   C04K 2660   5.910   9.186   9.776
  146SBC   C04F 2661   6.026   9.132   9.722
  146SBC   C04E 2662   6.020   9.033   9.618
  146SBC   C04D 2663   6.130   8.976   9.565
  146SBC   C050 2664   6.127   8.888   9.460
  146SBC   C051 2665   6.245   8.837   9.409
  146SBC   C05Q 2666   6.240   8.753   9.299
  146SBC   C05V 2667   6.360   8.706   9.245
  146SBC   N005 2668   6.352   8.627   9.128
  146SBC   C07V 2669   6.232   8.590   9.075
  146SBC   C082 2670   6.222   8.493   8.971
  146SBC   C081 2671   6.339   8.448   8.911
  146SBC   C07C 2672   6.462   8.493   8.951
  146SBC   C07B 2673   6.579   8.455   8.881
  146SBC   C080 2674   6.574   8.366   8.769
  146SBC   C07Z 2675   6.699   8.332   8.714
  146SBC   H00L 2676   6.698   8.260   8.634
  146SBC   C079 2677   6.827   8.372   8.751
  146SBC   C078 2678   6.826   8.456   8.866
  146SBC   C077 2679   6.946   8.499   8.918
  146SBC   C07X 2680   7.067   8.457   8.862
  146SBC   H00I 2681   7.166   8.486   8.894
  146SBC   C07Y 2682   7.065   8.370   8.749
  146SBC   H00H 2683   7.163   8.342   8.713
  146SBC   C076 2684   6.951   8.591   9.022
  146SBC   C06C 2685   7.066   8.663   9.052
  146SBC   H00C 2686   7.153   8.668   8.988
  146SBC   C06F 2687   6.832   8.625   9.089
  146SBC   C06E 2688   6.830   8.702   9.207
  146SBC   C06G 2689   6.724   8.746   9.275
  146SBC   C06H 2690   6.599   8.711   9.220
  146SBC   C06I 2691   6.591   8.629   9.110
  146SBC   C06L 2692   6.735   8.832   9.385
  146SBC   C06M 2693   6.863   8.867   9.449
  146SBC   C06K 2694   6.613   8.885   9.442
  146SBC   C05S 2695   6.489   8.841   9.391
  146SBC   C05U 2696   6.619   8.961   9.563
  146SBC   C05X 2697   6.742   8.989   9.629
  146SBC   C05G 2698   6.724   9.088   9.735
  146SBC   C05F 2699   6.606   9.141   9.764
  146SBC   C05E 2700   6.617   9.217   9.883
  146SBC   C048 2701   6.505   9.275   9.936
  146SBC   C056 2702   6.518   9.335  10.057
  146SBC   C045 2703   6.404   9.390  10.115
  146SBC   C047 2704   6.387   9.241   9.876
  146SBC   C049 2705   6.377   9.155   9.769
  146SBC   C04B 2706   6.260   9.109   9.721
  146SBC   C046 2707   6.276   9.289   9.933
  146SBC   C04H 2708   6.152   9.250   9.883
  146SBC   C05D 2709   6.742   9.216   9.933
  146SBC   C04A 2710   6.489   9.102   9.709
  146SBC   C05T 2711   6.494   9.013   9.610
  146SBC   C055 2712   6.369   8.969   9.559
  146SBC   C06D 2713   6.951   8.749   9.252
  146SBC   C07W 2714   6.709   8.581   9.044
  146SBC   C085 2715   6.947   8.316   8.704
  146SBC   H00M 2716   6.951   8.238   8.629
  146SBC   C084 2717   6.444   8.327   8.726
  146SBC   H00J 2718   6.424   8.272   8.635
  146SBC   C07A 2719   6.703   8.503   8.926
  146SBC   C083 2720   6.335   8.364   8.798
  146SBC   H00K 2721   6.236   8.337   8.763
  146SBC   O00K 2722   6.097   8.440   8.925
  146SBC   C0GO 2723   5.988   8.481   8.991
  146SBC   C0GN 2724   5.866   8.429   8.956
  146SBC   H01L 2725   5.855   8.350   8.883
  146SBC   C0GM 2726   5.745   8.466   9.029
  146SBC   C0GL 2727   5.628   8.415   8.984
  146SBC   H01M 2728   5.631   8.357   8.894
  146SBC   O00J 2729   5.508   8.450   9.041
  146SBC   C0GK 2730   5.519   8.544   9.141
  146SBC   H01N 2731   5.426   8.583   9.179
  146SBC   C05K 2732   5.635   8.588   9.191
  146SBC   C05J 2733   5.631   8.677   9.304
  146SBC   C04Y 2734   5.516   8.719   9.384
  146SBC   C04X 2735   5.529   8.815   9.486
  146SBC   O006 2736   5.397   8.655   9.368
  146SBC   C053 2737   5.281   8.692   9.423
  146SBC   C04O 2738   5.285   8.807   9.507
  146SBC   C03C 2739   5.178   8.869   9.580
  146SBC   C03B 2740   5.037   8.836   9.594
  146SBC   C054 2741   4.981   8.721   9.551
  146SBC   C0GR 2742   4.840   8.695   9.571
  146SBC   C03M 2743   4.728   8.741   9.661
  146SBC   C03I 2744   4.736   8.854   9.751
  146SBC   C03J 2745   4.626   8.883   9.833
  146SBC   N002 2746   4.626   9.000   9.920
  146SBC   C02U 2747   4.518   9.030  10.006
  146SBC   C02T 2748   4.523   9.129  10.100
  146SBC   C02Z 2749   4.416   9.151  10.183
  146SBC   N001 2750   4.430   9.248  10.291
  146SBC   C02R 2751   4.309   9.270  10.368
  146SBC   C032 2752   4.194   9.190  10.353
  146SBC   C031 2753   4.197   9.092  10.256
  146SBC   H007 2754   4.114   9.024  10.262
  146SBC   C033 2755   4.088   9.210  10.450
  146SBC   H003 2756   3.991   9.167  10.425
  146SBC   O004 2757   4.087   9.308  10.543
  146SBC   C034 2758   4.202   9.383  10.549
  146SBC   C035 2759   4.208   9.479  10.646
  146SBC   C036 2760   4.322   9.560  10.665
  146SBC   H005 2761   4.322   9.633  10.744
  146SBC   C037 2762   4.439   9.541  10.592
  146SBC   H006 2763   4.526   9.601  10.616
  146SBC   C00D 2764   4.438   9.437  10.499
  146SBC   C00C 2765   4.554   9.412  10.425
  146SBC   C00B 2766   4.689   9.468  10.447
  146SBC   C00A 2767   4.768   9.558  10.535
  146SBC   C009 2768   4.879   9.603  10.461
  146SBC   C008 2769   5.005   9.645  10.510
  146SBC   C007 2770   5.013   9.677  10.647
  146SBC   C006 2771   5.130   9.729  10.699
  146SBC   C005 2772   5.132   9.751  10.841
  146SBC   C004 2773   5.024   9.717  10.924
  146SBC   C003 2774   4.911   9.648  10.872
  146SBC   C002 2775   4.802   9.610  10.951
  146SBC   C01C 2776   4.801   9.654  11.086
  146SBC   C01B 2777   4.682   9.652  11.162
  146SBC   H000 2778   4.584   9.625  11.126
  146SBC   C001 2779   4.704   9.528  10.900
  146SBC   C000 2780   4.720   9.491  10.766
  146SBC   C01U 2781   4.625   9.382  10.752
  146SBC   H002 2782   4.601   9.321  10.666
  146SBC   C01T 2783   4.542   9.380  10.874
  146SBC   O002 2784   4.456   9.304  10.908
  146SBC   O001 2785   4.602   9.464  10.962
  146SBC   C01S 2786   4.908   9.631  10.734
  146SBC   C00N 2787   5.115   9.637  10.429
  146SBC   C00M 2788   5.106   9.573  10.303
  146SBC   C00J 2789   4.987   9.524  10.260
  146SBC   C00I 2790   4.978   9.431  10.155
  146SBC   C00H 2791   4.863   9.358  10.136
  146SBC   C00G 2792   4.758   9.365  10.223
  146SBC   C00F 2793   4.642   9.297  10.216
  146SBC   C01X 2794   4.855   9.256  10.043
  146SBC   C01W 2795   4.972   9.228   9.970
  146SBC   C01V 2796   5.086   9.300   9.993
  146SBC   C020 2797   5.208   9.262   9.934
  146SBC   C01Z 2798   4.968   9.127   9.878
  146SBC   C02Y 2799   5.082   9.109   9.811
  146SBC   C039 2800   5.079   9.017   9.712
  146SBC   C02W 2801   4.854   9.051   9.851
  146SBC   C01Y 2802   4.743   9.182  10.029
  146SBC   C00U 2803   5.092   9.402  10.087
  146SBC   C00S 2804   5.211   9.456  10.125
  146SBC   C00T 2805   5.328   9.415  10.066
  146SBC   C00R 2806   5.221   9.537  10.234
  146SBC   C00Q 2807   5.344   9.590  10.277
  146SBC   C00V 2808   5.459   9.550  10.215
  146SBC   C024 2809   5.579   9.592  10.261
  146SBC   C00X 2810   5.587   9.673  10.376
  146SBC   C00P 2811   5.346   9.664  10.393
  146SBC   C00O 2812   5.233   9.683  10.476
  146SBC   C00K 2813   4.876   9.544  10.333
  146SBC   N000 2814   4.801   9.552  10.673
  146SBC   C00L 2815   4.767   9.461  10.327
  146SBC   H004 2816   4.118   9.480  10.706
  146SBC   C02Q 2817   4.319   9.362  10.474
  146SBC   C00E 2818   4.546   9.322  10.312
  146SBC   C030 2819   4.300   9.081  10.163
  146SBC   O003 2820   4.287   8.981  10.073
  146SBC   C02S 2821   4.637   9.203  10.118
  146SBC   C038 2822   4.396   8.957   9.994
  146SBC   C03L 2823   4.391   8.846   9.905
  146SBC   H008 2824   4.297   8.793   9.899
  146SBC   C02V 2825   4.741   9.086   9.927
  146SBC   C03K 2826   4.505   8.815   9.824
  146SBC   C0BK 2827   4.502   8.710   9.726
  146SBC   H00T 2828   4.412   8.652   9.717
  146SBC   C03H 2829   4.851   8.942   9.764
  146SBC   C0BL 2830   4.607   8.668   9.644
  146SBC   C0GU 2831   4.591   8.568   9.549
  146SBC   H01O 2832   4.494   8.523   9.529
  146SBC   C0GT 2833   4.693   8.521   9.472
  146SBC   H01P 2834   4.700   8.432   9.411
  146SBC   C0GS 2835   4.812   8.588   9.479
  146SBC   C0GV 2836   4.932   8.549   9.409
  146SBC   C0GW 2837   4.944   8.455   9.298
  146SBC   H01Q 2838   4.865   8.401   9.248
  146SBC   C0GX 2839   5.071   8.436   9.259
  146SBC   H01R 2840   5.093   8.363   9.183
  146SBC   O00L 2841   5.184   8.509   9.305
  146SBC   C0GQ 2842   5.035   8.635   9.455
  146SBC   C03A 2843   4.975   8.924   9.690
  146SBC   C05L 2844   5.166   8.608   9.397
  146SBC   C04W 2845   5.755   8.734   9.336
  146SBC   C05I 2846   5.873   8.701   9.270
  146SBC   C05O 2847   5.877   8.611   9.168
  146SBC   C052 2848   5.998   8.758   9.312
  146SBC   C04V 2849   5.762   8.839   9.428
  146SBC   C04U 2850   5.885   8.888   9.471
  146SBC   N009 2851   5.753   8.553   9.133
  146SBC   C0GP 2852   5.992   8.573   9.102
  146SBC   C05W 2853   6.116   8.626   9.142
  146SBC   C07D 2854   6.466   8.588   9.058
  146SBC   C06J 2855   6.483   8.752   9.283
  146SBC   C05P 2856   6.116   8.713   9.253
  146SBC   C05R 2857   6.369   8.883   9.453
  146SBC   C04Z 2858   6.005   8.846   9.413
  146SBC   C04C 2859   6.255   9.019   9.614
  146SBC   C04G 2860   6.146   9.162   9.777
  146SBC   C04J 2861   5.917   9.282   9.875
  146SBC   C04T 2862   5.894   8.989   9.571
  146SBC   N003 2863   5.653   8.878   9.504
  146SBC   C04P 2864   5.414   8.859   9.548
  146SBC   C03D 2865   5.198   8.974   9.661
  146SBC   C021 2866   5.205   9.166   9.834
  146SBC   C03F 2867   5.552   9.138   9.751
  146SBC   C022 2868   5.330   9.319   9.968
  146SBC   C02A 2869   5.685   9.294   9.879
  146SBC   C023 2870   5.452   9.466  10.107
  146SBC   C025 2871   5.699   9.547  10.209
  146SBC   C02D 2872   5.825   9.586  10.267
  146SBC   C02E 2873   5.831   9.654  10.387
  146SBC   C02N 2874   5.950   9.676  10.452
  146SBC   C04N 2875   5.806   9.337   9.930
  146SBC   C02P 2876   5.942   9.532  10.211
  146SBC   C04I 2877   6.039   9.308   9.935
  146SBC   C044 2878   6.280   9.365  10.051
  146SBC   C043 2879   6.061   9.552  10.277
  146SBC   C05N 2880   6.067   9.624  10.400
  146SBC   C09U 2881   6.437   9.646  10.606
  146SBC   C09V 2882   6.559   9.634  10.672
  146SBC   C09X 2883   6.575   9.681  10.799
  146SBC   C09Y 2884   6.681   9.661  10.884
  146SBC   C0A1 2885   6.782   9.586  10.833
  146SBC   C0A2 2886   6.787   9.548  10.700
  146SBC   C0A4 2887   6.897   9.480  10.651
  146SBC   C071 2888   6.890   9.437  10.517
  146SBC   C0A5 2889   6.999   9.366  10.472
  146SBC   C0A9 2890   7.119   9.353  10.544
  146SBC   C0A8 2891   7.117   9.400  10.671
  146SBC   C0AP 2892   7.234   9.389  10.747
  146SBC   C0BY 2893   7.231   9.430  10.880
  146SBC   C0BX 2894   7.116   9.468  10.944
  146SBC   C0C2 2895   7.108   9.489  11.085
  146SBC   C0C3 2896   6.992   9.547  11.136
  146SBC   C0CT 2897   6.891   9.587  11.051
  146SBC   C0C1 2898   7.212   9.441  11.168
  146SBC   C0C0 2899   7.338   9.399  11.097
  146SBC   C0A7 2900   7.002   9.491  10.865
  146SBC   C0BZ 2901   7.336   9.392  10.958
  146SBC   C0BO 2902   7.457   9.348  10.899
  146SBC   C0BN 2903   7.448   9.288  10.777
  146SBC   C0BM 2904   7.553   9.202  10.747
  146SBC   C0B9 2905   7.558   9.162  10.615
  146SBC   C0B8 2906   7.453   9.186  10.529
  146SBC   C0AD 2907   7.342   9.258  10.574
  146SBC   C0AF 2908   7.442   9.123  10.409
  146SBC   C0AG 2909   7.541   9.037  10.361
  146SBC   C0B7 2910   7.648   9.015  10.450
  146SBC   C0AE 2911   7.332   9.153  10.332
  146SBC   C0AB 2912   7.219   9.226  10.374
  146SBC   C0AA 2913   7.103   9.232  10.302
  146SBC   C0AJ 2914   7.326   9.091  10.212
  146SBC   C0AK 2915   7.215   9.109  10.133
  146SBC   C06W 2916   7.230   9.026  10.023
  146SBC   C0AI 2917   7.416   9.001  10.156
  146SBC   C0BP 2918   7.536   9.300  11.005
  146SBC   C0BQ 2919   7.655   9.222  10.973
  146SBC   C0BW 2920   7.338   9.312  10.698
  146SBC   C0AC 2921   7.231   9.283  10.495
  146SBC   C0A6 2922   7.007   9.459  10.728
  146SBC   C0A3 2923   6.889   9.555  10.913
  146SBC   C09Z 2924   6.688   9.700  11.014
  146SBC   C09W 2925   6.671   9.565  10.617
  146SBC   C072 2926   6.663   9.507  10.497
  146SBC   C09H 2927   6.472   9.758  10.847
  146SBC   C09G 2928   6.482   9.810  10.970
  146SBC   C09P 2929   6.353   9.862  10.994
  146SBC   C02O 2930   6.040   9.831  10.781
  146SBC   C02M 2931   5.942   9.740  10.580
  146SBC   C02F 2932   5.707   9.704  10.434
  146SBC   C00W 2933   5.463   9.711  10.431
  146SBC   C01R 2934   5.231   9.738  10.605
  146SBC   C01N 2935   5.558   9.839  10.730
  146SBC   C01L 2936   5.612   9.881  10.959
  146SBC   C01H 2937   5.399   9.847  11.250
  146SBC   C01K 2938   5.248   9.798  10.914
  146SBC   C01E 2939   5.028   9.732  11.062
  146SBC   C01G 2940   5.282   9.818  11.332
  146SBC   C01D 2941   4.914   9.703  11.141
  146SBC   C01A 2942   4.678   9.693  11.294
  146SBC   H001 2943   4.585   9.693  11.348
  146SBC   C01F 2944   5.042   9.782  11.477
  146SBC   C03P 2945   5.022   9.787  11.753
  146SBC   C03T 2946   5.256   9.800  11.765
  146SBC   C08I 2947   5.505   9.796  11.888
  146SBC   C08J 2948   5.627   9.801  11.946
  146SBC   C08L 2949   5.871   9.820  11.916
  146SBC   C093 2950   6.118   9.823  11.876
  146SBC   C08Z 2951   6.065   9.902  11.611
  146SBC   C09T 2952   6.543   9.816  11.653
  146SBC   C09S 2953   6.301   9.951  11.411
  146SBC   C09Q 2954   6.337   9.914  11.125
  146SBC   C09F 2955   6.588   9.780  11.060
  146SBC   C09E 2956   6.618   9.809  11.419
  146SBC   C0A0 2957   6.787   9.664  11.105
  146SBC   C0CU 2958   6.976   9.559  11.277
  146SBC   C0CR 2959   7.077   9.499  11.364
  146SBC   C0CZ 2960   7.069   9.511  11.501
  146SBC   C0DA 2961   6.656   9.779  11.555
  146SBC   C0D9 2962   6.905   9.804  11.801
  146SBC   H00V 2963   6.870   9.906  11.808
  146SBC   C0CY 2964   6.966   9.591  11.552
  146SBC   C0DF 2965   7.021   9.742  11.855
  146SBC   C0DE 2966   7.151   9.770  11.909
  146SBC   C0GI 2967   7.200   9.875  11.988
  146SBC   H01K 2968   7.136   9.960  12.007
  146SBC   C0GJ 2969   7.326   9.866  12.037
  146SBC   H01J 2970   7.350   9.943  12.109
  146SBC   O00I 2971   7.419   9.767  12.003
  146SBC   C0GH 2972   7.378   9.670  11.919
  146SBC   C0GG 2973   7.489   9.587  11.873
  146SBC   O00G 2974   7.608   9.614  11.927
  146SBC   C0G8 2975   7.717   9.532  11.908
  146SBC   C0G9 2976   7.812   9.532  12.006
  146SBC   H01G 2977   7.796   9.598  12.090
  146SBC   C0GA 2978   7.930   9.456  11.995
  146SBC   H01H 2979   7.997   9.460  12.079
  146SBC   C0GB 2980   7.960   9.383  11.880
  146SBC   C0EP 2981   7.861   9.386  11.778
  146SBC   C0E8 2982   7.898   9.340  11.641
  146SBC   C0CK 2983   7.832   9.323  11.518
  146SBC   C0CL 2984   7.697   9.294  11.515
  146SBC   C0E9 2985   7.600   9.343  11.614
  146SBC   C0GE 2986   7.609   9.432  11.725
  146SBC   C0E7 2987   8.020   9.270  11.628
  146SBC   C0CJ 2988   8.028   9.195  11.504
  146SBC   C0E6 2989   8.128   9.099  11.486
  146SBC   H00Y 2990   8.145   9.044  11.395
  146SBC   C0EO 2991   8.221   9.094  11.593
  146SBC   H011 2992   8.304   9.026  11.583
  146SBC   C0G6 2993   8.219   9.178  11.710
  146SBC   C0G5 2994   8.320   9.172  11.819
  146SBC   H01F 2995   8.413   9.118  11.822
  146SBC   C0GD 2996   8.288   9.230  11.935
  146SBC   H01I 2997   8.360   9.215  12.014
  146SBC   O00H 2998   8.170   9.296  11.963
  146SBC   C0EQ 2999   8.103   9.254  11.735
  146SBC   C0GC 3000   8.080   9.309  11.860
  146SBC   C0G7 3001   7.731   9.449  11.796
  146SBC   C0DD 3002   7.243   9.664  11.875
  146SBC   C0GF 3003   7.486   9.488  11.771
  146SBC   C0CO 3004   7.477   9.290  11.569
  146SBC   C0D0 3005   7.184   9.470  11.569
  146SBC   C0C4 3006   7.194   9.430  11.304
  146SBC   C0CN 3007   7.488   9.214  11.451
  146SBC   C0CP 3008   7.474   9.349  11.124
  146SBC   C0CM 3009   7.631   9.212  11.419
  146SBC   C0CI 3010   7.916   9.246  11.422
  146SBC   C0CD 3011   8.101   9.070  11.018
  146SBC   C0BR 3012   7.759   9.194  11.063
  146SBC   C0CS 3013   7.654   9.175  10.838
  146SBC   C0B6 3014   7.653   9.070  10.579
  146SBC   C0CG 3015   7.967   8.993  10.830
  146SBC   C0CF 3016   8.085   8.987  10.906
  146SBC   C0E5 3017   8.332   9.007  11.029
  146SBC   C0DT 3018   8.537   8.845  10.950
  146SBC   C0DL 3019   8.274   8.739  10.715
  146SBC   C0DM 3020   8.267   8.669  10.594
  146SBC   C0DY 3021   8.485   8.580  10.630
  146SBC   C0DU 3022   8.632   8.747  10.919
  146SBC   C0F0 3023   8.872   8.708  10.905
  146SBC   C0F4 3024   9.092   8.627  10.776
  146SBC   C0FG 3025   8.819   8.421  10.629
  146SBC   O00B 3026   9.163   8.505  10.572
  146SBC   C0FN 3027   8.831   8.370  10.503
  146SBC   C0DZ 3028   8.600   8.504  10.584
  146SBC   O00C 3029   8.479   8.404  10.250
  146SBC   C0FR 3030   8.369   8.411  10.169
  146SBC   O00D 3031   8.375   8.352  10.061
  146SBC   C0E0 3032   8.371   8.587  10.554
  146SBC   C0E3 3033   8.262   8.498  10.210
  146SBC   C0AW 3034   8.155   8.534  10.123
  146SBC   C0AV 3035   8.142   8.487   9.987
  146SBC   H00Q 3036   8.213   8.425   9.934
  146SBC   C0AU 3037   8.028   8.517   9.917
  146SBC   H00R 3038   8.013   8.471   9.820
  146SBC   C0AT 3039   7.938   8.608   9.966
  146SBC   C0AS 3040   7.822   8.665   9.921
  146SBC   C0AR 3041   7.784   8.657   9.780
  146SBC   C0BE 3042   7.950   8.653  10.095
  146SBC   C0DN 3043   8.165   8.694  10.511
  146SBC   C0AX 3044   8.055   8.609  10.179
  146SBC   C0BB 3045   7.952   8.806  10.463
  146SBC   C0BD 3046   7.844   8.730  10.133
  146SBC   C0B2 3047   7.747   8.924  10.413
  146SBC   C0AH 3048   7.537   8.980  10.231
  146SBC   C0BF 3049   7.754   8.743  10.028
  146SBC   C0AL 3050   7.358   8.964  10.031
  146SBC   C07U 3051   7.552   8.765   9.805
  146SBC   C0AQ 3052   7.656   8.696   9.741
  146SBC   C0BG 3053   7.843   8.576   9.670
  146SBC   C0FY 3054   7.755   8.636   9.336
  146SBC   C0BJ 3055   7.969   8.611   9.603
  146SBC   H00S 3056   8.055   8.660   9.647
  146SBC   C0FZ 3057   7.872   8.668   9.268
  146SBC   C07S 3058   7.635   8.699   9.308
  146SBC   C0G1 3059   7.744   8.856   8.994
  146SBC   C07K 3060   7.389   8.944   8.968
  146SBC   C07H 3061   7.389   8.835   9.233
  146SBC   C06B 3062   7.065   8.737   9.174
  146SBC   C06N 3063   6.968   8.823   9.362
  146SBC   C066 3064   7.331   8.812   9.482
  146SBC   C062 3065   7.204   8.890   9.756
  146SBC   C05Y 3066   6.860   8.925   9.576
  146SBC   C061 3067   7.100   8.915   9.850
  146SBC   C05H 3068   6.809   9.138   9.837
  146SBC   C06V 3069   7.121   9.013   9.949
  146SBC   C06Y 3070   7.099   9.177  10.174
  146SBC   C05C 3071   6.755   9.273  10.066
  146SBC   C06Z 3072   6.992   9.300  10.348
  146SBC   C070 3073   6.771   9.441  10.445
  146SBC   C05B 3074   6.643   9.339  10.119
  146SBC   C057 3075   6.410   9.452  10.232
  146SBC   C059 3076   6.540   9.514  10.426
  147SBC   C058 3077   6.194  10.777   9.575
  147SBC   C05A 3078   6.083  10.725   9.516
  147SBC   C06Q 3079   5.958  10.750   9.574
  147SBC   C06R 3080   5.841  10.706   9.508
  147SBC   C06S 3081   5.844  10.622   9.388
  147SBC   C06T 3082   5.722  10.573   9.342
  147SBC   C06U 3083   5.693  10.482   9.226
  147SBC   C06X 3084   5.778  10.417   9.136
  147SBC   C060 3085   5.707  10.326   9.049
  147SBC   C05Z 3086   5.711  10.311   8.907
  147SBC   C068 3087   5.565  10.272   8.879
  147SBC   C067 3088   5.511  10.196   8.768
  147SBC   C069 3089   5.598  10.170   8.649
  147SBC   C06A 3090   5.577  10.074   8.546
  147SBC   C073 3091   5.510   9.949   8.542
  147SBC   C07P 3092   5.578   9.846   8.471
  147SBC   C07O 3093   5.715   9.847   8.417
  147SBC   H00D 3094   5.777   9.935   8.424
  147SBC   C07N 3095   5.768   9.749   8.336
  147SBC   H00E 3096   5.865   9.756   8.289
  147SBC   C07M 3097   5.684   9.646   8.303
  147SBC   H00F 3098   5.725   9.575   8.234
  147SBC   C07L 3099   5.562   9.623   8.365
  147SBC   C07Q 3100   5.493   9.497   8.368
  147SBC   H00G 3101   5.531   9.407   8.323
  147SBC   O00F 3102   5.366   9.487   8.432
  147SBC   C07J 3103   5.312   9.590   8.500
  147SBC   C07I 3104   5.380   9.714   8.504
  147SBC   N004 3105   5.314   9.819   8.571
  147SBC   C07R 3106   5.172   9.803   8.603
  147SBC   C07T 3107   5.122   9.677   8.605
  147SBC   C0FX 3108   4.993   9.651   8.654
  147SBC   C0FW 3109   4.938   9.528   8.676
  147SBC   C0G0 3110   5.017   9.419   8.631
  147SBC   C0G2 3111   4.961   9.290   8.647
  147SBC   H01E 3112   5.020   9.205   8.617
  147SBC   C0G3 3113   4.847   9.274   8.715
  147SBC   H01C 3114   4.812   9.172   8.721
  147SBC   C0G4 3115   4.773   9.382   8.766
  147SBC   H01D 3116   4.677   9.368   8.814
  147SBC   O00E 3117   5.143   9.434   8.573
  147SBC   C0FV 3118   4.818   9.516   8.750
  147SBC   C0FU 3119   4.761   9.632   8.805
  147SBC   H01B 3120   4.684   9.620   8.879
  147SBC   C0FT 3121   4.805   9.760   8.763
  147SBC   C0FS 3122   4.779   9.900   8.794
  147SBC   C0BI 3123   4.866   9.981   8.710
  147SBC   C0BH 3124   4.891  10.104   8.776
  147SBC   C07F 3125   5.013  10.150   8.827
  147SBC   C07E 3126   5.139  10.131   8.777
  147SBC   C07G 3127   5.176  10.026   8.699
  147SBC   C074 3128   5.314  10.035   8.681
  147SBC   C065 3129   5.255  10.184   8.833
  147SBC   C064 3130   5.234  10.265   8.945
  147SBC   C063 3131   5.327  10.323   9.029
  147SBC   C075 3132   5.256  10.374   9.146
  147SBC   C0AM 3133   5.116  10.368   9.124
  147SBC   C0AN 3134   5.003  10.429   9.204
  147SBC   C0AO 3135   5.008  10.526   9.321
  147SBC   C0B1 3136   4.888  10.572   9.386
  147SBC   C0B0 3137   4.763  10.522   9.348
  147SBC   C0AZ 3138   4.641  10.565   9.401
  147SBC   C0AY 3139   4.521  10.511   9.348
  147SBC   N007 3140   4.396  10.557   9.393
  147SBC   C0E2 3141   4.275  10.509   9.334
  147SBC   C0E1 3142   4.159  10.557   9.389
  147SBC   C0E4 3143   4.038  10.498   9.336
  147SBC   C0FF 3144   3.913  10.544   9.375
  147SBC   C0FJ 3145   3.776  10.496   9.336
  147SBC   C0FK 3146   3.752  10.356   9.308
  147SBC   H016 3147   3.824  10.292   9.260
  147SBC   C0FL 3148   3.618  10.329   9.366
  147SBC   H017 3149   3.558  10.239   9.372
  147SBC   C0FM 3150   3.572  10.451   9.430
  147SBC   C0FH 3151   3.479  10.517   9.532
  147SBC   C0FI 3152   3.559  10.626   9.566
  147SBC   C0F3 3153   3.560  10.692   9.689
  147SBC   C0F2 3154   3.672  10.770   9.715
  147SBC   C0DW 3155   3.790  10.772   9.643
  147SBC   C0FE 3156   3.797  10.696   9.528
  147SBC   C0DV 3157   3.909  10.815   9.697
  147SBC   C0DX 3158   4.028  10.788   9.635
  147SBC   C0DK 3159   4.148  10.823   9.701
  147SBC   C0DJ 3160   4.149  10.879   9.830
  147SBC   C0DI 3161   4.269  10.901   9.900
  147SBC   C0DH 3162   4.388  10.887   9.836
  147SBC   C0DG 3163   4.389  10.822   9.714
  147SBC   C0BV 3164   4.509  10.789   9.658
  147SBC   C0BC 3165   4.510  10.703   9.550
  147SBC   C0BA 3166   4.628  10.837   9.715
  147SBC   C0B4 3167   4.751  10.795   9.661
  147SBC   C0B3 3168   4.757  10.702   9.554
  147SBC   C0B5 3169   4.866  10.851   9.712
  147SBC   C0BU 3170   4.865  10.936   9.826
  147SBC   C0BT 3171   4.745  10.966   9.886
  147SBC   C0BS 3172   4.737  11.037  10.008
  147SBC   C0CC 3173   4.616  11.051  10.074
  147SBC   C0CB 3174   4.610  11.105  10.200
  147SBC   C0CH 3175   4.501  11.064  10.274
  147SBC   C0DO 3176   4.380  11.015  10.225
  147SBC   C0DP 3177   4.259  11.009  10.299
  147SBC   C0EA 3178   4.262  11.042  10.444
  147SBC   H012 3179   4.350  11.066  10.502
  147SBC   O009 3180   4.148  11.058  10.513
  147SBC   C0EH 3181   4.033  11.043  10.443
  147SBC   C0EG 3182   3.922  11.041  10.524
  147SBC   C0EJ 3183   3.890  11.076  10.663
  147SBC   H010 3184   3.956  11.130  10.730
  147SBC   C0EK 3185   3.756  11.024  10.704
  147SBC   H00Z 3186   3.700  11.031  10.796
  147SBC   C0EL 3187   3.717  10.967  10.581
  147SBC   C0EM 3188   3.591  10.906  10.545
  147SBC   C0EW 3189   3.479  10.887  10.631
  147SBC   H013 3190   3.496  10.912  10.735
  147SBC   C0EX 3191   3.351  10.827  10.584
  147SBC   H014 3192   3.275  10.806  10.657
  147SBC   C0F1 3193   3.341  10.791  10.445
  147SBC   C0EU 3194   3.455  10.809  10.363
  147SBC   C0ET 3195   3.473  10.769  10.232
  147SBC   C0ES 3196   3.600  10.814  10.199
  147SBC   C0EE 3197   3.663  10.871  10.305
  147SBC   C0ED 3198   3.785  10.932  10.340
  147SBC   C0EC 3199   3.893  10.951  10.249
  147SBC   C0EB 3200   3.899  10.921  10.108
  147SBC   C0EN 3201   3.777  10.880  10.039
  147SBC   C0ER 3202   3.787  10.873   9.897
  147SBC   C0DS 3203   4.018  10.921  10.036
  147SBC   C0DR 3204   4.139  10.940  10.101
  147SBC   C0EY 3205   3.643  10.837  10.070
  147SBC   C0EZ 3206   3.578  10.792   9.949
  147SBC   C0F5 3207   3.463  10.704   9.920
  147SBC   C0F6 3208   3.371  10.664  10.023
  147SBC   N008 3209   3.272  10.567   9.975
  147SBC   C0F7 3210   3.282  10.498   9.843
  147SBC   C0FQ 3211   3.180  10.406   9.812
  147SBC   H018 3212   3.174  10.375   9.709
  147SBC   C0FP 3213   3.078  10.374   9.901
  147SBC   H019 3214   3.001  10.305   9.870
  147SBC   C0FO 3215   3.078  10.434  10.023
  147SBC   H01A 3216   2.993  10.408  10.085
  147SBC   C0F8 3217   3.383  10.541   9.755
  147SBC   C0F9 3218   3.172  10.527  10.066
  147SBC   C0FA 3219   3.154  10.585  10.189
  147SBC   H015 3220   3.077  10.549  10.256
  147SBC   C0FB 3221   3.250  10.683  10.241
  147SBC   C0FD 3222   3.364  10.703  10.159
  147SBC   C0FC 3223   3.229  10.727  10.383
  147SBC   O00A 3224   3.125  10.693  10.448
  147SBC   C0EV 3225   3.571  10.861  10.412
  147SBC   C0EF 3226   3.810  10.979  10.476
  147SBC   C0EI 3227   4.018  10.992  10.308
  147SBC   C0DQ 3228   4.137  10.980  10.238
  147SBC   C0CE 3229   4.380  10.981  10.096
  147SBC   H00U 3230   4.500  11.080  10.380
  147SBC   C0CA 3231   4.711  11.189  10.249
  147SBC   C0C9 3232   4.843  11.184  10.185
  147SBC   C0C8 3233   4.939  11.289  10.225
  147SBC   C0C7 3234   5.081  11.296  10.207
  147SBC   C0C6 3235   5.151  11.392  10.286
  147SBC   C0C5 3236   5.285  11.416  10.344
  147SBC   C0CQ 3237   5.292  11.497  10.461
  147SBC   C0D1 3238   5.174  11.526  10.526
  147SBC   C0D8 3239   5.190  11.529  10.662
  147SBC   C0D7 3240   5.333  11.535  10.676
  147SBC   C0D6 3241   5.404  11.542  10.797
  147SBC   C0D5 3242   5.539  11.552  10.809
  147SBC   C0D4 3243   5.645  11.554  10.707
  147SBC   C0D3 3244   5.769  11.530  10.773
  147SBC   C0CX 3245   5.852  11.469  10.670
  147SBC   C0CW 3246   5.768  11.417  10.560
  147SBC   C0CV 3247   5.784  11.331  10.440
  147SBC   C0D2 3248   5.906  11.273  10.400
  147SBC   C09D 3249   6.030  11.293  10.469
  147SBC   C09C 3250   6.152  11.238  10.418
  147SBC   C09B 3251   6.286  11.270  10.460
  147SBC   C09A 3252   6.295  11.360  10.566
  147SBC   C099 3253   6.188  11.401  10.637
  147SBC   C098 3254   6.216  11.526  10.693
  147SBC   C08Y 3255   6.342  11.573  10.645
  147SBC   C08X 3256   6.399  11.704  10.636
  147SBC   C08W 3257   6.317  11.812  10.685
  147SBC   C08U 3258   6.182  11.819  10.740
  147SBC   C08V 3259   6.078  11.720  10.763
  147SBC   C0DC 3260   5.980  11.780  10.846
  147SBC   H00W 3261   5.887  11.731  10.871
  147SBC   C0DB 3262   6.015  11.914  10.877
  147SBC   H00X 3263   5.961  11.988  10.934
  147SBC   C08T 3264   6.134  11.931  10.802
  147SBC   C08S 3265   6.208  12.048  10.801
  147SBC   H00N 3266   6.174  12.139  10.849
  147SBC   C08R 3267   6.312  12.067  10.719
  147SBC   C08Q 3268   6.363  12.192  10.678
  147SBC   H00O 3269   6.305  12.276  10.713
  147SBC   C08P 3270   6.484  12.213  10.609
  147SBC   C08O 3271   6.534  12.343  10.567
  147SBC   H00P 3272   6.488  12.436  10.597
  147SBC   C08N 3273   6.644  12.351  10.483
  147SBC   C08M 3274   6.688  12.485  10.444
  147SBC   O008 3275   6.629  12.588  10.461
  147SBC   O007 3276   6.819  12.492  10.387
  147SBC   C08H 3277   6.887  12.379  10.352
  147SBC   C08G 3278   7.014  12.381  10.279
  147SBC   C03V 3279   7.092  12.491  10.243
  147SBC   H009 3280   7.057  12.584  10.285
  147SBC   C03U 3281   7.215  12.492  10.174
  147SBC   C03W 3282   7.297  12.609  10.146
  147SBC   H00A 3283   7.270  12.705  10.188
  147SBC   C03X 3284   7.413  12.592  10.082
  147SBC   H00B 3285   7.484  12.671  10.063
  147SBC   O005 3286   7.448  12.471  10.028
  147SBC   C03O 3287   7.375  12.357  10.056
  147SBC   C03N 3288   7.421  12.235  10.015
  147SBC   O000 3289   7.543  12.230   9.954
  147SBC   C019 3290   7.580  12.114   9.893
  147SBC   C018 3291   7.506  11.997   9.911
  147SBC   C017 3292   7.401  11.994   9.998
  147SBC   C016 3293   7.342  11.878  10.037
  147SBC   C015 3294   7.397  11.764   9.966
  147SBC   C014 3295   7.330  11.641   9.985
  147SBC   C013 3296   7.211  11.632  10.065
  147SBC   C012 3297   7.176  11.494  10.052
  147SBC   C011 3298   7.273  11.428   9.970
  147SBC   C010 3299   7.263  11.301   9.921
  147SBC   C00Z 3300   7.331  11.241   9.817
  147SBC   C00Y 3301   7.253  11.127   9.789
  147SBC   C01O 3302   7.143  11.125   9.871
  147SBC   C01P 3303   7.020  11.071   9.825
  147SBC   C02L 3304   6.910  11.114   9.890
  147SBC   C02K 3305   6.923  11.219   9.984
  147SBC   C01M 3306   7.041  11.297  10.006
  147SBC   C02J 3307   6.803  11.219  10.067
  147SBC   C02I 3308   6.793  11.290  10.184
  147SBC   C02H 3309   6.865  11.395  10.232
  147SBC   C01Q 3310   6.980  11.460  10.185
  147SBC   C02G 3311   6.993  11.588  10.250
  147SBC   C089 3312   6.906  11.582  10.359
  147SBC   C088 3313   6.869  11.711  10.401
  147SBC   C087 3314   6.968  11.797  10.333
  147SBC   C086 3315   6.969  11.938  10.331
  147SBC   C03S 3316   7.056  12.021  10.255
  147SBC   N006 3317   7.023  12.147  10.285
  147SBC   C08F 3318   6.910  12.145  10.357
  147SBC   C01J 3319   7.168  12.003  10.167
  147SBC   C03R 3320   7.233  12.118  10.123
  147SBC   C03Q 3321   7.192  12.246  10.165
  147SBC   C08E 3322   6.870  12.020  10.387
  147SBC   C08D 3323   6.750  11.988  10.451
  147SBC   C08K 3324   6.673  12.102  10.487
  147SBC   C08C 3325   6.692  11.868  10.493
  147SBC   C091 3326   6.571  11.864  10.560
  147SBC   C092 3327   6.495  11.977  10.601
  147SBC   C08B 3328   6.747  11.740  10.473
  147SBC   C090 3329   6.635  11.650  10.521
  147SBC   C094 3330   6.627  11.510  10.496
  147SBC   C095 3331   6.517  11.428  10.510
  147SBC   C09R 3332   6.519  11.313  10.433
  147SBC   C097 3333   6.636  11.328  10.359
  147SBC   C096 3334   6.695  11.446  10.391
  147SBC   C01I 3335   7.051  11.718  10.235
  147SBC   C08A 3336   6.816  11.480  10.334
  147SBC   C09L 3337   6.684  11.246  10.251
  147SBC   C09K 3338   6.617  11.150  10.164
  147SBC   C09J 3339   6.484  11.111  10.174
  147SBC   C09I 3340   6.406  11.058  10.071
  147SBC   C09O 3341   6.419  11.007   9.939
  147SBC   C09N 3342   6.548  11.005   9.876
  147SBC   C09M 3343   6.668  11.068   9.918
  147SBC   C06O 3344   6.547  10.936   9.751
  147SBC   C05M 3345   6.429  10.886   9.691
  147SBC   C06P 3346   6.306  10.906   9.748
  147SBC   C042 3347   6.435  10.815   9.566
  147SBC   C041 3348   6.557  10.793   9.501
  147SBC   C040 3349   6.563  10.724   9.379
  147SBC   C03Z 3350   6.683  10.710   9.307
  147SBC   C03Y 3351   6.795  10.772   9.359
  147SBC   C027 3352   6.916  10.762   9.287
  147SBC   C026 3353   7.030  10.814   9.337
  147SBC   C028 3354   7.147  10.812   9.257
  147SBC   C029 3355   7.148  10.751   9.139
  147SBC   C02B 3356   7.265  10.752   9.060
  147SBC   C02C 3357   7.265  10.703   8.933
  147SBC   C02X 3358   7.372  10.720   8.849
  147SBC   C03E 3359   7.366  10.666   8.722
  147SBC   C03G 3360   7.251  10.623   8.661
  147SBC   C04Q 3361   7.144  10.609   8.741
  147SBC   C04R 3362   7.021  10.572   8.691
  147SBC   C04S 3363   6.908  10.567   8.763
  147SBC   C04L 3364   6.913  10.598   8.898
  147SBC   C04M 3365   7.034  10.644   8.955
  147SBC   C04K 3366   6.800  10.597   8.976
  147SBC   C04F 3367   6.684  10.552   8.924
  147SBC   C04E 3368   6.677  10.522   8.788
  147SBC   C04D 3369   6.553  10.486   8.730
  147SBC   C050 3370   6.537  10.467   8.595
  147SBC   C051 3371   6.414  10.439   8.544
  147SBC   C05Q 3372   6.397  10.436   8.404
  147SBC   C05V 3373   6.273  10.410   8.351
  147SBC   N005 3374   6.256  10.427   8.213
  147SBC   C07V 3375   6.362  10.466   8.131
  147SBC   C082 3376   6.336  10.513   8.003
  147SBC   C081 3377   6.206  10.502   7.951
  147SBC   C07C 3378   6.106  10.449   8.028
  147SBC   C07B 3379   5.977  10.425   7.974
  147SBC   C080 3380   5.938  10.468   7.847
  147SBC   C07Z 3381   5.809  10.442   7.799
  147SBC   H00L 3382   5.778  10.486   7.705
  147SBC   C079 3383   5.718  10.356   7.867
  147SBC   C078 3384   5.760  10.306   7.992
  147SBC   C077 3385   5.671  10.224   8.068
  147SBC   C07X 3386   5.547  10.179   8.019
  147SBC   H00I 3387   5.476  10.115   8.070
  147SBC   C07Y 3388   5.506  10.229   7.896
  147SBC   H00H 3389   5.413  10.199   7.851
  147SBC   C076 3390   5.700  10.200   8.201
  147SBC   C06C 3391   5.614  10.121   8.290
  147SBC   H00C 3392   5.527  10.064   8.262
  147SBC   C06F 3393   5.814  10.256   8.256
  147SBC   C06E 3394   5.833  10.262   8.395
  147SBC   C06G 3395   5.938  10.313   8.461
  147SBC   C06H 3396   6.042  10.342   8.377
  147SBC   C06I 3397   6.030  10.355   8.241
  147SBC   C06L 3398   5.943  10.315   8.603
  147SBC   C06M 3399   5.827  10.292   8.684
  147SBC   C06K 3400   6.065  10.355   8.653
  147SBC   C05S 3401   6.176  10.384   8.571
  147SBC   C05U 3402   6.079  10.374   8.790
  147SBC   C05X 3403   5.960  10.367   8.875
  147SBC   C05G 3404   5.982  10.424   9.009
  147SBC   C05F 3405   6.112  10.455   9.047
  147SBC   C05E 3406   6.117  10.510   9.169
  147SBC   C048 3407   6.231  10.560   9.227
  147SBC   C056 3408   6.214  10.634   9.338
  147SBC   C045 3409   6.330  10.690   9.392
  147SBC   C047 3410   6.344  10.552   9.153
  147SBC   C049 3411   6.341  10.500   9.024
  147SBC   C04B 3412   6.453  10.503   8.948
  147SBC   C046 3413   6.457  10.601   9.207
  147SBC   C04H 3414   6.574  10.597   9.131
  147SBC   C05D 3415   5.992  10.522   9.221
  147SBC   C04A 3416   6.225  10.451   8.964
  147SBC   C05T 3417   6.206  10.410   8.837
  147SBC   C055 3418   6.315  10.433   8.758
  147SBC   C06D 3419   5.735  10.212   8.473
  147SBC   C07W 3420   5.911  10.321   8.179
  147SBC   C085 3421   5.592  10.312   7.819
  147SBC   H00M 3422   5.550  10.342   7.724
  147SBC   C084 3423   6.036  10.544   7.779
  147SBC   H00J 3424   6.009  10.585   7.682
  147SBC   C07A 3425   5.885  10.348   8.048
  147SBC   C083 3426   6.170  10.539   7.818
  147SBC   H00K 3427   6.241  10.573   7.744
  147SBC   O00K 3428   6.433  10.568   7.924
  147SBC   C0GO 3429   6.562  10.568   7.970
  147SBC   C0GN 3430   6.659  10.625   7.893
  147SBC   H01L 3431   6.631  10.664   7.796
  147SBC   C0GM 3432   6.792  10.648   7.946
  147SBC   C0GL 3433   6.883  10.723   7.872
  147SBC   H01M 3434   6.860  10.760   7.774
  147SBC   O00J 3435   7.012  10.728   7.917
  147SBC   C0GK 3436   7.036  10.682   8.049
  147SBC   H01N 3437   7.137  10.698   8.083
  147SBC   C05K 3438   6.949  10.623   8.129
  147SBC   C05J 3439   6.977  10.586   8.262
  147SBC   C04Y 3440   7.101  10.581   8.325
  147SBC   C04X 3441   7.121  10.578   8.463
  147SBC   O006 3442   7.214  10.586   8.252
  147SBC   C053 3443   7.333  10.633   8.297
  147SBC   C04O 3444   7.355  10.639   8.437
  147SBC   C03C 3445   7.473  10.692   8.503
  147SBC   C03B 3446   7.591  10.762   8.461
  147SBC   C054 3447   7.614  10.803   8.332
  147SBC   C0GR 3448   7.727  10.875   8.286
  147SBC   C03M 3449   7.838  10.946   8.357
  147SBC   C03I 3450   7.842  10.978   8.498
  147SBC   C03J 3451   7.951  11.058   8.544
  147SBC   N002 3452   7.946  11.115   8.677
  147SBC   C02U 3453   8.045  11.211   8.718
  147SBC   C02T 3454   8.045  11.262   8.849
  147SBC   C02Z 3455   8.140  11.354   8.887
  147SBC   N001 3456   8.132  11.414   9.017
  147SBC   C02R 3457   8.231  11.508   9.061
  147SBC   C032 3458   8.336  11.543   8.975
  147SBC   C031 3459   8.341  11.487   8.843
  147SBC   H007 3460   8.422  11.517   8.778
  147SBC   C033 3461   8.435  11.628   9.029
  147SBC   H003 3462   8.523  11.640   8.967
  147SBC   O004 3463   8.445  11.665   9.156
  147SBC   C034 3464   8.341  11.640   9.237
  147SBC   C035 3465   8.343  11.683   9.372
  147SBC   C036 3466   8.241  11.650   9.462
  147SBC   H005 3467   8.254  11.671   9.568
  147SBC   C037 3468   8.135  11.570   9.416
  147SBC   H006 3469   8.063  11.543   9.492
  147SBC   C00D 3470   8.124  11.531   9.281
  147SBC   C00C 3471   8.022  11.450   9.238
  147SBC   C00B 3472   7.902  11.412   9.322
  147SBC   C00A 3473   7.844  11.432   9.467
  147SBC   C009 3474   7.750  11.327   9.476
  147SBC   C008 3475   7.637  11.318   9.562
  147SBC   C007 3476   7.615  11.421   9.651
  147SBC   C006 3477   7.505  11.407   9.736
  147SBC   C005 3478   7.471  11.522   9.814
  147SBC   C004 3479   7.538  11.648   9.798
  147SBC   C003 3480   7.638  11.654   9.698
  147SBC   C002 3481   7.708  11.778   9.678
  147SBC   C01C 3482   7.677  11.887   9.763
  147SBC   C01B 3483   7.749  12.010   9.754
  147SBC   H000 3484   7.836  12.024   9.691
  147SBC   C001 3485   7.796  11.789   9.570
  147SBC   C000 3486   7.820  11.677   9.492
  147SBC   C01U 3487   7.874  11.729   9.369
  147SBC   H002 3488   7.884  11.679   9.275
  147SBC   C01T 3489   7.885  11.874   9.391
  147SBC   O002 3490   7.917  11.957   9.309
  147SBC   O001 3491   7.829  11.907   9.508
  147SBC   C01S 3492   7.678  11.539   9.626
  147SBC   C00N 3493   7.558  11.200   9.543
  147SBC   C00M 3494   7.568  11.120   9.431
  147SBC   C00J 3495   7.665  11.145   9.340
  147SBC   C00I 3496   7.663  11.096   9.211
  147SBC   C00H 3497   7.755  11.140   9.118
  147SBC   C00G 3498   7.842  11.244   9.147
  147SBC   C00F 3499   7.939  11.289   9.061
  147SBC   C01X 3500   7.762  11.078   8.996
  147SBC   C01W 3501   7.670  10.983   8.959
  147SBC   C01V 3502   7.577  10.942   9.057
  147SBC   C020 3503   7.479  10.856   9.019
  147SBC   C01Z 3504   7.667  10.929   8.829
  147SBC   C02Y 3505   7.575  10.839   8.808
  147SBC   C039 3506   7.571  10.786   8.681
  147SBC   C02W 3507   7.759  10.974   8.731
  147SBC   C01Y 3508   7.860  11.120   8.903
  147SBC   C00U 3509   7.572  10.999   9.182
  147SBC   C00S 3510   7.471  10.965   9.273
  147SBC   C00T 3511   7.373  10.880   9.229
  147SBC   C00R 3512   7.473  11.030   9.395
  147SBC   C00Q 3513   7.365  11.021   9.477
  147SBC   C00V 3514   7.256  10.941   9.432
  147SBC   C024 3515   7.140  10.942   9.505
  147SBC   C00X 3516   7.140  10.996   9.633
  147SBC   C00P 3517   7.364  11.087   9.594
  147SBC   C00O 3518   7.457  11.186   9.632
  147SBC   C00K 3519   7.757  11.245   9.371
  147SBC   N000 3520   7.782  11.545   9.526
  147SBC   C00L 3521   7.837  11.299   9.274
  147SBC   H004 3522   8.432  11.737   9.401
  147SBC   C02Q 3523   8.228  11.560   9.195
  147SBC   C00E 3524   8.030  11.384   9.108
  147SBC   C030 3525   8.246  11.387   8.798
  147SBC   O003 3526   8.252  11.330   8.674
  147SBC   C02S 3527   7.944  11.228   8.936
  147SBC   C038 3528   8.149  11.252   8.636
  147SBC   C03L 3529   8.145  11.203   8.509
  147SBC   H008 3530   8.224  11.237   8.444
  147SBC   C02V 3531   7.856  11.065   8.773
  147SBC   C03K 3532   8.047  11.114   8.460
  147SBC   C0BK 3533   8.032  11.083   8.325
  147SBC   H00T 3534   8.117  11.113   8.264
  147SBC   C03H 3535   7.755  10.928   8.597
  147SBC   C0BL 3536   7.937  11.002   8.271
  147SBC   C0GU 3537   7.934  10.973   8.132
  147SBC   H01O 3538   8.007  11.016   8.064
  147SBC   C0GT 3539   7.829  10.917   8.066
  147SBC   H01P 3540   7.827  10.911   7.958
  147SBC   C0GS 3541   7.721  10.871   8.141
  147SBC   C0GV 3542   7.607  10.806   8.102
  147SBC   C0GW 3543   7.561  10.780   7.969
  147SBC   H01Q 3544   7.605  10.822   7.880
  147SBC   C0GX 3545   7.455  10.706   7.961
  147SBC   H01R 3546   7.398  10.699   7.870
  147SBC   O00L 3547   7.382  10.653   8.068
  147SBC   C0GQ 3548   7.543  10.756   8.216
  147SBC   C03A 3549   7.649  10.828   8.574
  147SBC   C05L 3550   7.423  10.681   8.195
  147SBC   C04W 3551   6.863  10.549   8.344
  147SBC   C05I 3552   6.739  10.521   8.293
  147SBC   C05O 3553   6.713  10.547   8.159
  147SBC   C052 3554   6.630  10.486   8.379
  147SBC   C04V 3555   6.877  10.540   8.487
  147SBC   C04U 3556   6.772  10.515   8.568
  147SBC   N009 3557   6.817  10.602   8.077
  147SBC   C0GP 3558   6.589  10.527   8.105
  147SBC   C05W 3559   6.483  10.474   8.183
  147SBC   C07D 3560   6.127  10.413   8.159
  147SBC   C06J 3561   6.166  10.377   8.435
  147SBC   C05P 3562   6.505  10.462   8.322
  147SBC   C05R 3563   6.301  10.417   8.625
  147SBC   C04Z 3564   6.649  10.485   8.514
  147SBC   C04C 3565   6.444  10.471   8.817
  147SBC   C04G 3566   6.570  10.552   9.004
  147SBC   C04J 3567   6.803  10.649   9.107
  147SBC   C04T 3568   6.786  10.534   8.709
  147SBC   N003 3569   7.003  10.569   8.547
  147SBC   C04P 3570   7.249  10.602   8.522
  147SBC   C03D 3571   7.474  10.699   8.640
  147SBC   C021 3572   7.475  10.803   8.893
  147SBC   C03F 3573   7.150  10.644   8.879
  147SBC   C022 3574   7.375  10.822   9.101
  147SBC   C02A 3575   7.033  10.705   9.084
  147SBC   C023 3576   7.262  10.872   9.311
  147SBC   C025 3577   7.028  10.879   9.461
  147SBC   C02D 3578   6.908  10.888   9.534
  147SBC   C02E 3579   6.907  10.944   9.660
  147SBC   C02N 3580   6.788  10.972   9.732
  147SBC   C04N 3581   6.917  10.704   9.164
  147SBC   C02P 3582   6.788  10.842   9.481
  147SBC   C04I 3583   6.689  10.649   9.183
  147SBC   C044 3584   6.451  10.674   9.327
  147SBC   C043 3585   6.669  10.852   9.555
  147SBC   C05N 3586   6.670  10.923   9.679
  147SBC   C09U 3587   6.297  10.971   9.871
  147SBC   C09V 3588   6.173  10.991   9.929
  147SBC   C09X 3589   6.158  11.049  10.048
  147SBC   C09Y 3590   6.037  11.086  10.109
  147SBC   C0A1 3591   5.922  11.058  10.043
  147SBC   C0A2 3592   5.933  10.989   9.917
  147SBC   C0A4 3593   5.821  10.954   9.848
  147SBC   C071 3594   5.827  10.877   9.730
  147SBC   C0A5 3595   5.710  10.832   9.672
  147SBC   C0A9 3596   5.590  10.867   9.727
  147SBC   C0A8 3597   5.583  10.948   9.833
  147SBC   C0AP 3598   5.460  10.984   9.884
  147SBC   C0BY 3599   5.457  11.068   9.993
  147SBC   C0BX 3600   5.563  11.106  10.068
  147SBC   C0C2 3601   5.551  11.189  10.183
  147SBC   C0C3 3602   5.667  11.219  10.253
  147SBC   C0CT 3603   5.791  11.167  10.213
  147SBC   C0C1 3604   5.419  11.239  10.221
  147SBC   C0C0 3605   5.301  11.185  10.150
  147SBC   C0A7 3606   5.687  11.062  10.021
  147SBC   C0BZ 3607   5.333  11.107  10.045
  147SBC   C0BO 3608   5.217  11.058   9.986
  147SBC   C0BN 3609   5.222  10.987   9.869
  147SBC   C0BM 3610   5.101  10.947   9.825
  147SBC   C0B9 3611   5.105  10.862   9.710
  147SBC   C0B8 3612   5.226  10.827   9.651
  147SBC   C0AD 3613   5.349  10.865   9.709
  147SBC   C0AF 3614   5.232  10.735   9.549
  147SBC   C0AG 3615   5.113  10.674   9.493
  147SBC   C0B7 3616   4.995  10.716   9.551
  147SBC   C0AE 3617   5.357  10.699   9.509
  147SBC   C0AB 3618   5.476  10.746   9.551
  147SBC   C0AA 3619   5.598  10.714   9.500
  147SBC   C0AJ 3620   5.362  10.602   9.406
  147SBC   C0AK 3621   5.483  10.570   9.346
  147SBC   C06W 3622   5.452  10.481   9.253
  147SBC   C0AI 3623   5.250  10.540   9.341
  147SBC   C0BP 3624   5.102  11.105  10.049
  147SBC   C0BQ 3625   4.976  11.065  10.004
  147SBC   C0BW 3626   5.342  10.945   9.819
  147SBC   C0AC 3627   5.473  10.824   9.664
  147SBC   C0A6 3628   5.698  10.992   9.901
  147SBC   C0A3 3629   5.801  11.093  10.094
  147SBC   C09Z 3630   6.025  11.141  10.239
  147SBC   C09W 3631   6.058  10.956   9.858
  147SBC   C072 3632   6.065  10.876   9.748
  147SBC   C09H 3633   6.272  11.071  10.113
  147SBC   C09G 3634   6.265  11.131  10.240
  147SBC   C09P 3635   6.394  11.167  10.278
  147SBC   C02O 3636   6.687  11.142  10.042
  147SBC   C02M 3637   6.786  11.053   9.846
  147SBC   C02F 3638   7.022  10.997   9.712
  147SBC   C00W 3639   7.258  11.064   9.668
  147SBC   C01R 3640   7.433  11.281   9.730
  147SBC   C01N 3641   7.145  11.241   9.941
  147SBC   C01L 3642   7.061  11.414  10.088
  147SBC   C01H 3643   7.154  11.748  10.136
  147SBC   C01K 3644   7.364  11.524   9.915
  147SBC   C01E 3645   7.500  11.762   9.874
  147SBC   C01G 3646   7.218  11.877  10.112
  147SBC   C01D 3647   7.562  11.885   9.847
  147SBC   C01A 3648   7.698  12.124   9.814
  147SBC   H001 3649   7.752  12.217   9.816
  147SBC   C01F 3650   7.351  12.116  10.046
  147SBC   C03P 3651   7.259  12.366  10.131
  147SBC   C03T 3652   7.074  12.263  10.241
  147SBC   C08I 3653   6.835  12.253  10.391
  147SBC   C08J 3654   6.714  12.235  10.452
  147SBC   C08L 3655   6.552  12.096  10.567
  147SBC   C093 3656   6.371  11.948  10.666
  147SBC   C08Z 3657   6.527  11.728  10.578
  147SBC   C09T 3658   6.083  11.582  10.714
  147SBC   C09S 3659   6.395  11.456  10.575
  147SBC   C09Q 3660   6.406  11.247  10.390
  147SBC   C09F 3661   6.144  11.172  10.302
  147SBC   C09E 3662   6.060  11.385  10.575
  147SBC   C0A0 3663   5.907  11.193  10.287
  147SBC   C0CU 3664   5.658  11.309  10.364
  147SBC   C0CR 3665   5.530  11.367  10.395
  147SBC   C0CZ 3666   5.523  11.445  10.511
  147SBC   C0DA 3667   5.990  11.485  10.653
  147SBC   C0D9 3668   5.732  11.475  10.902
  147SBC   H00V 3669   5.794  11.405  10.956
  147SBC   C0CY 3670   5.638  11.472  10.587
  147SBC   C0DF 3671   5.589  11.499  10.922
  147SBC   C0DE 3672   5.469  11.458  11.000
  147SBC   C0GI 3673   5.455  11.418  11.133
  147SBC   H01K 3674   5.545  11.394  11.187
  147SBC   C0GJ 3675   5.330  11.404  11.174
  147SBC   H01J 3676   5.314  11.366  11.274
  147SBC   O00I 3677   5.213  11.436  11.104
  147SBC   C0GH 3678   5.224  11.474  10.969
  147SBC   C0GG 3679   5.103  11.473  10.896
  147SBC   O00G 3680   4.998  11.436  10.970
  147SBC   C0G8 3681   4.874  11.415  10.915
  147SBC   C0G9 3682   4.773  11.399  11.011
  147SBC   H01G 3683   4.791  11.420  11.115
  147SBC   C0GA 3684   4.647  11.367  10.963
  147SBC   H01H 3685   4.564  11.358  11.032
  147SBC   C0GB 3686   4.613  11.356  10.826
  147SBC   C0EP 3687   4.727  11.360  10.735
  147SBC   C0E8 3688   4.693  11.324  10.595
  147SBC   C0CK 3689   4.768  11.296  10.477
  147SBC   C0CL 3690   4.877  11.377  10.455
  147SBC   C0E9 3691   4.959  11.442  10.548
  147SBC   C0GE 3692   4.969  11.439  10.695
  147SBC   C0E7 3693   4.560  11.333  10.550
  147SBC   C0CJ 3694   4.550  11.318  10.407
  147SBC   C0E6 3695   4.426  11.335  10.346
  147SBC   H00Y 3696   4.411  11.306  10.243
  147SBC   C0EO 3697   4.317  11.340  10.440
  147SBC   H011 3698   4.217  11.336  10.398
  147SBC   C0G6 3699   4.327  11.332  10.580
  147SBC   C0G5 3700   4.223  11.308  10.675
  147SBC   H01F 3701   4.128  11.284  10.629
  147SBC   C0GD 3702   4.250  11.299  10.809
  147SBC   H01I 3703   4.162  11.279  10.869
  147SBC   O00H 3704   4.376  11.316  10.867
  147SBC   C0EQ 3705   4.454  11.339  10.639
  147SBC   C0GC 3706   4.478  11.335  10.779
  147SBC   C0G7 3707   4.859  11.395  10.775
  147SBC   C0DD 3708   5.355  11.498  10.925
  147SBC   C0GF 3709   5.089  11.487  10.756
  147SBC   C0CO 3710   5.056  11.495  10.472
  147SBC   C0D0 3711   5.392  11.494  10.551
  147SBC   C0C4 3712   5.408  11.343  10.316
  147SBC   C0CN 3713   5.043  11.468  10.336
  147SBC   C0CP 3714   5.154  11.198  10.146
  147SBC   C0CM 3715   4.923  11.399  10.318
  147SBC   C0CI 3716   4.681  11.264  10.369
  147SBC   C0CD 3717   4.500  10.997  10.023
  147SBC   C0BR 3718   4.854  11.091  10.072
  147SBC   C0CS 3719   4.983  10.985   9.885
  147SBC   C0B6 3720   4.986  10.812   9.656
  147SBC   C0CG 3721   4.624  10.916   9.829
  147SBC   C0CF 3722   4.505  10.935   9.893
  147SBC   C0E5 3723   4.261  10.940  10.031
  147SBC   C0DT 3724   4.027  10.895   9.899
  147SBC   C0DL 3725   4.274  10.789   9.649
  147SBC   C0DM 3726   4.272  10.696   9.542
  147SBC   C0DY 3727   4.031  10.701   9.523
  147SBC   C0DU 3728   3.911  10.870   9.827
  147SBC   C0F0 3729   3.670  10.819   9.847
  147SBC   C0F4 3730   3.464  10.651   9.787
  147SBC   C0FG 3731   3.673  10.642   9.482
  147SBC   O00B 3732   3.392  10.474   9.631
  147SBC   C0FN 3733   3.661  10.555   9.385
  147SBC   C0DZ 3734   3.910  10.651   9.469
  147SBC   O00C 3735   4.035  10.402   9.240
  147SBC   C0FR 3736   4.149  10.349   9.189
  147SBC   O00D 3737   4.133  10.259   9.104
  147SBC   C0E0 3738   4.151  10.649   9.488
  147SBC   C0E3 3739   4.277  10.414   9.231
  147SBC   C0AW 3740   4.400  10.367   9.186
  147SBC   C0AV 3741   4.419  10.266   9.086
  147SBC   H00Q 3742   4.340  10.209   9.039
  147SBC   C0AU 3743   4.545  10.238   9.038
  147SBC   H00R 3744   4.553  10.170   8.954
  147SBC   C0AT 3745   4.657  10.298   9.093
  147SBC   C0AS 3746   4.804  10.295   9.072
  147SBC   C0AR 3747   4.867  10.195   8.990
  147SBC   C0BE 3748   4.635  10.385   9.197
  147SBC   C0DN 3749   4.394  10.651   9.497
  147SBC   C0AX 3750   4.510  10.418   9.250
  147SBC   C0BB 3751   4.634  10.655   9.503
  147SBC   C0BD 3752   4.759  10.435   9.237
  147SBC   C0B2 3753   4.879  10.661   9.499
  147SBC   C0AH 3754   5.118  10.583   9.386
  147SBC   C0BF 3755   4.870  10.387   9.164
  147SBC   C0AL 3756   5.311  10.456   9.243
  147SBC   C07U 3757   5.107  10.286   9.006
  147SBC   C0AQ 3758   5.000  10.215   8.951
  147SBC   C0BG 3759   4.795  10.118   8.886
  147SBC   C0FY 3760   4.960   9.896   8.653
  147SBC   C0BJ 3761   4.731   9.986   8.906
  147SBC   H00S 3762   4.678   9.960   8.996
  147SBC   C0FZ 3763   4.915   9.768   8.681
  147SBC   C07S 3764   5.100   9.915   8.651
  147SBC   C0G1 3765   5.190   9.563   8.557
  147SBC   C07K 3766   5.508   9.728   8.448
  147SBC   C07H 3767   5.383   9.941   8.601
  147SBC   C06B 3768   5.633  10.133   8.424
  147SBC   C06N 3769   5.723  10.227   8.611
  147SBC   C066 3770   5.370  10.145   8.758
  147SBC   C062 3771   5.477  10.311   8.995
  147SBC   C05Y 3772   5.831  10.320   8.826
  147SBC   C061 3773   5.575  10.331   9.095
  147SBC   C05H 3774   5.905  10.463   9.121
  147SBC   C06V 3775   5.566  10.432   9.190
  147SBC   C06Y 3776   5.606  10.623   9.397
  147SBC   C05C 3777   5.975  10.592   9.341
  147SBC   C06Z 3778   5.716  10.752   9.558
  147SBC   C070 3779   5.951  10.837   9.683
  147SBC   C05B 3780   6.090  10.648   9.400
  147SBC   C057 3781   6.321  10.758   9.514
  147SBC   C059 3782   6.187  10.850   9.692
  148SBC   C058 3783   4.011   6.941   4.957
  148SBC   C05A 3784   4.082   7.064   4.938
  148SBC   C06Q 3785   4.040   7.176   5.012
  148SBC   C06R 3786   4.117   7.295   5.014
  148SBC   C06S 3787   4.232   7.308   4.931
  148SBC   C06T 3788   4.310   7.429   4.945
  148SBC   C06U 3789   4.426   7.470   4.868
  148SBC   C06X 3790   4.517   7.402   4.776
  148SBC   C060 3791   4.612   7.497   4.717
  148SBC   C05Z 3792   4.753   7.481   4.691
  148SBC   C068 3793   4.808   7.618   4.721
  148SBC   C067 3794   4.925   7.691   4.671
  148SBC   C069 3795   5.012   7.628   4.575
  148SBC   C06A 3796   5.095   7.693   4.476
  148SBC   C073 3797   5.112   7.823   4.429
  148SBC   C07P 3798   5.130   7.850   4.290
  148SBC   C07O 3799   5.099   7.763   4.183
  148SBC   H00D 3800   5.056   7.667   4.206
  148SBC   C07N 3801   5.101   7.801   4.049
  148SBC   H00E 3802   5.073   7.740   3.964
  148SBC   C07M 3803   5.131   7.933   4.025
  148SBC   H00F 3804   5.119   7.962   3.922
  148SBC   C07L 3805   5.170   8.024   4.124
  148SBC   C07Q 3806   5.213   8.160   4.101
  148SBC   H00G 3807   5.232   8.177   3.996
  148SBC   O00F 3808   5.270   8.239   4.194
  148SBC   C07J 3809   5.260   8.199   4.325
  148SBC   C07I 3810   5.210   8.073   4.358
  148SBC   N004 3811   5.191   8.042   4.499
  148SBC   C07R 3812   5.232   8.140   4.595
  148SBC   C07T 3813   5.280   8.258   4.551
  148SBC   C0FX 3814   5.311   8.362   4.636
  148SBC   C0FW 3815   5.346   8.494   4.601
  148SBC   C0G0 3816   5.369   8.513   4.463
  148SBC   C0G2 3817   5.405   8.640   4.420
  148SBC   H01E 3818   5.423   8.655   4.315
  148SBC   C0G3 3819   5.431   8.744   4.507
  148SBC   H01C 3820   5.474   8.839   4.480
  148SBC   C0G4 3821   5.402   8.720   4.644
  148SBC   H01D 3822   5.415   8.803   4.711
  148SBC   O00E 3823   5.346   8.413   4.375
  148SBC   C0FV 3824   5.359   8.601   4.697
  148SBC   C0FU 3825   5.318   8.572   4.829
  148SBC   H01B 3826   5.307   8.651   4.901
  148SBC   C0FT 3827   5.279   8.444   4.866
  148SBC   C0FS 3828   5.213   8.377   4.976
  148SBC   C0BI 3829   5.219   8.238   4.960
  148SBC   C0BH 3830   5.115   8.170   5.032
  148SBC   C07F 3831   5.019   8.081   4.971
  148SBC   C07E 3832   5.041   7.991   4.876
  148SBC   C07G 3833   5.129   8.002   4.763
  148SBC   C074 3834   5.087   7.902   4.673
  148SBC   C065 3835   4.939   7.898   4.831
  148SBC   C064 3836   4.814   7.916   4.890
  148SBC   C063 3837   4.705   7.831   4.873
  148SBC   C075 3838   4.607   7.883   4.972
  148SBC   C0AM 3839   4.650   8.015   5.024
  148SBC   C0AN 3840   4.569   8.109   5.105
  148SBC   C0AO 3841   4.435   8.099   5.171
  148SBC   C0B1 3842   4.378   8.209   5.239
  148SBC   C0B0 3843   4.432   8.337   5.240
  148SBC   C0AZ 3844   4.372   8.456   5.281
  148SBC   C0AY 3845   4.434   8.577   5.251
  148SBC   N007 3846   4.374   8.694   5.293
  148SBC   C0E2 3847   4.434   8.814   5.268
  148SBC   C0E1 3848   4.372   8.929   5.313
  148SBC   C0E4 3849   4.421   9.057   5.274
  148SBC   C0FF 3850   4.370   9.179   5.328
  148SBC   C0FJ 3851   4.389   9.317   5.291
  148SBC   C0FK 3852   4.389   9.361   5.155
  148SBC   H016 3853   4.413   9.306   5.065
  148SBC   C0FL 3854   4.326   9.499   5.151
  148SBC   H017 3855   4.291   9.554   5.065
  148SBC   C0FM 3856   4.291   9.531   5.287
  148SBC   C0FH 3857   4.185   9.596   5.353
  148SBC   C0FI 3858   4.172   9.514   5.469
  148SBC   C0F3 3859   4.034   9.494   5.512
  148SBC   C0F2 3860   4.017   9.378   5.576
  148SBC   C0DW 3861   4.092   9.264   5.561
  148SBC   C0FE 3862   4.207   9.273   5.493
  148SBC   C0DV 3863   4.029   9.139   5.580
  148SBC   C0DX 3864   4.088   9.027   5.530
  148SBC   C0DK 3865   4.028   8.903   5.547
  148SBC   C0DJ 3866   3.903   8.894   5.607
  148SBC   C0DI 3867   3.842   8.774   5.626
  148SBC   C0DH 3868   3.902   8.655   5.584
  148SBC   C0DG 3869   4.025   8.665   5.514
  148SBC   C0BV 3870   4.083   8.550   5.464
  148SBC   C0BC 3871   4.198   8.560   5.388
  148SBC   C0BA 3872   4.024   8.428   5.486
  148SBC   C0B4 3873   4.079   8.317   5.429
  148SBC   C0B3 3874   4.203   8.322   5.363
  148SBC   C0B5 3875   4.002   8.201   5.428
  148SBC   C0BU 3876   3.885   8.193   5.502
  148SBC   C0BT 3877   3.832   8.302   5.569
  148SBC   C0BS 3878   3.716   8.294   5.651
  148SBC   C0CC 3879   3.662   8.409   5.697
  148SBC   C0CB 3880   3.540   8.403   5.774
  148SBC   C0CH 3881   3.470   8.517   5.775
  148SBC   C0DO 3882   3.525   8.647   5.748
  148SBC   C0DP 3883   3.452   8.761   5.770
  148SBC   C0EA 3884   3.320   8.756   5.825
  148SBC   H012 3885   3.269   8.664   5.851
  148SBC   O009 3886   3.244   8.864   5.850
  148SBC   C0EH 3887   3.298   8.981   5.804
  148SBC   C0EG 3888   3.217   9.088   5.820
  148SBC   C0EJ 3889   3.081   9.107   5.866
  148SBC   H010 3890   3.015   9.025   5.889
  148SBC   C0EK 3891   3.051   9.251   5.855
  148SBC   H00Z 3892   2.957   9.300   5.872
  148SBC   C0EL 3893   3.170   9.314   5.808
  148SBC   C0EM 3894   3.196   9.451   5.763
  148SBC   C0EW 3895   3.119   9.566   5.779
  148SBC   H013 3896   3.019   9.554   5.816
  148SBC   C0EX 3897   3.166   9.696   5.729
  148SBC   H014 3898   3.100   9.782   5.726
  148SBC   C0F1 3899   3.300   9.706   5.677
  148SBC   C0EU 3900   3.376   9.589   5.669
  148SBC   C0ET 3901   3.510   9.582   5.625
  148SBC   C0ES 3902   3.542   9.444   5.638
  148SBC   C0EE 3903   3.434   9.375   5.695
  148SBC   C0ED 3904   3.397   9.238   5.733
  148SBC   C0EC 3905   3.487   9.128   5.719
  148SBC   C0EB 3906   3.624   9.134   5.691
  148SBC   C0EN 3907   3.695   9.258   5.669
  148SBC   C0ER 3908   3.832   9.246   5.664
  148SBC   C0DS 3909   3.699   9.013   5.676
  148SBC   C0DR 3910   3.640   8.892   5.704
  148SBC   C0EY 3911   3.671   9.398   5.656
  148SBC   C0EZ 3912   3.782   9.470   5.607
  148SBC   C0F5 3913   3.809   9.597   5.540
  148SBC   C0F6 3914   3.707   9.691   5.516
  148SBC   N008 3915   3.755   9.803   5.435
  148SBC   C0F7 3916   3.882   9.806   5.367
  148SBC   C0FQ 3917   3.908   9.919   5.280
  148SBC   H018 3918   4.003   9.923   5.229
  148SBC   C0FP 3919   3.821  10.029   5.267
  148SBC   H019 3920   3.850  10.106   5.198
  148SBC   C0FO 3921   3.705  10.025   5.344
  148SBC   H01A 3922   3.637  10.109   5.342
  148SBC   C0F8 3923   3.970   9.696   5.387
  148SBC   C0F9 3924   3.670   9.920   5.429
  148SBC   C0FA 3925   3.546   9.931   5.504
  148SBC   H015 3926   3.487  10.020   5.493
  148SBC   C0FB 3927   3.496   9.814   5.571
  148SBC   C0FD 3928   3.576   9.699   5.572
  148SBC   C0FC 3929   3.361   9.824   5.622
  148SBC   O00A 3930   3.305   9.935   5.624
  148SBC   C0EV 3931   3.326   9.469   5.713
  148SBC   C0EF 3932   3.271   9.210   5.788
  148SBC   C0EI 3933   3.433   8.996   5.753
  148SBC   C0DQ 3934   3.509   8.887   5.740
  148SBC   C0CE 3935   3.651   8.653   5.698
  148SBC   H00U 3936   3.369   8.498   5.807
  148SBC   C0CA 3937   3.507   8.278   5.840
  148SBC   C0C9 3938   3.572   8.159   5.795
  148SBC   C0C8 3939   3.547   8.036   5.862
  148SBC   C0C7 3940   3.546   7.894   5.815
  148SBC   C0C6 3941   3.517   7.802   5.913
  148SBC   C0C5 3942   3.460   7.664   5.923
  148SBC   C0CQ 3943   3.391   7.637   6.040
  148SBC   C0D1 3944   3.350   7.742   6.128
  148SBC   C0D8 3945   3.228   7.712   6.175
  148SBC   C0D7 3946   3.216   7.570   6.152
  148SBC   C0D6 3947   3.107   7.492   6.196
  148SBC   C0D5 3948   3.110   7.346   6.185
  148SBC   C0D4 3949   3.190   7.251   6.111
  148SBC   C0D3 3950   3.103   7.148   6.073
  148SBC   C0CX 3951   3.146   7.096   5.946
  148SBC   C0CW 3952   3.238   7.196   5.888
  148SBC   C0CV 3953   3.317   7.212   5.768
  148SBC   C0D2 3954   3.323   7.109   5.671
  148SBC   C09D 3955   3.256   6.984   5.672
  148SBC   C09C 3956   3.272   6.888   5.564
  148SBC   C09B 3957   3.220   6.758   5.561
  148SBC   C09A 3958   3.136   6.722   5.674
  148SBC   C099 3959   3.101   6.815   5.764
  148SBC   C098 3960   3.058   6.744   5.882
  148SBC   C08Y 3961   3.078   6.603   5.861
  148SBC   C08X 3962   3.077   6.493   5.953
  148SBC   C08W 3963   3.082   6.522   6.099
  148SBC   C08U 3964   3.096   6.646   6.173
  148SBC   C08V 3965   3.114   6.781   6.126
  148SBC   C0DC 3966   3.136   6.861   6.239
  148SBC   H00W 3967   3.154   6.967   6.227
  148SBC   C0DB 3968   3.128   6.782   6.358
  148SBC   H00X 3969   3.136   6.825   6.457
  148SBC   C08T 3970   3.110   6.651   6.314
  148SBC   C08S 3971   3.100   6.538   6.386
  148SBC   H00N 3972   3.083   6.543   6.493
  148SBC   C08R 3973   3.089   6.416   6.325
  148SBC   C08Q 3974   3.070   6.297   6.399
  148SBC   H00O 3975   3.059   6.305   6.506
  148SBC   C08P 3976   3.068   6.167   6.346
  148SBC   C08O 3977   3.062   6.054   6.430
  148SBC   H00P 3978   3.055   6.058   6.538
  148SBC   C08N 3979   3.077   5.924   6.370
  148SBC   C08M 3980   3.073   5.805   6.451
  148SBC   O008 3981   3.044   5.803   6.574
  148SBC   O007 3982   3.102   5.691   6.399
  148SBC   C08H 3983   3.123   5.670   6.264
  148SBC   C08G 3984   3.147   5.541   6.200
  148SBC   C03V 3985   3.143   5.411   6.250
  148SBC   H009 3986   3.108   5.402   6.352
  148SBC   C03U 3987   3.160   5.295   6.175
  148SBC   C03W 3988   3.147   5.164   6.231
  148SBC   H00A 3989   3.119   5.154   6.334
  148SBC   C03X 3990   3.170   5.059   6.158
  148SBC   H00B 3991   3.162   4.961   6.204
  148SBC   O005 3992   3.223   5.070   6.034
  148SBC   C03O 3993   3.233   5.190   5.978
  148SBC   C03N 3994   3.304   5.210   5.856
  148SBC   O000 3995   3.352   5.094   5.799
  148SBC   C019 3996   3.421   5.107   5.681
  148SBC   C018 3997   3.444   5.229   5.614
  148SBC   C017 3998   3.385   5.344   5.671
  148SBC   C016 3999   3.398   5.464   5.605
  148SBC   C015 4000   3.470   5.462   5.484
  148SBC   C014 4001   3.475   5.583   5.408
  148SBC   C013 4002   3.411   5.698   5.453
  148SBC   C012 4003   3.455   5.797   5.355
  148SBC   C011 4004   3.530   5.723   5.260
  148SBC   C010 4005   3.578   5.776   5.143
  148SBC   C00Z 4006   3.674   5.719   5.058
  148SBC   C00Y 4007   3.714   5.830   4.982
  148SBC   C01O 4008   3.644   5.950   5.015
  148SBC   C01P 4009   3.704   6.076   5.014
  148SBC   C02L 4010   3.651   6.176   5.093
  148SBC   C02K 4011   3.551   6.136   5.187
  148SBC   C01M 4012   3.515   6.001   5.219
  148SBC   C02J 4013   3.494   6.250   5.245
  148SBC   C02I 4014   3.394   6.249   5.338
  148SBC   C02H 4015   3.336   6.144   5.413
  148SBC   C01Q 4016   3.364   6.007   5.419
  148SBC   C02G 4017   3.278   5.956   5.526
  148SBC   C089 4018   3.191   6.059   5.573
  148SBC   C088 4019   3.166   6.038   5.712
  148SBC   C087 4020   3.207   5.895   5.726
  148SBC   C086 4021   3.190   5.817   5.840
  148SBC   C03S 4022   3.214   5.677   5.859
  148SBC   N006 4023   3.183   5.653   5.991
  148SBC   C08F 4024   3.156   5.773   6.053
  148SBC   C01J 4025   3.273   5.573   5.787
  148SBC   C03R 4026   3.264   5.446   5.849
  148SBC   C03Q 4027   3.214   5.428   5.981
  148SBC   C08E 4028   3.153   5.876   5.969
  148SBC   C08D 4029   3.124   6.008   6.007
  148SBC   C08K 4030   3.105   6.026   6.149
  148SBC   C08C 4031   3.115   6.131   5.935
  148SBC   C091 4032   3.094   6.258   5.998
  148SBC   C092 4033   3.084   6.274   6.133
  148SBC   C08B 4034   3.122   6.147   5.802
  148SBC   C090 4035   3.101   6.294   5.779
  148SBC   C094 4036   3.131   6.361   5.650
  148SBC   C095 4037   3.144   6.492   5.632
  148SBC   C09R 4038   3.207   6.527   5.512
  148SBC   C097 4039   3.254   6.410   5.457
  148SBC   C096 4040   3.204   6.308   5.539
  148SBC   C01I 4041   3.275   5.836   5.609
  148SBC   C08A 4042   3.239   6.176   5.511
  148SBC   C09L 4043   3.353   6.385   5.358
  148SBC   C09K 4044   3.436   6.464   5.279
  148SBC   C09J 4045   3.430   6.608   5.276
  148SBC   C09I 4046   3.538   6.699   5.236
  148SBC   C09O 4047   3.662   6.681   5.166
  148SBC   C09N 4048   3.710   6.555   5.115
  148SBC   C09M 4049   3.653   6.418   5.139
  148SBC   C06O 4050   3.825   6.565   5.036
  148SBC   C05M 4051   3.881   6.693   5.006
  148SBC   C06P 4052   3.832   6.816   5.058
  148SBC   C042 4053   3.999   6.700   4.929
  148SBC   C041 4054   4.064   6.582   4.886
  148SBC   C040 4055   4.188   6.588   4.817
  148SBC   C03Z 4056   4.255   6.474   4.794
  148SBC   C03Y 4057   4.200   6.352   4.812
  148SBC   C027 4058   4.278   6.234   4.791
  148SBC   C026 4059   4.214   6.112   4.811
  148SBC   C028 4060   4.284   6.000   4.791
  148SBC   C029 4061   4.418   6.010   4.756
  148SBC   C02B 4062   4.493   5.894   4.750
  148SBC   C02C 4063   4.628   5.905   4.722
  148SBC   C02X 4064   4.700   5.790   4.710
  148SBC   C03E 4065   4.836   5.806   4.696
  148SBC   C03G 4066   4.907   5.919   4.685
  148SBC   C04Q 4067   4.831   6.036   4.686
  148SBC   C04R 4068   4.890   6.158   4.668
  148SBC   C04S 4069   4.807   6.271   4.668
  148SBC   C04L 4070   4.675   6.265   4.700
  148SBC   C04M 4071   4.617   6.140   4.721
  148SBC   C04K 4072   4.601   6.378   4.702
  148SBC   C04F 4073   4.661   6.501   4.680
  148SBC   C04E 4074   4.793   6.510   4.645
  148SBC   C04D 4075   4.854   6.630   4.619
  148SBC   C050 4076   4.994   6.641   4.606
  148SBC   C051 4077   5.052   6.758   4.581
  148SBC   C05Q 4078   5.189   6.767   4.552
  148SBC   C05V 4079   5.242   6.890   4.522
  148SBC   N005 4080   5.381   6.900   4.489
  148SBC   C07V 4081   5.455   6.784   4.509
  148SBC   C082 4082   5.592   6.799   4.494
  148SBC   C081 4083   5.654   6.913   4.437
  148SBC   C07C 4084   5.576   7.027   4.413
  148SBC   C07B 4085   5.623   7.144   4.350
  148SBC   C080 4086   5.756   7.148   4.308
  148SBC   C07Z 4087   5.798   7.268   4.251
  148SBC   H00L 4088   5.898   7.298   4.223
  148SBC   C079 4089   5.720   7.382   4.237
  148SBC   C078 4090   5.593   7.375   4.291
  148SBC   C077 4091   5.509   7.493   4.288
  148SBC   C07X 4092   5.562   7.621   4.243
  148SBC   H00I 4093   5.507   7.713   4.242
  148SBC   C07Y 4094   5.693   7.625   4.187
  148SBC   H00H 4095   5.735   7.717   4.149
  148SBC   C076 4096   5.384   7.484   4.338
  148SBC   C06C 4097   5.305   7.598   4.351
  148SBC   H00C 4098   5.330   7.697   4.316
  148SBC   C06F 4099   5.330   7.361   4.379
  148SBC   C06E 4100   5.206   7.356   4.446
  148SBC   C06G 4101   5.144   7.243   4.493
  148SBC   C06H 4102   5.221   7.126   4.486
  148SBC   C06I 4103   5.356   7.135   4.447
  148SBC   C06L 4104   5.016   7.247   4.555
  148SBC   C06M 4105   4.951   7.369   4.593
  148SBC   C06K 4106   4.955   7.121   4.577
  148SBC   C05S 4107   5.035   7.002   4.553
  148SBC   C05U 4108   4.823   7.111   4.611
  148SBC   C05X 4109   4.751   7.229   4.650
  148SBC   C05G 4110   4.610   7.205   4.687
  148SBC   C05F 4111   4.559   7.077   4.678
  148SBC   C05E 4112   4.428   7.070   4.722
  148SBC   C048 4113   4.364   6.950   4.742
  148SBC   C056 4114   4.238   6.954   4.804
  148SBC   C045 4115   4.178   6.830   4.823
  148SBC   C047 4116   4.434   6.839   4.710
  148SBC   C049 4117   4.567   6.846   4.669
  148SBC   C04B 4118   4.648   6.734   4.664
  148SBC   C046 4119   4.376   6.717   4.739
  148SBC   C04H 4120   4.450   6.604   4.723
  148SBC   C05D 4121   4.385   7.193   4.767
  148SBC   C04A 4122   4.634   6.966   4.657
  148SBC   C05T 4123   4.766   6.982   4.620
  148SBC   C055 4124   4.843   6.865   4.605
  148SBC   C06D 4125   5.139   7.475   4.473
  148SBC   C07W 4126   5.409   7.251   4.391
  148SBC   C085 4127   5.764   7.505   4.179
  148SBC   H00M 4128   5.856   7.512   4.123
  148SBC   C084 4129   5.834   7.029   4.325
  148SBC   H00J 4130   5.935   7.023   4.287
  148SBC   C07A 4131   5.542   7.256   4.345
  148SBC   C083 4132   5.788   6.915   4.391
  148SBC   H00K 4133   5.855   6.831   4.398
  148SBC   O00K 4134   5.671   6.684   4.485
  148SBC   C0GO 4135   5.615   6.561   4.522
  148SBC   C0GN 4136   5.693   6.451   4.544
  148SBC   H01L 4137   5.797   6.465   4.518
  148SBC   C0GM 4138   5.640   6.326   4.603
  148SBC   C0GL 4139   5.725   6.233   4.647
  148SBC   H01M 4140   5.829   6.245   4.622
  148SBC   O00J 4141   5.677   6.116   4.702
  148SBC   C0GK 4142   5.538   6.104   4.695
  148SBC   H01N 4143   5.507   6.005   4.725
  148SBC   C05K 4144   5.457   6.198   4.649
  148SBC   C05J 4145   5.314   6.178   4.646
  148SBC   C04Y 4146   5.243   6.055   4.666
  148SBC   C04X 4147   5.109   6.044   4.656
  148SBC   O006 4148   5.318   5.942   4.663
  148SBC   C053 4149   5.270   5.816   4.695
  148SBC   C04O 4150   5.130   5.800   4.679
  148SBC   C03C 4151   5.051   5.677   4.687
  148SBC   C03B 4152   5.072   5.543   4.714
  148SBC   C054 4153   5.198   5.491   4.724
  148SBC   C0GR 4154   5.224   5.353   4.752
  148SBC   C03M 4155   5.138   5.230   4.768
  148SBC   C03I 4156   4.996   5.227   4.790
  148SBC   C03J 4157   4.937   5.104   4.814
  148SBC   N002 4158   4.796   5.090   4.840
  148SBC   C02U 4159   4.735   4.967   4.875
  148SBC   C02T 4160   4.597   4.963   4.905
  148SBC   C02Z 4161   4.541   4.837   4.935
  148SBC   N001 4162   4.404   4.831   4.980
  148SBC   C02R 4163   4.340   4.708   5.015
  148SBC   C032 4164   4.419   4.594   5.006
  148SBC   C031 4165   4.554   4.603   4.961
  148SBC   H007 4166   4.619   4.517   4.958
  148SBC   C033 4167   4.349   4.474   5.052
  148SBC   H003 4168   4.402   4.380   5.046
  148SBC   O004 4169   4.218   4.468   5.098
  148SBC   C034 4170   4.143   4.583   5.080
  148SBC   C035 4171   4.006   4.573   5.117
  148SBC   C036 4172   3.924   4.686   5.106
  148SBC   H005 4173   3.822   4.682   5.141
  148SBC   C037 4174   3.985   4.805   5.068
  148SBC   H006 4175   3.923   4.893   5.056
  148SBC   C00D 4176   4.121   4.818   5.045
  148SBC   C00C 4177   4.180   4.943   5.020
  148SBC   C00B 4178   4.103   5.072   5.020
  148SBC   C00A 4179   3.962   5.125   5.040
  148SBC   C009 4180   3.966   5.254   4.978
  148SBC   C008 4181   3.890   5.373   5.004
  148SBC   C007 4182   3.795   5.367   5.097
  148SBC   C006 4183   3.716   5.480   5.125
  148SBC   C005 4184   3.625   5.472   5.236
  148SBC   C004 4185   3.622   5.359   5.321
  148SBC   C003 4186   3.713   5.253   5.295
  148SBC   C002 4187   3.698   5.136   5.370
  148SBC   C01C 4188   3.592   5.124   5.462
  148SBC   C01B 4189   3.562   4.998   5.519
  148SBC   H000 4190   3.612   4.908   5.488
  148SBC   C001 4191   3.788   5.033   5.358
  148SBC   C000 4192   3.882   5.047   5.262
  148SBC   C01U 4193   3.988   4.959   5.301
  148SBC   H002 4194   4.086   4.941   5.259
  148SBC   C01T 4195   3.929   4.868   5.409
  148SBC   O002 4196   3.967   4.765   5.467
  148SBC   O001 4197   3.821   4.937   5.447
  148SBC   C01S 4198   3.797   5.255   5.184
  148SBC   C00N 4199   3.935   5.490   4.947
  148SBC   C00M 4200   4.060   5.499   4.891
  148SBC   C00J 4201   4.141   5.390   4.881
  148SBC   C00I 4202   4.274   5.398   4.850
  148SBC   C00H 4203   4.353   5.286   4.864
  148SBC   C00G 4204   4.306   5.173   4.918
  148SBC   C00F 4205   4.385   5.065   4.938
  148SBC   C01X 4206   4.489   5.299   4.846
  148SBC   C01W 4207   4.542   5.419   4.802
  148SBC   C01V 4208   4.460   5.530   4.788
  148SBC   C020 4209   4.513   5.649   4.759
  148SBC   C01Z 4210   4.678   5.429   4.772
  148SBC   C02Y 4211   4.721   5.549   4.734
  148SBC   C039 4212   4.855   5.561   4.710
  148SBC   C02W 4213   4.767   5.319   4.791
  148SBC   C01Y 4214   4.578   5.188   4.864
  148SBC   C00U 4215   4.327   5.518   4.815
  148SBC   C00S 4216   4.248   5.632   4.819
  148SBC   C00T 4217   4.302   5.759   4.791
  148SBC   C00R 4218   4.114   5.627   4.858
  148SBC   C00Q 4219   4.037   5.739   4.868
  148SBC   C00V 4220   4.095   5.863   4.841
  148SBC   C024 4221   4.026   5.979   4.861
  148SBC   C00X 4222   3.897   5.970   4.907
  148SBC   C00P 4223   3.909   5.726   4.915
  148SBC   C00O 4224   3.856   5.602   4.962
  148SBC   C00K 4225   4.090   5.272   4.918
  148SBC   N000 4226   3.882   5.144   5.160
  148SBC   C00L 4227   4.168   5.166   4.944
  148SBC   H004 4228   3.961   4.481   5.152
  148SBC   C02Q 4229   4.203   4.704   5.047
  148SBC   C00E 4230   4.323   4.947   4.984
  148SBC   C030 4231   4.615   4.719   4.922
  148SBC   O003 4232   4.746   4.723   4.882
  148SBC   C02S 4233   4.524   5.072   4.907
  148SBC   C038 4234   4.805   4.847   4.866
  148SBC   C03L 4235   4.939   4.862   4.831
  148SBC   H008 4236   4.995   4.770   4.820
  148SBC   C02V 4237   4.712   5.203   4.837
  148SBC   C03K 4238   5.006   4.982   4.812
  148SBC   C0BK 4239   5.140   4.990   4.782
  148SBC   H00T 4240   5.204   4.904   4.772
  148SBC   C03H 4241   4.907   5.329   4.773
  148SBC   C0BL 4242   5.215   5.109   4.770
  148SBC   C0GU 4243   5.357   5.108   4.765
  148SBC   H01O 4244   5.403   5.011   4.779
  148SBC   C0GT 4245   5.433   5.221   4.759
  148SBC   H01P 4246   5.541   5.218   4.772
  148SBC   C0GS 4247   5.367   5.342   4.755
  148SBC   C0GV 4248   5.427   5.473   4.745
  148SBC   C0GW 4249   5.569   5.517   4.743
  148SBC   H01Q 4250   5.646   5.441   4.738
  148SBC   C0GX 4251   5.591   5.649   4.744
  148SBC   H01R 4252   5.692   5.687   4.746
  148SBC   O00L 4253   5.491   5.741   4.729
  148SBC   C0GQ 4254   5.324   5.565   4.722
  148SBC   C03A 4255   4.952   5.465   4.734
  148SBC   C05L 4256   5.357   5.701   4.720
  148SBC   C04W 4257   5.231   6.293   4.636
  148SBC   C05I 4258   5.287   6.416   4.611
  148SBC   C05O 4259   5.425   6.428   4.595
  148SBC   C052 4260   5.206   6.529   4.587
  148SBC   C04V 4261   5.089   6.285   4.637
  148SBC   C04U 4262   5.010   6.402   4.626
  148SBC   N009 4263   5.504   6.318   4.611
  148SBC   C0GP 4264   5.476   6.552   4.549
  148SBC   C05W 4265   5.399   6.665   4.541
  148SBC   C07D 4266   5.439   7.022   4.453
  148SBC   C06J 4267   5.166   7.002   4.517
  148SBC   C05P 4268   5.262   6.652   4.559
  148SBC   C05R 4269   4.978   6.874   4.575
  148SBC   C04Z 4270   5.071   6.524   4.598
  148SBC   C04C 4271   4.781   6.746   4.627
  148SBC   C04G 4272   4.589   6.613   4.691
  148SBC   C04J 4273   4.465   6.370   4.738
  148SBC   C04T 4274   4.872   6.397   4.652
  148SBC   N003 4275   5.031   6.160   4.652
  148SBC   C04P 4276   5.047   5.922   4.668
  148SBC   C03D 4277   4.911   5.685   4.692
  148SBC   C021 4278   4.644   5.662   4.731
  148SBC   C03F 4279   4.693   6.025   4.711
  148SBC   C022 4280   4.437   5.764   4.763
  148SBC   C02A 4281   4.480   6.134   4.743
  148SBC   C023 4282   4.227   5.873   4.806
  148SBC   C025 4283   4.083   6.102   4.856
  148SBC   C02D 4284   4.012   6.218   4.887
  148SBC   C02E 4285   3.882   6.209   4.941
  148SBC   C02N 4286   3.819   6.325   4.999
  148SBC   C04N 4287   4.408   6.247   4.755
  148SBC   C02P 4288   4.070   6.346   4.868
  148SBC   C04I 4289   4.389   6.484   4.751
  148SBC   C044 4290   4.246   6.713   4.788
  148SBC   C043 4291   4.002   6.461   4.906
  148SBC   C05N 4292   3.883   6.450   4.978
  148SBC   C09U 4293   3.727   6.808   5.149
  148SBC   C09V 4294   3.688   6.924   5.218
  148SBC   C09X 4295   3.585   6.929   5.300
  148SBC   C09Y 4296   3.546   7.039   5.375
  148SBC   C0A1 4297   3.612   7.154   5.364
  148SBC   C0A2 4298   3.711   7.164   5.270
  148SBC   C0A4 4299   3.786   7.278   5.259
  148SBC   C071 4300   3.887   7.279   5.164
  148SBC   C0A5 4301   3.957   7.397   5.157
  148SBC   C0A9 4302   3.918   7.510   5.230
  148SBC   C0A8 4303   3.802   7.508   5.303
  148SBC   C0AP 4304   3.760   7.615   5.378
  148SBC   C0BY 4305   3.655   7.604   5.461
  148SBC   C0BX 4306   3.600   7.487   5.494
  148SBC   C0C2 4307   3.515   7.477   5.606
  148SBC   C0C3 4308   3.460   7.356   5.635
  148SBC   C0CT 4309   3.481   7.253   5.541
  148SBC   C0C1 4310   3.496   7.586   5.691
  148SBC   C0C0 4311   3.531   7.722   5.642
  148SBC   C0A7 4312   3.638   7.379   5.418
  148SBC   C0BZ 4313   3.613   7.719   5.531
  148SBC   C0BO 4314   3.671   7.844   5.505
  148SBC   C0BN 4315   3.783   7.851   5.420
  148SBC   C0BM 4316   3.858   7.965   5.432
  148SBC   C0B9 4317   3.974   7.970   5.362
  148SBC   C0B8 4318   4.023   7.862   5.298
  148SBC   C0AD 4319   3.944   7.741   5.291
  148SBC   C0AF 4320   4.152   7.862   5.250
  148SBC   C0AG 4321   4.234   7.971   5.251
  148SBC   C0B7 4322   4.184   8.085   5.312
  148SBC   C0AE 4323   4.187   7.747   5.182
  148SBC   C0AB 4324   4.113   7.629   5.177
  148SBC   C0AA 4325   4.153   7.518   5.102
  148SBC   C0AJ 4326   4.306   7.749   5.122
  148SBC   C0AK 4327   4.346   7.642   5.044
  148SBC   C06W 4328   4.451   7.683   4.974
  148SBC   C0AI 4329   4.395   7.860   5.112
  148SBC   C0BP 4330   3.634   7.935   5.598
  148SBC   C0BQ 4331   3.709   8.059   5.601
  148SBC   C0BW 4332   3.826   7.737   5.361
  148SBC   C0AC 4333   3.990   7.627   5.233
  148SBC   C0A6 4334   3.735   7.389   5.322
  148SBC   C0A3 4335   3.573   7.260   5.441
  148SBC   C09Z 4336   3.435   7.032   5.465
  148SBC   C09W 4337   3.751   7.048   5.199
  148SBC   C072 4338   3.857   7.052   5.109
  148SBC   C09H 4339   3.505   6.821   5.300
  148SBC   C09G 4340   3.400   6.814   5.383
  148SBC   C09P 4341   3.353   6.685   5.374
  148SBC   C02O 4342   3.533   6.384   5.214
  148SBC   C02M 4343   3.708   6.311   5.076
  148SBC   C02F 4344   3.829   6.085   4.953
  148SBC   C00W 4345   3.844   5.843   4.928
  148SBC   C01R 4346   3.738   5.596   5.042
  148SBC   C01N 4347   3.573   5.913   5.129
  148SBC   C01L 4348   3.450   5.941   5.336
  148SBC   C01H 4349   3.337   5.708   5.576
  148SBC   C01K 4350   3.550   5.588   5.290
  148SBC   C01E 4351   3.542   5.355   5.435
  148SBC   C01G 4352   3.334   5.583   5.657
  148SBC   C01D 4353   3.528   5.241   5.507
  148SBC   C01A 4354   3.482   4.991   5.627
  148SBC   H001 4355   3.455   4.897   5.674
  148SBC   C01F 4356   3.313   5.336   5.789
  148SBC   C03P 4357   3.201   5.307   6.045
  148SBC   C03T 4358   3.182   5.537   6.061
  148SBC   C08I 4359   3.128   5.787   6.185
  148SBC   C08J 4360   3.105   5.912   6.237
  148SBC   C08L 4361   3.085   6.155   6.208
  148SBC   C093 4362   3.087   6.408   6.186
  148SBC   C08Z 4363   3.084   6.361   5.906
  148SBC   C09T 4364   3.101   6.832   5.989
  148SBC   C09S 4365   3.113   6.596   5.721
  148SBC   C09Q 4366   3.258   6.651   5.473
  148SBC   C09F 4367   3.362   6.919   5.468
  148SBC   C09E 4368   3.175   6.933   5.781
  148SBC   C0A0 4369   3.411   7.133   5.561
  148SBC   C0CU 4370   3.385   7.336   5.749
  148SBC   C0CR 4371   3.381   7.441   5.847
  148SBC   C0CZ 4372   3.316   7.419   5.967
  148SBC   C0DA 4373   3.144   6.958   5.918
  148SBC   C0D9 4374   2.969   7.178   6.111
  148SBC   H00V 4375   2.885   7.122   6.074
  148SBC   C0CY 4376   3.253   7.294   5.991
  148SBC   C0DF 4377   2.975   7.300   6.190
  148SBC   C0DE 4378   2.899   7.414   6.226
  148SBC   C0GI 4379   2.763   7.426   6.266
  148SBC   H01K 4380   2.695   7.344   6.285
  148SBC   C0GJ 4381   2.713   7.552   6.285
  148SBC   H01J 4382   2.609   7.566   6.310
  148SBC   O00I 4383   2.783   7.672   6.270
  148SBC   C0GH 4384   2.919   7.664   6.245
  148SBC   C0GG 4385   2.989   7.786   6.229
  148SBC   O00G 4386   2.905   7.892   6.246
  148SBC   C0G8 4387   2.945   8.017   6.231
  148SBC   C0G9 4388   2.859   8.114   6.283
  148SBC   H01G 4389   2.761   8.079   6.310
  148SBC   C0GA 4390   2.898   8.247   6.285
  148SBC   H01H 4391   2.818   8.318   6.302
  148SBC   C0GB 4392   3.017   8.287   6.233
  148SBC   C0EP 4393   3.105   8.192   6.176
  148SBC   C0E8 4394   3.214   8.241   6.089
  148SBC   C0CK 4395   3.314   8.190   6.000
  148SBC   C0CL 4396   3.373   8.063   6.031
  148SBC   C0E9 4397   3.300   7.958   6.106
  148SBC   C0GE 4398   3.162   7.945   6.160
  148SBC   C0E7 4399   3.256   8.374   6.100
  148SBC   C0CJ 4400   3.372   8.406   6.029
  148SBC   C0E6 4401   3.433   8.520   6.059
  148SBC   H00Y 4402   3.536   8.536   6.030
  148SBC   C0EO 4403   3.350   8.615   6.118
  148SBC   H011 4404   3.389   8.715   6.128
  148SBC   C0G6 4405   3.221   8.595   6.162
  148SBC   C0G5 4406   3.139   8.691   6.226
  148SBC   H01F 4407   3.175   8.793   6.232
  148SBC   C0GD 4408   3.017   8.658   6.262
  148SBC   H01I 4409   2.946   8.734   6.290
  148SBC   O00H 4410   2.972   8.529   6.268
  148SBC   C0EQ 4411   3.174   8.463   6.160
  148SBC   C0GC 4412   3.050   8.423   6.219
  148SBC   C0G7 4413   3.071   8.054   6.177
  148SBC   C0DD 4414   2.977   7.536   6.227
  148SBC   C0GF 4415   3.125   7.810   6.191
  148SBC   C0CO 4416   3.395   7.861   6.105
  148SBC   C0D0 4417   3.304   7.535   6.051
  148SBC   C0C4 4418   3.443   7.569   5.816
  148SBC   C0CN 4419   3.512   7.888   6.029
  148SBC   C0CP 4420   3.537   7.867   5.679
  148SBC   C0CM 4421   3.511   8.025   5.996
  148SBC   C0CI 4422   3.403   8.294   5.947
  148SBC   C0CD 4423   3.710   8.532   5.663
  148SBC   C0BR 4424   3.666   8.169   5.680
  148SBC   C0CS 4425   3.819   8.072   5.511
  148SBC   C0B6 4426   4.054   8.087   5.367
  148SBC   C0CG 4427   3.902   8.421   5.552
  148SBC   C0CF 4428   3.839   8.532   5.605
  148SBC   C0E5 4429   3.708   8.772   5.675
  148SBC   C0DT 4430   3.834   9.012   5.637
  148SBC   C0DL 4431   4.088   8.786   5.504
  148SBC   C0DM 4432   4.203   8.792   5.424
  148SBC   C0DY 4433   4.206   9.038   5.453
  148SBC   C0DU 4434   3.900   9.129   5.630
  148SBC   C0F0 4435   3.886   9.373   5.626
  148SBC   C0F4 4436   3.937   9.591   5.481
  148SBC   C0FG 4437   4.255   9.400   5.462
  148SBC   O00B 4438   4.095   9.693   5.317
  148SBC   C0FN 4439   4.347   9.429   5.363
  148SBC   C0DZ 4440   4.266   9.165   5.427
  148SBC   O00C 4441   4.526   9.063   5.194
  148SBC   C0FR 4442   4.604   8.953   5.155
  148SBC   O00D 4443   4.695   8.980   5.072
  148SBC   C0E0 4444   4.257   8.922   5.393
  148SBC   C0E3 4445   4.558   8.820   5.200
  148SBC   C0AW 4446   4.625   8.704   5.162
  148SBC   C0AV 4447   4.755   8.690   5.104
  148SBC   H00Q 4448   4.816   8.777   5.085
  148SBC   C0AU 4449   4.816   8.570   5.073
  148SBC   H00R 4450   4.909   8.577   5.020
  148SBC   C0AT 4451   4.738   8.452   5.101
  148SBC   C0AS 4452   4.757   8.304   5.097
  148SBC   C0AR 4453   4.890   8.239   5.078
  148SBC   C0BE 4454   4.616   8.464   5.159
  148SBC   C0DN 4455   4.256   8.679   5.367
  148SBC   C0AX 4456   4.558   8.588   5.192
  148SBC   C0BB 4457   4.261   8.448   5.348
  148SBC   C0BD 4458   4.556   8.339   5.179
  148SBC   C0B2 4459   4.259   8.204   5.307
  148SBC   C0AH 4460   4.358   7.979   5.183
  148SBC   C0BF 4461   4.628   8.239   5.117
  148SBC   C0AL 4462   4.492   7.815   5.020
  148SBC   C07U 4463   4.786   8.025   4.978
  148SBC   C0AQ 4464   4.889   8.114   5.013
  148SBC   C0BG 4465   5.034   8.279   5.099
  148SBC   C0FY 4466   5.248   8.215   4.821
  148SBC   C0BJ 4467   5.111   8.402   5.075
  148SBC   H00S 4468   5.083   8.498   5.114
  148SBC   C0FZ 4469   5.289   8.339   4.775
  148SBC   C07S 4470   5.208   8.115   4.727
  148SBC   C0G1 4471   5.298   8.288   4.416
  148SBC   C07K 4472   5.172   7.978   4.262
  148SBC   C07H 4473   5.128   7.916   4.536
  148SBC   C06B 4474   5.185   7.596   4.426
  148SBC   C06N 4475   5.024   7.485   4.552
  148SBC   C066 4476   4.976   7.824   4.718
  148SBC   C062 4477   4.703   7.693   4.802
  148SBC   C05Y 4478   4.819   7.358   4.652
  148SBC   C061 4479   4.586   7.616   4.786
  148SBC   C05H 4480   4.493   7.277   4.734
  148SBC   C06V 4481   4.484   7.594   4.877
  148SBC   C06Y 4482   4.264   7.525   5.029
  148SBC   C05C 4483   4.263   7.198   4.848
  148SBC   C06Z 4484   4.072   7.403   5.088
  148SBC   C070 4485   3.933   7.165   5.094
  148SBC   C05B 4486   4.194   7.073   4.858
  148SBC   C057 4487   4.058   6.823   4.899
  148SBC   C059 4488   3.898   6.937   5.035
  149SBC   C058 4489   2.544   8.739  10.965
  149SBC   C05A 4490   2.527   8.844  10.873
  149SBC   C06Q 4491   2.587   8.842  10.747
  149SBC   C06R 4492   2.575   8.952  10.661
  149SBC   C06S 4493   2.509   9.073  10.698
  149SBC   C06T 4494   2.491   9.171  10.600
  149SBC   C06U 4495   2.397   9.290  10.593
  149SBC   C06X 4496   2.299   9.342  10.683
  149SBC   C060 4497   2.212   9.436  10.616
  149SBC   C05Z 4498   2.150   9.561  10.661
  149SBC   C068 4499   2.168   9.658  10.547
  149SBC   C067 4500   2.124   9.798  10.537
  149SBC   C069 4501   2.041   9.856  10.642
  149SBC   C06A 4502   2.006  10.000  10.656
  149SBC   C073 4503   2.071  10.123  10.619
  149SBC   C07P 4504   2.091  10.225  10.714
  149SBC   C07O 4505   2.066  10.210  10.851
  149SBC   H00D 4506   2.030  10.119  10.896
  149SBC   C07N 4507   2.078  10.309  10.948
  149SBC   H00E 4508   2.039  10.299  11.048
  149SBC   C07M 4509   2.136  10.421  10.898
  149SBC   H00F 4510   2.153  10.500  10.969
  149SBC   C07L 4511   2.178  10.443  10.766
  149SBC   C07Q 4512   2.250  10.556  10.720
  149SBC   H00G 4513   2.268  10.642  10.783
  149SBC   O00F 4514   2.301  10.561  10.595
  149SBC   C07J 4515   2.261  10.465  10.501
  149SBC   C07I 4516   2.183  10.356  10.541
  149SBC   N004 4517   2.163  10.249  10.443
  149SBC   C07R 4518   2.173  10.282  10.305
  149SBC   C07T 4519   2.245  10.395  10.268
  149SBC   C0FX 4520   2.287  10.426  10.141
  149SBC   C0FW 4521   2.382  10.517  10.103
  149SBC   C0G0 4522   2.425  10.607  10.202
  149SBC   C0G2 4523   2.492  10.724  10.167
  149SBC   H01E 4524   2.531  10.794  10.239
  149SBC   C0G3 4525   2.517  10.750  10.035
  149SBC   H01C 4526   2.580  10.834  10.008
  149SBC   C0G4 4527   2.493  10.653   9.935
  149SBC   H01D 4528   2.524  10.674   9.834
  149SBC   O00E 4529   2.381  10.587  10.339
  149SBC   C0FV 4530   2.418  10.533   9.962
  149SBC   C0FU 4531   2.377  10.425   9.871
  149SBC   H01B 4532   2.414  10.416   9.770
  149SBC   C0FT 4533   2.275  10.339   9.913
  149SBC   C0FS 4534   2.229  10.214   9.862
  149SBC   C0BI 4535   2.125  10.155   9.951
  149SBC   C0BH 4536   2.148  10.013   9.942
  149SBC   C07F 4537   2.186   9.929  10.053
  149SBC   C07E 4538   2.160   9.933  10.190
  149SBC   C07G 4539   2.123  10.049  10.259
  149SBC   C074 4540   2.121  10.018  10.395
  149SBC   C065 4541   2.188   9.836  10.284
  149SBC   C064 4542   2.260   9.725  10.232
  149SBC   C063 4543   2.304   9.619  10.309
  149SBC   C075 4544   2.386   9.543  10.208
  149SBC   C0AM 4545   2.384   9.601  10.073
  149SBC   C0AN 4546   2.461   9.557   9.955
  149SBC   C0AO 4547   2.552   9.433   9.930
  149SBC   C0B1 4548   2.612   9.409   9.797
  149SBC   C0B0 4549   2.614   9.508   9.701
  149SBC   C0AZ 4550   2.671   9.496   9.574
  149SBC   C0AY 4551   2.666   9.604   9.487
  149SBC   N007 4552   2.722   9.594   9.360
  149SBC   C0E2 4553   2.740   9.714   9.284
  149SBC   C0E1 4554   2.799   9.695   9.163
  149SBC   C0E4 4555   2.824   9.810   9.091
  149SBC   C0FF 4556   2.883   9.799   8.960
  149SBC   C0FJ 4557   2.936   9.894   8.862
  149SBC   C0FK 4558   3.005  10.023   8.882
  149SBC   H016 4559   3.000  10.084   8.971
  149SBC   C0FL 4560   3.085  10.052   8.768
  149SBC   H017 4561   3.154  10.132   8.748
  149SBC   C0FM 4562   3.069   9.944   8.676
  149SBC   C0FH 4563   3.107   9.860   8.560
  149SBC   C0FI 4564   3.044   9.736   8.588
  149SBC   C0F3 4565   3.093   9.614   8.538
  149SBC   C0F2 4566   3.040   9.511   8.603
  149SBC   C0DW 4567   2.974   9.518   8.726
  149SBC   C0FE 4568   2.935   9.636   8.776
  149SBC   C0DV 4569   2.963   9.410   8.809
  149SBC   C0DX 4570   2.918   9.430   8.940
  149SBC   C0DK 4571   2.923   9.317   9.026
  149SBC   C0DJ 4572   2.983   9.198   8.984
  149SBC   C0DI 4573   2.974   9.088   9.068
  149SBC   C0DH 4574   2.916   9.102   9.198
  149SBC   C0DG 4575   2.873   9.225   9.242
  149SBC   C0BV 4576   2.820   9.238   9.365
  149SBC   C0BC 4577   2.767   9.361   9.410
  149SBC   C0BA 4578   2.820   9.130   9.454
  149SBC   C0B4 4579   2.777   9.151   9.589
  149SBC   C0B3 4580   2.729   9.271   9.628
  149SBC   C0B5 4581   2.786   9.047   9.678
  149SBC   C0BU 4582   2.842   8.922   9.639
  149SBC   C0BT 4583   2.875   8.899   9.505
  149SBC   C0BS 4584   2.911   8.771   9.462
  149SBC   C0CC 4585   2.955   8.758   9.328
  149SBC   C0CB 4586   3.008   8.635   9.286
  149SBC   C0CH 4587   3.079   8.639   9.169
  149SBC   C0DO 4588   3.096   8.748   9.083
  149SBC   C0DP 4589   3.166   8.737   8.963
  149SBC   C0EA 4590   3.224   8.613   8.920
  149SBC   H012 4591   3.212   8.519   8.972
  149SBC   O009 4592   3.319   8.608   8.815
  149SBC   C0EH 4593   3.346   8.723   8.755
  149SBC   C0EG 4594   3.444   8.715   8.659
  149SBC   C0EJ 4595   3.526   8.611   8.601
  149SBC   H010 4596   3.529   8.510   8.639
  149SBC   C0EK 4597   3.591   8.661   8.480
  149SBC   H00Z 4598   3.657   8.609   8.413
  149SBC   C0EL 4599   3.559   8.802   8.479
  149SBC   C0EM 4600   3.601   8.912   8.387
  149SBC   C0EW 4601   3.691   8.905   8.278
  149SBC   H013 4602   3.743   8.813   8.257
  149SBC   C0EX 4603   3.708   9.030   8.201
  149SBC   H014 4604   3.772   9.030   8.114
  149SBC   C0F1 4605   3.633   9.157   8.223
  149SBC   C0EU 4606   3.548   9.153   8.329
  149SBC   C0ET 4607   3.461   9.257   8.371
  149SBC   C0ES 4608   3.390   9.201   8.481
  149SBC   C0EE 4609   3.438   9.067   8.504
  149SBC   C0ED 4610   3.406   8.957   8.597
  149SBC   C0EC 4611   3.302   8.961   8.698
  149SBC   C0EB 4612   3.215   9.073   8.724
  149SBC   C0EN 4613   3.198   9.187   8.628
  149SBC   C0ER 4614   3.101   9.284   8.654
  149SBC   C0DS 4615   3.127   9.074   8.834
  149SBC   C0DR 4616   3.120   8.967   8.922
  149SBC   C0EY 4617   3.267   9.249   8.518
  149SBC   C0EZ 4618   3.225   9.379   8.489
  149SBC   C0F5 4619   3.275   9.499   8.416
  149SBC   C0F6 4620   3.386   9.496   8.334
  149SBC   N008 4621   3.410   9.622   8.268
  149SBC   C0F7 4622   3.346   9.741   8.309
  149SBC   C0FQ 4623   3.390   9.862   8.248
  149SBC   H018 4624   3.346   9.953   8.285
  149SBC   C0FP 4625   3.471   9.867   8.139
  149SBC   H019 4626   3.493   9.960   8.090
  149SBC   C0FO 4627   3.527   9.748   8.100
  149SBC   H01A 4628   3.604   9.749   8.024
  149SBC   C0F8 4629   3.248   9.741   8.413
  149SBC   C0F9 4630   3.507   9.625   8.160
  149SBC   C0FA 4631   3.578   9.509   8.119
  149SBC   H015 4632   3.645   9.513   8.034
  149SBC   C0FB 4633   3.557   9.387   8.188
  149SBC   C0FD 4634   3.462   9.381   8.293
  149SBC   C0FC 4635   3.639   9.272   8.145
  149SBC   O00A 4636   3.707   9.275   8.044
  149SBC   C0EV 4637   3.534   9.035   8.407
  149SBC   C0EF 4638   3.466   8.828   8.581
  149SBC   C0EI 4639   3.277   8.847   8.782
  149SBC   C0DQ 4640   3.193   8.852   8.892
  149SBC   C0CE 4641   3.032   8.867   9.121
  149SBC   H00U 4642   3.147   8.555   9.165
  149SBC   C0CA 4643   2.974   8.513   9.357
  149SBC   C0C9 4644   2.938   8.529   9.494
  149SBC   C0C8 4645   2.898   8.409   9.562
  149SBC   C0C7 4646   2.883   8.372   9.700
  149SBC   C0C6 4647   2.855   8.234   9.726
  149SBC   C0C5 4648   2.879   8.141   9.828
  149SBC   C0CQ 4649   2.891   8.002   9.794
  149SBC   C0D1 4650   2.907   7.964   9.663
  149SBC   C0D8 4651   2.994   7.864   9.645
  149SBC   C0D7 4652   2.996   7.805   9.774
  149SBC   C0D6 4653   3.072   7.697   9.819
  149SBC   C0D5 4654   3.055   7.631   9.945
  149SBC   C0D4 4655   2.999   7.680  10.067
  149SBC   C0D3 4656   3.066   7.618  10.172
  149SBC   C0CX 4657   3.054   7.702  10.295
  149SBC   C0CW 4658   3.014   7.837  10.241
  149SBC   C0CV 4659   2.965   7.969  10.290
  149SBC   C0D2 4660   2.960   7.991  10.433
  149SBC   C09D 4661   3.006   7.901  10.539
  149SBC   C09C 4662   2.998   7.941  10.672
  149SBC   C09B 4663   3.022   7.857  10.789
  149SBC   C09A 4664   3.082   7.733  10.764
  149SBC   C099 4665   3.109   7.695  10.638
  149SBC   C098 4666   3.116   7.556  10.634
  149SBC   C08Y 4667   3.079   7.510  10.770
  149SBC   C08X 4668   3.050   7.380  10.821
  149SBC   C08W 4669   3.046   7.267  10.726
  149SBC   C08U 4670   3.057   7.271  10.576
  149SBC   C08V 4671   3.064   7.382  10.476
  149SBC   C0DC 4672   3.066   7.311  10.345
  149SBC   H00W 4673   3.061   7.372  10.256
  149SBC   C0DB 4674   3.067   7.168  10.358
  149SBC   H00X 4675   3.081   7.095  10.280
  149SBC   C08T 4676   3.059   7.154  10.501
  149SBC   C08S 4677   3.066   7.033  10.559
  149SBC   H00N 4678   3.084   6.944  10.501
  149SBC   C08R 4679   3.037   7.018  10.692
  149SBC   C08Q 4680   3.011   6.893  10.757
  149SBC   H00O 4681   3.007   6.805  10.695
  149SBC   C08P 4682   2.979   6.874  10.890
  149SBC   C08O 4683   2.952   6.744  10.947
  149SBC   H00P 4684   2.966   6.653  10.891
  149SBC   C08N 4685   2.906   6.734  11.084
  149SBC   C08M 4686   2.869   6.605  11.136
  149SBC   O008 4687   2.883   6.496  11.075
  149SBC   O007 4688   2.801   6.605  11.261
  149SBC   C08H 4689   2.784   6.720  11.332
  149SBC   C08G 4690   2.699   6.724  11.446
  149SBC   C03V 4691   2.622   6.621  11.497
  149SBC   H009 4692   2.633   6.528  11.443
  149SBC   C03U 4693   2.534   6.632  11.605
  149SBC   C03W 4694   2.450   6.528  11.662
  149SBC   H00A 4695   2.450   6.433  11.610
  149SBC   C03X 4696   2.365   6.549  11.762
  149SBC   H00B 4697   2.301   6.469  11.796
  149SBC   O005 4698   2.366   6.666  11.831
  149SBC   C03O 4699   2.443   6.770  11.780
  149SBC   C03N 4700   2.437   6.897  11.836
  149SBC   O000 4701   2.360   6.890  11.951
  149SBC   C019 4702   2.323   7.010  11.995
  149SBC   C018 4703   2.376   7.134  11.943
  149SBC   C017 4704   2.472   7.133  11.841
  149SBC   C016 4705   2.533   7.250  11.793
  149SBC   C015 4706   2.489   7.367  11.854
  149SBC   C014 4707   2.547   7.488  11.817
  149SBC   C013 4708   2.630   7.494  11.699
  149SBC   C012 4709   2.651   7.641  11.686
  149SBC   C011 4710   2.578   7.699  11.796
  149SBC   C010 4711   2.578   7.832  11.813
  149SBC   C00Z 4712   2.498   7.902  11.901
  149SBC   C00Y 4713   2.513   8.038  11.859
  149SBC   C01O 4714   2.599   8.046  11.747
  149SBC   C01P 4715   2.573   8.136  11.641
  149SBC   C02L 4716   2.637   8.108  11.523
  149SBC   C02K 4717   2.703   7.981  11.511
  149SBC   C01M 4718   2.690   7.871  11.599
  149SBC   C02J 4719   2.777   7.972  11.387
  149SBC   C02I 4720   2.850   7.860  11.342
  149SBC   C02H 4721   2.870   7.731  11.394
  149SBC   C01Q 4722   2.804   7.665  11.498
  149SBC   C02G 4723   2.830   7.528  11.485
  149SBC   C089 4724   2.929   7.513  11.384
  149SBC   C088 4725   2.923   7.381  11.329
  149SBC   C087 4726   2.830   7.315  11.420
  149SBC   C086 4727   2.796   7.172  11.411
  149SBC   C03S 4728   2.717   7.092  11.500
  149SBC   N006 4729   2.730   6.959  11.457
  149SBC   C08F 4730   2.801   6.956  11.346
  149SBC   C01J 4731   2.646   7.113  11.621
  149SBC   C03R 4732   2.582   6.997  11.672
  149SBC   C03Q 4733   2.592   6.867  11.619
  149SBC   C08E 4734   2.848   7.079  11.309
  149SBC   C08D 4735   2.920   7.097  11.185
  149SBC   C08K 4736   2.933   6.977  11.109
  149SBC   C08C 4737   2.966   7.218  11.130
  149SBC   C091 4738   3.000   7.220  10.996
  149SBC   C092 4739   2.994   7.112  10.907
  149SBC   C08B 4740   2.968   7.344  11.190
  149SBC   C090 4741   3.019   7.431  11.079
  149SBC   C094 4742   3.026   7.574  11.090
  149SBC   C095 4743   3.050   7.657  10.978
  149SBC   C09R 4744   3.005   7.785  11.008
  149SBC   C097 4745   2.958   7.793  11.140
  149SBC   C096 4746   2.977   7.661  11.192
  149SBC   C01I 4747   2.774   7.399  11.523
  149SBC   C08A 4748   2.936   7.635  11.319
  149SBC   C09L 4749   2.897   7.893  11.215
  149SBC   C09K 4750   2.863   8.028  11.189
  149SBC   C09J 4751   2.873   8.081  11.062
  149SBC   C09I 4752   2.809   8.199  11.016
  149SBC   C09O 4753   2.721   8.301  11.066
  149SBC   C09N 4754   2.678   8.304  11.200
  149SBC   C09M 4755   2.698   8.201  11.300
  149SBC   C06O 4756   2.598   8.416  11.235
  149SBC   C05M 4757   2.581   8.526  11.142
  149SBC   C06P 4758   2.635   8.521  11.015
  149SBC   C042 4759   2.498   8.634  11.176
  149SBC   C041 4760   2.424   8.633  11.291
  149SBC   C040 4761   2.339   8.738  11.322
  149SBC   C03Z 4762   2.251   8.730  11.431
  149SBC   C03Y 4763   2.266   8.629  11.517
  149SBC   C027 4764   2.180   8.618  11.623
  149SBC   C026 4765   2.189   8.515  11.712
  149SBC   C028 4766   2.102   8.510  11.824
  149SBC   C029 4767   1.999   8.600  11.829
  149SBC   C02B 4768   1.913   8.590  11.940
  149SBC   C02C 4769   1.804   8.681  11.943
  149SBC   C02X 4770   1.705   8.652  12.033
  149SBC   C03E 4771   1.592   8.735  12.031
  149SBC   C03G 4772   1.563   8.826  11.936
  149SBC   C04Q 4773   1.669   8.858  11.848
  149SBC   C04R 4774   1.649   8.948  11.749
  149SBC   C04S 4775   1.746   8.973  11.655
  149SBC   C04L 4776   1.862   8.894  11.655
  149SBC   C04M 4777   1.881   8.796  11.753
  149SBC   C04K 4778   1.957   8.909  11.556
  149SBC   C04F 4779   1.947   9.021  11.474
  149SBC   C04E 4780   1.834   9.107  11.480
  149SBC   C04D 4781   1.826   9.213  11.386
  149SBC   C050 4782   1.709   9.290  11.382
  149SBC   C051 4783   1.713   9.401  11.299
  149SBC   C05Q 4784   1.599   9.478  11.303
  149SBC   C05V 4785   1.607   9.596  11.233
  149SBC   N005 4786   1.498   9.682  11.238
  149SBC   C07V 4787   1.388   9.644  11.314
  149SBC   C082 4788   1.270   9.726  11.313
  149SBC   C081 4789   1.265   9.850  11.242
  149SBC   C07C 4790   1.384   9.887  11.174
  149SBC   C07B 4791   1.394  10.021  11.121
  149SBC   C080 4792   1.288  10.119  11.139
  149SBC   C07Z 4793   1.307  10.241  11.079
  149SBC   H00L 4794   1.226  10.312  11.092
  149SBC   C079 4795   1.415  10.281  11.001
  149SBC   C078 4796   1.509  10.178  10.974
  149SBC   C077 4797   1.602  10.197  10.872
  149SBC   C07X 4798   1.611  10.322  10.807
  149SBC   H00I 4799   1.678  10.342  10.725
  149SBC   C07Y 4800   1.523  10.423  10.836
  149SBC   H00H 4801   1.538  10.515  10.782
  149SBC   C076 4802   1.701  10.100  10.854
  149SBC   C06C 4803   1.803  10.117  10.756
  149SBC   H00C 4804   1.822  10.213  10.709
  149SBC   C06F 4805   1.703   9.983  10.927
  149SBC   C06E 4806   1.799   9.887  10.908
  149SBC   C06G 4807   1.806   9.766  10.968
  149SBC   C06H 4808   1.705   9.742  11.069
  149SBC   C06I 4809   1.600   9.831  11.083
  149SBC   C06L 4810   1.908   9.669  10.942
  149SBC   C06M 4811   1.995   9.679  10.825
  149SBC   C06K 4812   1.921   9.559  11.036
  149SBC   C05S 4813   1.824   9.545  11.137
  149SBC   C05U 4814   2.024   9.461  11.019
  149SBC   C05X 4815   2.108   9.465  10.903
  149SBC   C05G 4816   2.204   9.358  10.905
  149SBC   C05F 4817   2.218   9.275  11.018
  149SBC   C05E 4818   2.302   9.172  10.986
  149SBC   C048 4819   2.327   9.071  11.073
  149SBC   C056 4820   2.403   8.961  11.036
  149SBC   C045 4821   2.407   8.848  11.118
  149SBC   C047 4822   2.240   9.068  11.183
  149SBC   C049 4823   2.144   9.168  11.210
  149SBC   C04B 4824   2.043   9.149  11.302
  149SBC   C046 4825   2.234   8.950  11.259
  149SBC   C04H 4826   2.148   8.941  11.363
  149SBC   C05D 4827   2.361   9.185  10.864
  149SBC   C04A 4828   2.133   9.275  11.127
  149SBC   C05T 4829   2.033   9.369  11.123
  149SBC   C055 4830   1.932   9.349  11.216
  149SBC   C06D 4831   1.884   9.897  10.800
  149SBC   C07W 4832   1.605   9.957  11.019
  149SBC   C085 4833   1.421  10.404  10.930
  149SBC   H00M 4834   1.360  10.490  10.954
  149SBC   C084 4835   1.171  10.079  11.211
  149SBC   H00J 4836   1.088  10.147  11.227
  149SBC   C07A 4837   1.502  10.048  11.039
  149SBC   C083 4838   1.162   9.943  11.250
  149SBC   H00K 4839   1.075   9.912  11.305
  149SBC   O00K 4840   1.157   9.691  11.381
  149SBC   C0GO 4841   1.165   9.582  11.461
  149SBC   C0GN 4842   1.060   9.560  11.547
  149SBC   H01L 4843   0.976   9.628  11.540
  149SBC   C0GM 4844   1.049   9.442  11.628
  149SBC   C0GL 4845   0.937   9.411  11.696
  149SBC   H01M 4846   0.862   9.489  11.699
  149SBC   O00J 4847   0.928   9.284  11.752
  149SBC   C0GK 4848   1.047   9.221  11.782
  149SBC   H01N 4849   1.033   9.124  11.826
  149SBC   C05K 4850   1.164   9.255  11.722
  149SBC   C05J 4851   1.284   9.169  11.737
  149SBC   C04Y 4852   1.305   9.065  11.830
  149SBC   C04X 4853   1.423   8.981  11.828
  149SBC   O006 4854   1.203   9.025  11.914
  149SBC   C053 4855   1.209   8.917  11.993
  149SBC   C04O 4856   1.333   8.849  12.017
  149SBC   C03C 4857   1.364   8.746  12.112
  149SBC   C03B 4858   1.293   8.675  12.208
  149SBC   C054 4859   1.156   8.676  12.218
  149SBC   C0GR 4860   1.083   8.595  12.304
  149SBC   C03M 4861   1.111   8.474  12.379
  149SBC   C03I 4862   1.235   8.395  12.377
  149SBC   C03J 4863   1.230   8.269  12.442
  149SBC   N002 4864   1.346   8.180  12.438
  149SBC   C02U 4865   1.342   8.048  12.491
  149SBC   C02T 4866   1.453   7.967  12.488
  149SBC   C02Z 4867   1.447   7.839  12.539
  149SBC   N001 4868   1.554   7.751  12.525
  149SBC   C02R 4869   1.545   7.621  12.576
  149SBC   C032 4870   1.429   7.580  12.643
  149SBC   C031 4871   1.318   7.667  12.644
  149SBC   H007 4872   1.231   7.634  12.698
  149SBC   C033 4873   1.430   7.447  12.704
  149SBC   H003 4874   1.347   7.411  12.762
  149SBC   O004 4875   1.544   7.368  12.707
  149SBC   C034 4876   1.655   7.412  12.637
  149SBC   C035 4877   1.762   7.325  12.635
  149SBC   C036 4878   1.882   7.360  12.576
  149SBC   H005 4879   1.962   7.288  12.583
  149SBC   C037 4880   1.890   7.491  12.521
  149SBC   H006 4881   1.986   7.518  12.479
  149SBC   C00D 4882   1.775   7.580  12.511
  149SBC   C00C 4883   1.782   7.704  12.445
  149SBC   C00B 4884   1.899   7.753  12.374
  149SBC   C00A 4885   2.030   7.709  12.311
  149SBC   C009 4886   2.097   7.826  12.274
  149SBC   C008 4887   2.205   7.844  12.190
  149SBC   C007 4888   2.261   7.732  12.140
  149SBC   C006 4889   2.358   7.740  12.035
  149SBC   C005 4890   2.406   7.619  11.977
  149SBC   C004 4891   2.351   7.492  12.012
  149SBC   C003 4892   2.242   7.491  12.104
  149SBC   C002 4893   2.176   7.372  12.129
  149SBC   C01C 4894   2.231   7.250  12.092
  149SBC   C01B 4895   2.189   7.129  12.155
  149SBC   H000 4896   2.120   7.120  12.237
  149SBC   C001 4897   2.051   7.375  12.188
  149SBC   C000 4898   1.994   7.495  12.218
  149SBC   C01U 4899   1.857   7.473  12.214
  149SBC   H002 4900   1.777   7.544  12.229
  149SBC   C01T 4901   1.834   7.327  12.191
  149SBC   O002 4902   1.729   7.267  12.173
  149SBC   O001 4903   1.955   7.272  12.176
  149SBC   C01S 4904   2.196   7.606  12.160
  149SBC   C00N 4905   2.224   7.975  12.142
  149SBC   C00M 4906   2.142   8.086  12.174
  149SBC   C00J 4907   2.038   8.065  12.259
  149SBC   C00I 4908   1.924   8.146  12.268
  149SBC   C00H 4909   1.807   8.106  12.330
  149SBC   C00G 4910   1.792   7.980  12.376
  149SBC   C00F 4911   1.680   7.928  12.420
  149SBC   C01X 4912   1.697   8.189  12.334
  149SBC   C01W 4913   1.702   8.309  12.269
  149SBC   C01V 4914   1.815   8.340  12.192
  149SBC   C020 4915   1.821   8.453  12.117
  149SBC   C01Z 4916   1.590   8.393  12.268
  149SBC   C02Y 4917   1.602   8.505  12.195
  149SBC   C039 4918   1.497   8.594  12.200
  149SBC   C02W 4919   1.472   8.353  12.330
  149SBC   C01Y 4920   1.580   8.146  12.389
  149SBC   C00U 4921   1.929   8.258  12.193
  149SBC   C00S 4922   2.041   8.291  12.112
  149SBC   C00T 4923   2.030   8.395  12.021
  149SBC   C00R 4924   2.142   8.196  12.097
  149SBC   C00Q 4925   2.233   8.215  11.995
  149SBC   C00V 4926   2.227   8.327  11.909
  149SBC   C024 4927   2.310   8.330  11.798
  149SBC   C00X 4928   2.409   8.241  11.781
  149SBC   C00P 4929   2.324   8.114  11.974
  149SBC   C00O 4930   2.327   7.990  12.045
  149SBC   C00K 4931   2.024   7.935  12.308
  149SBC   N000 4932   2.069   7.605  12.232
  149SBC   C00L 4933   1.903   7.895  12.359
  149SBC   H004 4934   1.745   7.226  12.676
  149SBC   C02Q 4935   1.659   7.536  12.572
  149SBC   C00E 4936   1.677   7.793  12.456
  149SBC   C030 4937   1.325   7.795  12.595
  149SBC   O003 4938   1.211   7.874  12.600
  149SBC   C02S 4939   1.572   8.017  12.440
  149SBC   C038 4940   1.222   8.000  12.551
  149SBC   C03L 4941   1.114   8.079  12.551
  149SBC   H008 4942   1.020   8.041  12.589
  149SBC   C02V 4943   1.466   8.227  12.385
  149SBC   C03K 4944   1.119   8.212  12.508
  149SBC   C0BK 4945   1.018   8.305  12.530
  149SBC   H00T 4946   0.936   8.271  12.592
  149SBC   C03H 4947   1.361   8.435  12.330
  149SBC   C0BL 4948   1.001   8.425  12.454
  149SBC   C0GU 4949   0.880   8.499  12.458
  149SBC   H01O 4950   0.804   8.466  12.526
  149SBC   C0GT 4951   0.850   8.610  12.383
  149SBC   H01P 4952   0.748   8.642  12.369
  149SBC   C0GS 4953   0.954   8.647  12.302
  149SBC   C0GV 4954   0.945   8.759  12.216
  149SBC   C0GW 4955   0.837   8.842  12.179
  149SBC   H01Q 4956   0.736   8.829  12.215
  149SBC   C0GX 4957   0.862   8.936  12.084
  149SBC   H01R 4958   0.781   8.995  12.044
  149SBC   O00L 4959   0.984   8.954  12.027
  149SBC   C0GQ 4960   1.075   8.779  12.160
  149SBC   C03A 4961   1.372   8.561  12.252
  149SBC   C05L 4962   1.091   8.885  12.067
  149SBC   C04W 4963   1.390   9.197  11.649
  149SBC   C05I 4964   1.385   9.307  11.557
  149SBC   C05O 4965   1.277   9.391  11.557
  149SBC   C052 4966   1.490   9.334  11.466
  149SBC   C04V 4967   1.511   9.123  11.649
  149SBC   C04U 4968   1.619   9.156  11.571
  149SBC   N009 4969   1.163   9.360  11.632
  149SBC   C0GP 4970   1.274   9.498  11.471
  149SBC   C05W 4971   1.385   9.530  11.391
  149SBC   C07D 4972   1.497   9.804  11.167
  149SBC   C06J 4973   1.714   9.630  11.150
  149SBC   C05P 4974   1.488   9.444  11.383
  149SBC   C05R 4975   1.826   9.434  11.221
  149SBC   C04Z 4976   1.608   9.260  11.475
  149SBC   C04C 4977   1.933   9.239  11.307
  149SBC   C04G 4978   2.048   9.033  11.378
  149SBC   C04J 4979   2.057   8.811  11.543
  149SBC   C04T 4980   1.734   9.083  11.571
  149SBC   N003 4981   1.530   9.021  11.740
  149SBC   C04P 4982   1.441   8.890  11.929
  149SBC   C03D 4983   1.491   8.704  12.123
  149SBC   C021 4984   1.714   8.537  12.121
  149SBC   C03F 4985   1.786   8.784  11.850
  149SBC   C022 4986   1.924   8.485  12.029
  149SBC   C02A 4987   1.984   8.703  11.738
  149SBC   C023 4988   2.124   8.416  11.919
  149SBC   C025 4989   2.291   8.425  11.695
  149SBC   C02D 4990   2.369   8.425  11.581
  149SBC   C02E 4991   2.473   8.326  11.561
  149SBC   C02N 4992   2.547   8.319  11.444
  149SBC   C04N 4993   2.075   8.708  11.630
  149SBC   C02P 4994   2.364   8.526  11.490
  149SBC   C04I 4995   2.154   8.826  11.446
  149SBC   C044 4996   2.327   8.845  11.232
  149SBC   C043 4997   2.440   8.523  11.378
  149SBC   C05N 4998   2.527   8.417  11.354
  149SBC   C09U 4999   2.701   8.405  10.972
  149SBC   C09V 5000   2.733   8.402  10.834
  149SBC   C09X 5001   2.794   8.290  10.783
  149SBC   C09Y 5002   2.825   8.266  10.653
  149SBC   C0A1 5003   2.799   8.365  10.566
  149SBC   C0A2 5004   2.743   8.486  10.608
  149SBC   C0A4 5005   2.740   8.594  10.523
  149SBC   C071 5006   2.695   8.714  10.573
  149SBC   C0A5 5007   2.690   8.822  10.489
  149SBC   C0A9 5008   2.741   8.810  10.358
  149SBC   C0A8 5009   2.785   8.686  10.314
  149SBC   C0AP 5010   2.831   8.673  10.185
  149SBC   C0BY 5011   2.874   8.551  10.148
  149SBC   C0BX 5012   2.859   8.433  10.216
  149SBC   C0C2 5013   2.882   8.307  10.159
  149SBC   C0C3 5014   2.896   8.198  10.247
  149SBC   C0CT 5015   2.878   8.216  10.380
  149SBC   C0C1 5016   2.899   8.290  10.020
  149SBC   C0C0 5017   2.920   8.414   9.942
  149SBC   C0A7 5018   2.824   8.448  10.346
  149SBC   C0BZ 5019   2.912   8.534  10.011
  149SBC   C0BO 5020   2.915   8.644   9.926
  149SBC   C0BN 5021   2.858   8.762   9.963
  149SBC   C0BM 5022   2.829   8.853   9.867
  149SBC   C0B9 5023   2.766   8.967   9.898
  149SBC   C0B8 5024   2.740   8.993  10.034
  149SBC   C0AD 5025   2.769   8.897  10.133
  149SBC   C0AF 5026   2.689   9.116  10.079
  149SBC   C0AG 5027   2.654   9.214   9.985
  149SBC   C0B7 5028   2.686   9.190   9.852
  149SBC   C0AE 5029   2.657   9.130  10.212
  149SBC   C0AB 5030   2.673   9.032  10.312
  149SBC   C0AA 5031   2.625   9.042  10.440
  149SBC   C0AJ 5032   2.594   9.242  10.247
  149SBC   C0AK 5033   2.538   9.253  10.373
  149SBC   C06W 5034   2.454   9.362  10.370
  149SBC   C0AI 5035   2.551   9.346  10.164
  149SBC   C0BP 5036   2.928   8.600   9.795
  149SBC   C0BQ 5037   2.905   8.698   9.690
  149SBC   C0BW 5038   2.820   8.780  10.096
  149SBC   C0AC 5039   2.734   8.915  10.270
  149SBC   C0A6 5040   2.785   8.574  10.395
  149SBC   C0A3 5041   2.831   8.341  10.428
  149SBC   C09Z 5042   2.893   8.153  10.604
  149SBC   C09W 5043   2.710   8.503  10.743
  149SBC   C072 5044   2.659   8.621  10.791
  149SBC   C09H 5045   2.841   8.201  10.878
  149SBC   C09G 5046   2.914   8.095  10.838
  149SBC   C09P 5047   2.938   8.016  10.946
  149SBC   C02O 5048   2.777   8.078  11.289
  149SBC   C02M 5049   2.631   8.211  11.421
  149SBC   C02F 5050   2.482   8.233  11.662
  149SBC   C00W 5051   2.413   8.137  11.877
  149SBC   C01R 5052   2.396   7.873  12.000
  149SBC   C01N 5053   2.633   7.915  11.719
  149SBC   C01L 5054   2.724   7.729  11.593
  149SBC   C01H 5055   2.680   7.377  11.631
  149SBC   C01K 5056   2.503   7.608  11.869
  149SBC   C01E 5057   2.397   7.371  11.957
  149SBC   C01G 5058   2.628   7.244  11.683
  149SBC   C01D 5059   2.333   7.252  11.999
  149SBC   C01A 5060   2.239   7.008  12.101
  149SBC   H001 5061   2.211   6.909  12.132
  149SBC   C01F 5062   2.499   7.011  11.782
  149SBC   C03P 5063   2.527   6.756  11.669
  149SBC   C03T 5064   2.674   6.848  11.510
  149SBC   C08I 5065   2.832   6.843  11.277
  149SBC   C08J 5066   2.890   6.853  11.154
  149SBC   C08L 5067   2.976   6.991  10.974
  149SBC   C093 5068   3.027   7.133  10.776
  149SBC   C08Z 5069   3.027   7.351  10.959
  149SBC   C09T 5070   3.076   7.521  10.500
  149SBC   C09S 5071   3.086   7.628  10.851
  149SBC   C09Q 5072   2.997   7.892  10.921
  149SBC   C09F 5073   2.945   8.065  10.700
  149SBC   C09E 5074   3.053   7.765  10.527
  149SBC   C0A0 5075   2.907   8.117  10.473
  149SBC   C0CU 5076   2.930   8.071  10.196
  149SBC   C0CR 5077   2.931   8.051  10.056
  149SBC   C0CZ 5078   2.957   7.920  10.009
  149SBC   C0DA 5079   3.057   7.661  10.429
  149SBC   C0D9 5080   3.183   7.555  10.108
  149SBC   H00V 5081   3.268   7.513  10.159
  149SBC   C0CY 5082   2.984   7.817  10.099
  149SBC   C0DF 5083   3.166   7.549   9.966
  149SBC   C0DE 5084   3.233   7.537   9.836
  149SBC   C0GI 5085   3.325   7.438   9.784
  149SBC   H01K 5086   3.352   7.365   9.859
  149SBC   C0GJ 5087   3.366   7.446   9.655
  149SBC   H01J 5088   3.431   7.372   9.612
  149SBC   O00I 5089   3.323   7.553   9.578
  149SBC   C0GH 5090   3.222   7.647   9.615
  149SBC   C0GG 5091   3.190   7.752   9.522
  149SBC   O00G 5092   3.267   7.755   9.411
  149SBC   C0G8 5093   3.238   7.839   9.307
  149SBC   C0G9 5094   3.301   7.804   9.190
  149SBC   H01G 5095   3.366   7.718   9.184
  149SBC   C0GA 5096   3.279   7.886   9.079
  149SBC   H01H 5097   3.316   7.863   8.980
  149SBC   C0GB 5098   3.195   8.000   9.088
  149SBC   C0EP 5099   3.149   8.043   9.217
  149SBC   C0E8 5100   3.098   8.182   9.227
  149SBC   C0CK 5101   3.065   8.269   9.337
  149SBC   C0CL 5102   2.984   8.205   9.436
  149SBC   C0E9 5103   2.991   8.065   9.473
  149SBC   C0GE 5104   3.081   7.954   9.443
  149SBC   C0E7 5105   3.041   8.239   9.122
  149SBC   C0CJ 5106   2.978   8.360   9.146
  149SBC   C0E6 5107   2.914   8.425   9.042
  149SBC   H00Y 5108   2.860   8.517   9.053
  149SBC   C0EO 5109   2.934   8.364   8.919
  149SBC   H011 5110   2.894   8.416   8.833
  149SBC   C0G6 5111   3.001   8.247   8.891
  149SBC   C0G5 5112   3.020   8.192   8.761
  149SBC   H01F 5113   2.973   8.230   8.671
  149SBC   C0GD 5114   3.113   8.095   8.744
  149SBC   H01I 5115   3.121   8.049   8.647
  149SBC   O00H 5116   3.185   8.036   8.850
  149SBC   C0EQ 5117   3.064   8.182   8.997
  149SBC   C0GC 5118   3.145   8.069   8.975
  149SBC   C0G7 5119   3.163   7.955   9.326
  149SBC   C0DD 5120   3.177   7.633   9.742
  149SBC   C0GF 5121   3.086   7.843   9.539
  149SBC   C0CO 5122   2.895   8.059   9.566
  149SBC   C0D0 5123   2.953   7.904   9.868
  149SBC   C0C4 5124   2.907   8.162   9.967
  149SBC   C0CN 5125   2.824   8.177   9.594
  149SBC   C0CP 5126   2.936   8.454   9.803
  149SBC   C0CM 5127   2.872   8.275   9.502
  149SBC   C0CI 5128   3.010   8.392   9.285
  149SBC   C0CD 5129   2.960   8.872   9.242
  149SBC   C0BR 5130   2.923   8.662   9.552
  149SBC   C0CS 5131   2.860   8.821   9.733
  149SBC   C0B6 5132   2.743   9.065   9.808
  149SBC   C0CG 5133   2.863   9.005   9.410
  149SBC   C0CF 5134   2.907   8.995   9.279
  149SBC   C0E5 5135   3.041   8.972   9.035
  149SBC   C0DT 5136   3.045   9.184   8.861
  149SBC   C0DL 5137   2.874   9.334   9.154
  149SBC   C0DM 5138   2.828   9.458   9.200
  149SBC   C0DY 5139   2.880   9.557   8.988
  149SBC   C0DU 5140   3.030   9.287   8.774
  149SBC   C0F0 5141   3.114   9.393   8.573
  149SBC   C0F4 5142   3.207   9.616   8.458
  149SBC   C0FG 5143   2.967   9.746   8.696
  149SBC   O00B 5144   3.204   9.866   8.464
  149SBC   C0FN 5145   2.973   9.867   8.739
  149SBC   C0DZ 5146   2.894   9.664   8.905
  149SBC   O00C 5147   2.794   9.933   9.141
  149SBC   C0FR 5148   2.719   9.951   9.248
  149SBC   O00D 5149   2.679  10.063   9.271
  149SBC   C0E0 5150   2.832   9.567   9.112
  149SBC   C0E3 5151   2.684   9.835   9.319
  149SBC   C0AW 5152   2.608   9.840   9.436
  149SBC   C0AV 5153   2.519   9.945   9.478
  149SBC   H00Q 5154   2.518  10.039   9.423
  149SBC   C0AU 5155   2.438   9.935   9.592
  149SBC   H00R 5156   2.352   9.998   9.607
  149SBC   C0AT 5157   2.456   9.823   9.678
  149SBC   C0AS 5158   2.400   9.777   9.805
  149SBC   C0AR 5159   2.313   9.860   9.876
  149SBC   C0BE 5160   2.544   9.726   9.643
  149SBC   C0DN 5161   2.771   9.466   9.324
  149SBC   C0AX 5162   2.609   9.726   9.516
  149SBC   C0BB 5163   2.721   9.376   9.535
  149SBC   C0BD 5164   2.541   9.624   9.733
  149SBC   C0B2 5165   2.679   9.292   9.759
  149SBC   C0AH 5166   2.585   9.334  10.025
  149SBC   C0BF 5167   2.459   9.651   9.843
  149SBC   C0AL 5168   2.469   9.428  10.244
  149SBC   C07U 5169   2.301   9.717  10.096
  149SBC   C0AQ 5170   2.266   9.824  10.007
  149SBC   C0BG 5171   2.245   9.983   9.838
  149SBC   C0FY 5172   2.151  10.227  10.077
  149SBC   C0BJ 5173   2.314  10.113   9.817
  149SBC   H00S 5174   2.413  10.136   9.778
  149SBC   C0FZ 5175   2.228  10.344  10.046
  149SBC   C07S 5176   2.134  10.186  10.214
  149SBC   C0G1 5177   2.288  10.485  10.368
  149SBC   C07K 5178   2.148  10.340  10.676
  149SBC   C07H 5179   2.121  10.119  10.489
  149SBC   C06B 5180   1.888  10.012  10.731
  149SBC   C06N 5181   1.969   9.802  10.754
  149SBC   C066 5182   2.142   9.876  10.413
  149SBC   C062 5183   2.251   9.583  10.444
  149SBC   C05Y 5184   2.084   9.566  10.798
  149SBC   C061 5185   2.255   9.450  10.485
  149SBC   C05H 5186   2.289   9.304  10.814
  149SBC   C06V 5187   2.375   9.371  10.479
  149SBC   C06Y 5188   2.557   9.157  10.474
  149SBC   C05C 5189   2.448   9.072  10.826
  149SBC   C06Z 5190   2.634   8.938  10.532
  149SBC   C070 5191   2.647   8.726  10.702
  149SBC   C05B 5192   2.464   8.956  10.913
  149SBC   C057 5193   2.484   8.742  11.090
  149SBC   C059 5194   2.620   8.629  10.924
  150SBC   C058 5195   3.470   1.644   4.793
  150SBC   C05A 5196   3.435   1.652   4.931
  150SBC   C06Q 5197   3.387   1.773   4.982
  150SBC   C06R 5198   3.332   1.778   5.111
  150SBC   C06S 5199   3.339   1.665   5.199
  150SBC   C06T 5200   3.282   1.683   5.327
  150SBC   C06U 5201   3.290   1.594   5.446
  150SBC   C06X 5202   3.307   1.450   5.452
  150SBC   C060 5203   3.294   1.405   5.591
  150SBC   C05Z 5204   3.237   1.279   5.648
  150SBC   C068 5205   3.174   1.328   5.770
  150SBC   C067 5206   3.138   1.256   5.892
  150SBC   C069 5207   3.166   1.112   5.897
  150SBC   C06A 5208   3.163   1.028   6.019
  150SBC   C073 5209   3.233   1.051   6.139
  150SBC   C07P 5210   3.322   0.952   6.194
  150SBC   C07O 5211   3.353   0.820   6.149
  150SBC   H00D 5212   3.303   0.778   6.063
  150SBC   C07N 5213   3.439   0.735   6.225
  150SBC   H00E 5214   3.466   0.635   6.192
  150SBC   C07M 5215   3.502   0.780   6.335
  150SBC   H00F 5216   3.575   0.720   6.387
  150SBC   C07L 5217   3.487   0.907   6.381
  150SBC   C07Q 5218   3.559   0.964   6.497
  150SBC   H00G 5219   3.632   0.904   6.550
  150SBC   O00F 5220   3.554   1.095   6.531
  150SBC   C07J 5221   3.444   1.160   6.480
  150SBC   C07I 5222   3.365   1.113   6.372
  150SBC   N004 5223   3.256   1.194   6.325
  150SBC   C07R 5224   3.204   1.295   6.414
  150SBC   C07T 5225   3.290   1.338   6.510
  150SBC   C0FX 5226   3.265   1.459   6.573
  150SBC   C0FW 5227   3.359   1.542   6.629
  150SBC   C0G0 5228   3.489   1.477   6.644
  150SBC   C0G2 5229   3.596   1.551   6.692
  150SBC   H01E 5230   3.695   1.510   6.704
  150SBC   C0G3 5231   3.579   1.684   6.734
  150SBC   H01C 5232   3.660   1.750   6.760
  150SBC   C0G4 5233   3.450   1.743   6.727
  150SBC   H01D 5234   3.436   1.844   6.763
  150SBC   O00E 5235   3.507   1.346   6.623
  150SBC   C0FV 5236   3.340   1.672   6.674
  150SBC   C0FU 5237   3.207   1.719   6.652
  150SBC   H01B 5238   3.191   1.825   6.666
  150SBC   C0FT 5239   3.107   1.637   6.597
  150SBC   C0FS 5240   2.978   1.658   6.538
  150SBC   C0BI 5241   2.921   1.536   6.480
  150SBC   C0BH 5242   2.853   1.570   6.353
  150SBC   C07F 5243   2.910   1.549   6.225
  150SBC   C07E 5244   2.971   1.437   6.176
  150SBC   C07G 5245   3.040   1.347   6.247
  150SBC   C074 5246   3.106   1.272   6.151
  150SBC   C065 5247   3.021   1.430   6.040
  150SBC   C064 5248   3.004   1.539   5.957
  150SBC   C063 5249   3.080   1.572   5.840
  150SBC   C075 5250   3.046   1.717   5.820
  150SBC   C0AM 5251   2.946   1.774   5.916
  150SBC   C0AN 5252   2.889   1.908   5.925
  150SBC   C0AO 5253   2.889   2.024   5.824
  150SBC   C0B1 5254   2.810   2.145   5.849
  150SBC   C0B0 5255   2.729   2.158   5.959
  150SBC   C0AZ 5256   2.653   2.270   5.998
  150SBC   C0AY 5257   2.586   2.277   6.120
  150SBC   N007 5258   2.514   2.392   6.157
  150SBC   C0E2 5259   2.462   2.402   6.286
  150SBC   C0E1 5260   2.394   2.512   6.317
  150SBC   C0E4 5261   2.349   2.530   6.452
  150SBC   C0FF 5262   2.292   2.649   6.498
  150SBC   C0FJ 5263   2.273   2.706   6.633
  150SBC   C0FK 5264   2.364   2.694   6.746
  150SBC   H016 5265   2.434   2.615   6.769
  150SBC   C0FL 5266   2.346   2.811   6.827
  150SBC   H017 5267   2.403   2.842   6.914
  150SBC   C0FM 5268   2.246   2.891   6.762
  150SBC   C0FH 5269   2.186   3.029   6.744
  150SBC   C0FI 5270   2.132   3.017   6.610
  150SBC   C0F3 5271   2.136   3.123   6.521
  150SBC   C0F2 5272   2.142   3.088   6.389
  150SBC   C0DW 5273   2.167   2.958   6.338
  150SBC   C0FE 5274   2.178   2.857   6.429
  150SBC   C0DV 5275   2.218   2.941   6.209
  150SBC   C0DX 5276   2.278   2.822   6.168
  150SBC   C0DK 5277   2.351   2.822   6.049
  150SBC   C0DJ 5278   2.355   2.934   5.963
  150SBC   C0DI 5279   2.428   2.928   5.846
  150SBC   C0DH 5280   2.496   2.810   5.808
  150SBC   C0DG 5281   2.497   2.700   5.894
  150SBC   C0BV 5282   2.574   2.591   5.859
  150SBC   C0BC 5283   2.571   2.483   5.942
  150SBC   C0BA 5284   2.636   2.588   5.738
  150SBC   C0B4 5285   2.707   2.477   5.701
  150SBC   C0B3 5286   2.716   2.370   5.788
  150SBC   C0B5 5287   2.780   2.470   5.582
  150SBC   C0BU 5288   2.775   2.585   5.497
  150SBC   C0BT 5289   2.706   2.697   5.528
  150SBC   C0BS 5290   2.685   2.801   5.432
  150SBC   C0CC 5291   2.618   2.915   5.472
  150SBC   C0CB 5292   2.608   3.024   5.387
  150SBC   C0CH 5293   2.592   3.148   5.447
  150SBC   C0DO 5294   2.517   3.155   5.567
  150SBC   C0DP 5295   2.462   3.276   5.615
  150SBC   C0EA 5296   2.468   3.387   5.525
  150SBC   H012 5297   2.508   3.388   5.425
  150SBC   O009 5298   2.425   3.513   5.567
  150SBC   C0EH 5299   2.381   3.523   5.696
  150SBC   C0EG 5300   2.371   3.649   5.741
  150SBC   C0EJ 5301   2.380   3.778   5.682
  150SBC   H010 5302   2.412   3.809   5.584
  150SBC   C0EK 5303   2.363   3.878   5.790
  150SBC   H00Z 5304   2.381   3.984   5.779
  150SBC   C0EL 5305   2.340   3.806   5.904
  150SBC   C0EM 5306   2.304   3.838   6.041
  150SBC   C0EW 5307   2.295   3.971   6.096
  150SBC   H013 5308   2.298   4.061   6.036
  150SBC   C0EX 5309   2.281   3.984   6.242
  150SBC   H014 5310   2.263   4.083   6.282
  150SBC   C0F1 5311   2.260   3.870   6.329
  150SBC   C0EU 5312   2.255   3.745   6.271
  150SBC   C0ET 5313   2.231   3.621   6.331
  150SBC   C0ES 5314   2.233   3.530   6.221
  150SBC   C0EE 5315   2.265   3.591   6.100
  150SBC   C0ED 5316   2.307   3.561   5.967
  150SBC   C0EC 5317   2.322   3.426   5.916
  150SBC   C0EB 5318   2.293   3.304   5.987
  150SBC   C0EN 5319   2.228   3.304   6.120
  150SBC   C0ER 5320   2.192   3.175   6.170
  150SBC   C0DS 5321   2.324   3.174   5.936
  150SBC   C0DR 5322   2.393   3.172   5.815
  150SBC   C0EY 5323   2.205   3.397   6.228
  150SBC   C0EZ 5324   2.177   3.328   6.349
  150SBC   C0F5 5325   2.185   3.362   6.492
  150SBC   C0F6 5326   2.203   3.493   6.547
  150SBC   N008 5327   2.198   3.503   6.689
  150SBC   C0F7 5328   2.198   3.393   6.776
  150SBC   C0FQ 5329   2.197   3.417   6.916
  150SBC   H018 5330   2.186   3.336   6.987
  150SBC   C0FP 5331   2.207   3.539   6.986
  150SBC   H019 5332   2.201   3.546   7.093
  150SBC   C0FO 5333   2.214   3.644   6.892
  150SBC   H01A 5334   2.228   3.742   6.935
  150SBC   C0F8 5335   2.185   3.265   6.713
  150SBC   C0F9 5336   2.207   3.631   6.752
  150SBC   C0FA 5337   2.229   3.749   6.679
  150SBC   H015 5338   2.237   3.847   6.722
  150SBC   C0FB 5339   2.225   3.743   6.539
  150SBC   C0FD 5340   2.214   3.618   6.476
  150SBC   C0FC 5341   2.230   3.874   6.468
  150SBC   O00A 5342   2.228   3.985   6.521
  150SBC   C0EV 5343   2.273   3.730   6.133
  150SBC   C0EF 5344   2.341   3.669   5.874
  150SBC   C0EI 5345   2.365   3.410   5.784
  150SBC   C0DQ 5346   2.404   3.288   5.736
  150SBC   C0CE 5347   2.507   3.043   5.648
  150SBC   H00U 5348   2.608   3.236   5.387
  150SBC   C0CA 5349   2.618   2.999   5.247
  150SBC   C0C9 5350   2.677   2.883   5.192
  150SBC   C0C8 5351   2.673   2.861   5.049
  150SBC   C0C7 5352   2.761   2.788   4.964
  150SBC   C0C6 5353   2.743   2.806   4.821
  150SBC   C0C5 5354   2.823   2.792   4.698
  150SBC   C0CQ 5355   2.779   2.871   4.585
  150SBC   C0D1 5356   2.696   2.980   4.612
  150SBC   C0D8 5357   2.744   3.093   4.548
  150SBC   C0D7 5358   2.827   3.044   4.447
  150SBC   C0D6 5359   2.908   3.125   4.359
  150SBC   C0D5 5360   3.000   3.074   4.266
  150SBC   C0D4 5361   3.038   2.938   4.241
  150SBC   C0D3 5362   3.164   2.943   4.178
  150SBC   C0CX 5363   3.240   2.823   4.207
  150SBC   C0CW 5364   3.180   2.765   4.321
  150SBC   C0CV 5365   3.197   2.644   4.403
  150SBC   C0D2 5366   3.299   2.548   4.370
  150SBC   C09D 5367   3.376   2.539   4.254
  150SBC   C09C 5368   3.450   2.425   4.219
  150SBC   C09B 5369   3.507   2.392   4.097
  150SBC   C09A 5370   3.496   2.486   3.997
  150SBC   C099 5371   3.448   2.610   4.021
  150SBC   C098 5372   3.410   2.672   3.900
  150SBC   C08Y 5373   3.423   2.570   3.799
  150SBC   C08X 5374   3.369   2.556   3.666
  150SBC   C08W 5375   3.272   2.656   3.619
  150SBC   C08U 5376   3.207   2.757   3.695
  150SBC   C08V 5377   3.215   2.808   3.833
  150SBC   C0DC 5378   3.145   2.929   3.843
  150SBC   H00W 5379   3.149   2.999   3.926
  150SBC   C0DB 5380   3.060   2.944   3.731
  150SBC   H00X 5381   3.000   3.030   3.706
  150SBC   C08T 5382   3.109   2.847   3.642
  150SBC   C08S 5383   3.072   2.837   3.517
  150SBC   H00N 5384   2.994   2.903   3.484
  150SBC   C08R 5385   3.118   2.737   3.436
  150SBC   C08Q 5386   3.067   2.713   3.305
  150SBC   H00O 5387   2.994   2.787   3.275
  150SBC   C08P 5388   3.099   2.605   3.218
  150SBC   C08O 5389   3.050   2.585   3.082
  150SBC   H00P 5390   2.977   2.653   3.041
  150SBC   C08N 5391   3.083   2.465   3.019
  150SBC   C08M 5392   3.036   2.442   2.882
  150SBC   O008 5393   2.952   2.520   2.825
  150SBC   O007 5394   3.071   2.329   2.815
  150SBC   C08H 5395   3.159   2.240   2.863
  150SBC   C08G 5396   3.177   2.113   2.796
  150SBC   C03V 5397   3.145   2.072   2.667
  150SBC   H009 5398   3.105   2.144   2.597
  150SBC   C03U 5399   3.154   1.938   2.619
  150SBC   C03W 5400   3.091   1.884   2.498
  150SBC   H00A 5401   3.033   1.950   2.435
  150SBC   C03X 5402   3.103   1.751   2.468
  150SBC   H00B 5403   3.062   1.714   2.376
  150SBC   O005 5404   3.172   1.664   2.544
  150SBC   C03O 5405   3.220   1.710   2.665
  150SBC   C03N 5406   3.283   1.616   2.750
  150SBC   O000 5407   3.272   1.489   2.713
  150SBC   C019 5408   3.336   1.394   2.786
  150SBC   C018 5409   3.388   1.430   2.914
  150SBC   C017 5410   3.385   1.563   2.964
  150SBC   C016 5411   3.444   1.596   3.088
  150SBC   C015 5412   3.498   1.487   3.157
  150SBC   C014 5413   3.557   1.508   3.282
  150SBC   C013 5414   3.536   1.638   3.346
  150SBC   C012 5415   3.584   1.608   3.480
  150SBC   C011 5416   3.629   1.474   3.480
  150SBC   C010 5417   3.695   1.416   3.582
  150SBC   C00Z 5418   3.725   1.283   3.604
  150SBC   C00Y 5419   3.752   1.284   3.745
  150SBC   C01O 5420   3.748   1.408   3.801
  150SBC   C01P 5421   3.712   1.430   3.936
  150SBC   C02L 5422   3.661   1.553   3.967
  150SBC   C02K 5423   3.655   1.650   3.865
  150SBC   C01M 5424   3.654   1.615   3.722
  150SBC   C02J 5425   3.635   1.781   3.913
  150SBC   C02I 5426   3.632   1.894   3.837
  150SBC   C02H 5427   3.620   1.916   3.697
  150SBC   C01Q 5428   3.604   1.824   3.592
  150SBC   C02G 5429   3.567   1.898   3.477
  150SBC   C089 5430   3.583   2.033   3.500
  150SBC   C088 5431   3.502   2.106   3.419
  150SBC   C087 5432   3.477   2.013   3.309
  150SBC   C086 5433   3.397   2.044   3.195
  150SBC   C03S 5434   3.371   1.960   3.080
  150SBC   N006 5435   3.304   2.042   2.992
  150SBC   C08F 5436   3.283   2.167   3.048
  150SBC   C01J 5437   3.388   1.827   3.046
  150SBC   C03R 5438   3.342   1.794   2.917
  150SBC   C03Q 5439   3.270   1.882   2.832
  150SBC   C08E 5440   3.339   2.174   3.175
  150SBC   C08D 5441   3.316   2.292   3.252
  150SBC   C08K 5442   3.227   2.392   3.202
  150SBC   C08C 5443   3.376   2.326   3.372
  150SBC   C091 5444   3.348   2.450   3.443
  150SBC   C092 5445   3.251   2.544   3.399
  150SBC   C08B 5446   3.470   2.247   3.450
  150SBC   C090 5447   3.485   2.327   3.576
  150SBC   C094 5448   3.554   2.280   3.696
  150SBC   C095 5449   3.538   2.339   3.825
  150SBC   C09R 5450   3.571   2.245   3.925
  150SBC   C097 5451   3.591   2.124   3.866
  150SBC   C096 5452   3.588   2.144   3.727
  150SBC   C01I 5453   3.508   1.876   3.345
  150SBC   C08A 5454   3.602   2.040   3.643
  150SBC   C09L 5455   3.616   2.000   3.924
  150SBC   C09K 5456   3.612   1.951   4.057
  150SBC   C09J 5457   3.597   2.030   4.165
  150SBC   C09I 5458   3.569   1.983   4.295
  150SBC   C09O 5459   3.562   1.849   4.363
  150SBC   C09N 5460   3.585   1.725   4.295
  150SBC   C09M 5461   3.613   1.704   4.154
  150SBC   C06O 5462   3.588   1.608   4.380
  150SBC   C05M 5463   3.552   1.621   4.520
  150SBC   C06P 5464   3.510   1.743   4.576
  150SBC   C042 5465   3.545   1.511   4.603
  150SBC   C041 5466   3.572   1.385   4.548
  150SBC   C040 5467   3.562   1.273   4.628
  150SBC   C03Z 5468   3.582   1.146   4.577
  150SBC   C03Y 5469   3.618   1.127   4.443
  150SBC   C027 5470   3.635   1.000   4.392
  150SBC   C026 5471   3.667   0.982   4.254
  150SBC   C028 5472   3.662   0.858   4.196
  150SBC   C029 5473   3.647   0.748   4.278
  150SBC   C02B 5474   3.639   0.626   4.215
  150SBC   C02C 5475   3.620   0.515   4.291
  150SBC   C02X 5476   3.617   0.387   4.230
  150SBC   C03E 5477   3.593   0.276   4.306
  150SBC   C03G 5478   3.551   0.277   4.436
  150SBC   C04Q 5479   3.554   0.403   4.498
  150SBC   C04R 5480   3.508   0.417   4.626
  150SBC   C04S 5481   3.500   0.544   4.689
  150SBC   C04L 5482   3.543   0.657   4.620
  150SBC   C04M 5483   3.592   0.648   4.488
  150SBC   C04K 5484   3.528   0.785   4.669
  150SBC   C04F 5485   3.484   0.800   4.798
  150SBC   C04E 5486   3.444   0.689   4.872
  150SBC   C04D 5487   3.389   0.702   4.999
  150SBC   C050 5488   3.338   0.594   5.069
  150SBC   C051 5489   3.279   0.614   5.195
  150SBC   C05Q 5490   3.206   0.510   5.254
  150SBC   C05V 5491   3.147   0.529   5.380
  150SBC   N005 5492   3.076   0.425   5.441
  150SBC   C07V 5493   3.073   0.305   5.376
  150SBC   C082 5494   2.997   0.204   5.428
  150SBC   C081 5495   2.911   0.224   5.542
  150SBC   C07C 5496   2.933   0.335   5.618
  150SBC   C07B 5497   2.865   0.358   5.742
  150SBC   C080 5498   2.777   0.261   5.794
  150SBC   C07Z 5499   2.720   0.290   5.918
  150SBC   H00L 5500   2.665   0.209   5.964
  150SBC   C079 5501   2.751   0.400   5.996
  150SBC   C078 5502   2.848   0.493   5.944
  150SBC   C077 5503   2.892   0.602   6.021
  150SBC   C07X 5504   2.835   0.623   6.150
  150SBC   H00I 5505   2.873   0.696   6.220
  150SBC   C07Y 5506   2.735   0.539   6.197
  150SBC   H00H 5507   2.707   0.556   6.300
  150SBC   C076 5508   2.978   0.698   5.971
  150SBC   C06C 5509   3.031   0.805   6.050
  150SBC   H00C 5510   3.016   0.814   6.157
  150SBC   C06F 5511   3.002   0.692   5.836
  150SBC   C06E 5512   3.073   0.794   5.770
  150SBC   C06G 5513   3.121   0.790   5.640
  150SBC   C06H 5514   3.100   0.670   5.573
  150SBC   C06I 5515   3.035   0.562   5.634
  150SBC   C06L 5516   3.188   0.899   5.583
  150SBC   C06M 5517   3.200   1.025   5.650
  150SBC   C06K 5518   3.240   0.883   5.453
  150SBC   C05S 5519   3.235   0.757   5.389
  150SBC   C05U 5520   3.296   0.994   5.386
  150SBC   C05X 5521   3.290   1.126   5.452
  150SBC   C05G 5522   3.336   1.226   5.355
  150SBC   C05F 5523   3.384   1.192   5.227
  150SBC   C05E 5524   3.412   1.307   5.149
  150SBC   C048 5525   3.454   1.299   5.015
  150SBC   C056 5526   3.462   1.422   4.949
  150SBC   C045 5527   3.496   1.410   4.813
  150SBC   C047 5528   3.464   1.174   4.965
  150SBC   C049 5529   3.436   1.061   5.045
  150SBC   C04B 5530   3.434   0.939   4.988
  150SBC   C046 5531   3.498   1.166   4.832
  150SBC   C04H 5532   3.508   1.042   4.778
  150SBC   C05D 5533   3.386   1.421   5.220
  150SBC   C04A 5534   3.395   1.070   5.175
  150SBC   C05T 5535   3.355   0.969   5.260
  150SBC   C055 5536   3.347   0.841   5.198
  150SBC   C06D 5537   3.105   0.904   5.844
  150SBC   C07W 5538   2.979   0.577   5.764
  150SBC   C085 5539   2.696   0.427   6.124
  150SBC   H00M 5540   2.638   0.349   6.172
  150SBC   C084 5541   2.746   0.157   5.706
  150SBC   H00J 5542   2.682   0.072   5.727
  150SBC   C07A 5543   2.898   0.475   5.817
  150SBC   C083 5544   2.815   0.138   5.592
  150SBC   H00K 5545   2.801   0.051   5.529
  150SBC   O00K 5546   2.994   0.080   5.365
  150SBC   C0GO 5547   3.066   0.054   5.254
  150SBC   C0GN 5548   3.053  -0.070   5.183
  150SBC   H01L 5549   2.980  -0.140   5.222
  150SBC   C0GM 5550   3.128  -0.096   5.069
  150SBC   C0GL 5551   3.107  -0.211   5.010
  150SBC   H01M 5552   3.026  -0.275   5.043
  150SBC   O00J 5553   3.172  -0.249   4.897
  150SBC   C0GK 5554   3.257  -0.153   4.846
  150SBC   H01N 5555   3.314  -0.191   4.763
  150SBC   C05K 5556   3.267  -0.028   4.896
  150SBC   C05J 5557   3.338   0.085   4.828
  150SBC   C04Y 5558   3.401   0.071   4.703
  150SBC   C04X 5559   3.453   0.178   4.629
  150SBC   O006 5560   3.395  -0.049   4.637
  150SBC   C053 5561   3.429  -0.067   4.506
  150SBC   C04O 5562   3.480   0.044   4.433
  150SBC   C03C 5563   3.517   0.048   4.292
  150SBC   C03B 5564   3.511  -0.042   4.179
  150SBC   C054 5565   3.458  -0.165   4.189
  150SBC   C0GR 5566   3.449  -0.250   4.076
  150SBC   C03M 5567   3.458  -0.244   3.925
  150SBC   C03I 5568   3.487  -0.120   3.856
  150SBC   C03J 5569   3.469  -0.117   3.712
  150SBC   N002 5570   3.480   0.005   3.634
  150SBC   C02U 5571   3.455   0.011   3.500
  150SBC   C02T 5572   3.457   0.128   3.424
  150SBC   C02Z 5573   3.426   0.130   3.289
  150SBC   N001 5574   3.446   0.247   3.210
  150SBC   C02R 5575   3.426   0.242   3.071
  150SBC   C032 5576   3.371   0.125   3.011
  150SBC   C031 5577   3.352   0.012   3.090
  150SBC   H007 5578   3.319  -0.076   3.036
  150SBC   C033 5579   3.342   0.133   2.869
  150SBC   H003 5580   3.307   0.046   2.816
  150SBC   O004 5581   3.383   0.247   2.793
  150SBC   C034 5582   3.456   0.347   2.856
  150SBC   C035 5583   3.509   0.443   2.776
  150SBC   C036 5584   3.584   0.552   2.833
  150SBC   H005 5585   3.618   0.634   2.772
  150SBC   C037 5586   3.593   0.558   2.971
  150SBC   H006 5587   3.654   0.639   3.009
  150SBC   C00D 5588   3.521   0.469   3.053
  150SBC   C00C 5589   3.516   0.481   3.190
  150SBC   C00B 5590   3.559   0.604   3.265
  150SBC   C00A 5591   3.601   0.749   3.248
  150SBC   C009 5592   3.647   0.789   3.373
  150SBC   C008 5593   3.663   0.917   3.431
  150SBC   C007 5594   3.622   1.024   3.354
  150SBC   C006 5595   3.643   1.155   3.404
  150SBC   C005 5596   3.605   1.267   3.321
  150SBC   C004 5597   3.539   1.243   3.196
  150SBC   C003 5598   3.520   1.111   3.151
  150SBC   C002 5599   3.464   1.086   3.028
  150SBC   C01C 5600   3.440   1.187   2.943
  150SBC   C01B 5601   3.406   1.162   2.806
  150SBC   H000 5602   3.424   1.065   2.762
  150SBC   C001 5603   3.417   0.958   2.999
  150SBC   C000 5604   3.454   0.852   3.082
  150SBC   C01U 5605   3.377   0.744   3.040
  150SBC   H002 5606   3.362   0.649   3.089
  150SBC   C01T 5607   3.326   0.781   2.906
  150SBC   O002 5608   3.268   0.709   2.822
  150SBC   O001 5609   3.342   0.912   2.898
  150SBC   C01S 5610   3.553   0.999   3.238
  150SBC   C00N 5611   3.702   0.925   3.561
  150SBC   C00M 5612   3.699   0.815   3.646
  150SBC   C00J 5613   3.656   0.693   3.595
  150SBC   C00I 5614   3.639   0.580   3.666
  150SBC   C00H 5615   3.606   0.463   3.604
  150SBC   C00G 5616   3.583   0.455   3.468
  150SBC   C00F 5617   3.526   0.355   3.407
  150SBC   C01X 5618   3.581   0.352   3.681
  150SBC   C01W 5619   3.596   0.360   3.816
  150SBC   C01V 5620   3.631   0.478   3.874
  150SBC   C020 5621   3.638   0.490   4.010
  150SBC   C01Z 5622   3.580   0.247   3.892
  150SBC   C02Y 5623   3.593   0.261   4.026
  150SBC   C039 5624   3.579   0.150   4.102
  150SBC   C02W 5625   3.543   0.126   3.836
  150SBC   C01Y 5626   3.528   0.240   3.619
  150SBC   C00U 5627   3.646   0.588   3.801
  150SBC   C00S 5628   3.670   0.711   3.862
  150SBC   C00T 5629   3.661   0.729   3.996
  150SBC   C00R 5630   3.697   0.819   3.781
  150SBC   C00Q 5631   3.706   0.942   3.841
  150SBC   C00V 5632   3.702   0.955   3.978
  150SBC   C024 5633   3.708   1.080   4.043
  150SBC   C00X 5634   3.724   1.192   3.964
  150SBC   C00P 5635   3.728   1.052   3.760
  150SBC   C00O 5636   3.717   1.049   3.620
  150SBC   C00K 5637   3.642   0.685   3.460
  150SBC   N000 5638   3.534   0.861   3.193
  150SBC   C00L 5639   3.601   0.572   3.395
  150SBC   H004 5640   3.502   0.428   2.670
  150SBC   C02Q 5641   3.467   0.355   2.995
  150SBC   C00E 5642   3.501   0.362   3.271
  150SBC   C030 5643   3.386   0.009   3.227
  150SBC   O003 5644   3.384  -0.104   3.301
  150SBC   C02S 5645   3.496   0.244   3.486
  150SBC   C038 5646   3.417  -0.109   3.435
  150SBC   C03L 5647   3.417  -0.229   3.506
  150SBC   H008 5648   3.398  -0.322   3.454
  150SBC   C02V 5649   3.520   0.124   3.698
  150SBC   C03K 5650   3.442  -0.234   3.640
  150SBC   C0BK 5651   3.443  -0.352   3.715
  150SBC   H00T 5652   3.430  -0.447   3.665
  150SBC   C03H 5653   3.525   0.007   3.910
  150SBC   C0BL 5654   3.451  -0.367   3.853
  150SBC   C0GU 5655   3.441  -0.487   3.922
  150SBC   H01O 5656   3.430  -0.578   3.864
  150SBC   C0GT 5657   3.418  -0.502   4.059
  150SBC   H01P 5658   3.387  -0.592   4.109
  150SBC   C0GS 5659   3.425  -0.381   4.129
  150SBC   C0GV 5660   3.412  -0.370   4.272
  150SBC   C0GW 5661   3.379  -0.477   4.365
  150SBC   H01Q 5662   3.363  -0.580   4.337
  150SBC   C0GX 5663   3.365  -0.437   4.490
  150SBC   H01R 5664   3.334  -0.515   4.558
  150SBC   O00L 5665   3.388  -0.305   4.541
  150SBC   C0GQ 5666   3.433  -0.235   4.310
  150SBC   C03A 5667   3.526   0.028   4.058
  150SBC   C05L 5668   3.423  -0.202   4.451
  150SBC   C04W 5669   3.337   0.210   4.889
  150SBC   C05I 5670   3.283   0.235   5.019
  150SBC   C05O 5671   3.216   0.133   5.082
  150SBC   C052 5672   3.277   0.364   5.074
  150SBC   C04V 5673   3.396   0.319   4.828
  150SBC   C04U 5674   3.402   0.449   4.881
  150SBC   N009 5675   3.207   0.005   5.017
  150SBC   C0GP 5676   3.146   0.154   5.197
  150SBC   C05W 5677   3.142   0.283   5.257
  150SBC   C07D 5678   3.018   0.439   5.570
  150SBC   C06J 5679   3.158   0.655   5.448
  150SBC   C05P 5680   3.207   0.385   5.192
  150SBC   C05R 5681   3.293   0.735   5.265
  150SBC   C04Z 5682   3.341   0.467   5.007
  150SBC   C04C 5683   3.390   0.825   5.065
  150SBC   C04G 5684   3.477   0.930   4.856
  150SBC   C04J 5685   3.567   0.898   4.600
  150SBC   C04T 5686   3.451   0.559   4.816
  150SBC   N003 5687   3.452   0.304   4.695
  150SBC   C04P 5688   3.497   0.165   4.503
  150SBC   C03D 5689   3.576   0.159   4.240
  150SBC   C021 5690   3.624   0.379   4.091
  150SBC   C03F 5691   3.591   0.522   4.428
  150SBC   C022 5692   3.650   0.614   4.072
  150SBC   C02A 5693   3.624   0.760   4.413
  150SBC   C023 5694   3.676   0.845   4.057
  150SBC   C025 5695   3.683   1.096   4.175
  150SBC   C02D 5696   3.661   1.224   4.226
  150SBC   C02E 5697   3.663   1.334   4.144
  150SBC   C02N 5698   3.637   1.462   4.193
  150SBC   C04N 5699   3.609   0.886   4.468
  150SBC   C02P 5700   3.630   1.239   4.362
  150SBC   C04I 5701   3.548   1.028   4.648
  150SBC   C044 5702   3.520   1.283   4.758
  150SBC   C043 5703   3.604   1.365   4.414
  150SBC   C05N 5704   3.612   1.478   4.332
  150SBC   C09U 5705   3.520   1.856   4.498
  150SBC   C09V 5706   3.458   1.971   4.548
  150SBC   C09X 5707   3.463   2.098   4.486
  150SBC   C09Y 5708   3.401   2.216   4.524
  150SBC   C0A1 5709   3.335   2.214   4.638
  150SBC   C0A2 5710   3.351   2.100   4.722
  150SBC   C0A4 5711   3.299   2.110   4.849
  150SBC   C071 5712   3.318   2.003   4.941
  150SBC   C0A5 5713   3.259   2.009   5.066
  150SBC   C0A9 5714   3.188   2.124   5.104
  150SBC   C0A8 5715   3.179   2.232   5.018
  150SBC   C0AP 5716   3.108   2.342   5.059
  150SBC   C0BY 5717   3.088   2.445   4.972
  150SBC   C0BX 5718   3.128   2.446   4.841
  150SBC   C0C2 5719   3.089   2.544   4.748
  150SBC   C0C3 5720   3.149   2.543   4.617
  150SBC   C0CT 5721   3.241   2.440   4.584
  150SBC   C0C1 5722   3.008   2.651   4.782
  150SBC   C0C0 5723   2.966   2.652   4.925
  150SBC   C0A7 5724   3.208   2.334   4.800
  150SBC   C0BZ 5725   3.005   2.549   5.007
  150SBC   C0BO 5726   2.954   2.554   5.131
  150SBC   C0BN 5727   2.969   2.449   5.221
  150SBC   C0BM 5728   2.906   2.464   5.345
  150SBC   C0B9 5729   2.923   2.361   5.434
  150SBC   C0B8 5730   2.993   2.246   5.395
  150SBC   C0AD 5731   3.060   2.242   5.270
  150SBC   C0AF 5732   3.005   2.139   5.478
  150SBC   C0AG 5733   2.942   2.139   5.605
  150SBC   C0B7 5734   2.862   2.250   5.639
  150SBC   C0AE 5735   3.072   2.031   5.432
  150SBC   C0AB 5736   3.133   2.016   5.310
  150SBC   C0AA 5737   3.215   1.907   5.274
  150SBC   C0AJ 5738   3.091   1.929   5.524
  150SBC   C0AK 5739   3.167   1.822   5.492
  150SBC   C06W 5740   3.178   1.745   5.601
  150SBC   C0AI 5741   3.042   1.924   5.657
  150SBC   C0BP 5742   2.871   2.661   5.142
  150SBC   C0BQ 5743   2.806   2.677   5.272
  150SBC   C0BW 5744   3.048   2.344   5.178
  150SBC   C0AC 5745   3.124   2.132   5.228
  150SBC   C0A6 5746   3.228   2.223   4.889
  150SBC   C0A3 5747   3.263   2.331   4.672
  150SBC   C09Z 5748   3.396   2.329   4.435
  150SBC   C09W 5749   3.410   1.982   4.680
  150SBC   C072 5750   3.422   1.875   4.761
  150SBC   C09H 5751   3.541   2.101   4.370
  150SBC   C09G 5752   3.542   2.214   4.290
  150SBC   C09P 5753   3.566   2.170   4.163
  150SBC   C02O 5754   3.621   1.813   4.055
  150SBC   C02M 5755   3.639   1.575   4.106
  150SBC   C02F 5756   3.703   1.319   4.016
  150SBC   C00W 5757   3.740   1.173   3.828
  150SBC   C01R 5758   3.702   1.161   3.530
  150SBC   C01N 5759   3.703   1.486   3.700
  150SBC   C01L 5760   3.613   1.688   3.599
  150SBC   C01H 5761   3.494   1.754   3.272
  150SBC   C01K 5762   3.605   1.405   3.364
  150SBC   C01E 5763   3.493   1.353   3.116
  150SBC   C01G 5764   3.440   1.730   3.136
  150SBC   C01D 5765   3.443   1.324   2.992
  150SBC   C01A 5766   3.345   1.262   2.733
  150SBC   H001 5767   3.289   1.238   2.644
  150SBC   C01F 5768   3.339   1.661   2.879
  150SBC   C03P 5769   3.217   1.847   2.704
  150SBC   C03T 5770   3.252   2.013   2.865
  150SBC   C08I 5771   3.209   2.262   2.994
  150SBC   C08J 5772   3.170   2.370   3.075
  150SBC   C08L 5773   3.192   2.515   3.273
  150SBC   C093 5774   3.220   2.651   3.490
  150SBC   C08Z 5775   3.405   2.453   3.574
  150SBC   C09T 5776   3.306   2.765   3.942
  150SBC   C09S 5777   3.494   2.466   3.858
  150SBC   C09Q 5778   3.557   2.266   4.064
  150SBC   C09F 5779   3.465   2.329   4.321
  150SBC   C09E 5780   3.367   2.628   4.137
  150SBC   C0A0 5781   3.308   2.439   4.461
  150SBC   C0CU 5782   3.117   2.642   4.524
  150SBC   C0CR 5783   3.016   2.739   4.552
  150SBC   C0CZ 5784   2.979   2.830   4.456
  150SBC   C0DA 5785   3.294   2.745   4.093
  150SBC   C0D9 5786   3.214   3.081   4.183
  150SBC   H00V 5787   3.317   3.109   4.170
  150SBC   C0CY 5788   3.063   2.843   4.340
  150SBC   C0DF 5789   3.104   3.157   4.239
  150SBC   C0DE 5790   3.067   3.281   4.299
  150SBC   C0GI 5791   3.120   3.416   4.297
  150SBC   H01K 5792   3.216   3.435   4.251
  150SBC   C0GJ 5793   3.051   3.513   4.361
  150SBC   H01J 5794   3.091   3.610   4.335
  150SBC   O00I 5795   2.935   3.500   4.433
  150SBC   C0GH 5796   2.886   3.367   4.451
  150SBC   C0GG 5797   2.779   3.352   4.546
  150SBC   O00G 5798   2.735   3.463   4.604
  150SBC   C0G8 5799   2.641   3.465   4.704
  150SBC   C0G9 5800   2.590   3.592   4.742
  150SBC   H01G 5801   2.612   3.680   4.682
  150SBC   C0GA 5802   2.487   3.593   4.835
  150SBC   H01H 5803   2.440   3.687   4.862
  150SBC   C0GB 5804   2.444   3.478   4.919
  150SBC   C0EP 5805   2.524   3.366   4.897
  150SBC   C0E8 5806   2.526   3.272   5.007
  150SBC   C0CK 5807   2.608   3.158   5.042
  150SBC   C0CL 5808   2.602   3.065   4.934
  150SBC   C0E9 5809   2.621   3.109   4.796
  150SBC   C0GE 5810   2.650   3.233   4.719
  150SBC   C0E7 5811   2.428   3.281   5.110
  150SBC   C0CJ 5812   2.434   3.175   5.204
  150SBC   C0E6 5813   2.328   3.158   5.295
  150SBC   H00Y 5814   2.323   3.072   5.359
  150SBC   C0EO 5815   2.237   3.267   5.295
  150SBC   H011 5816   2.145   3.263   5.351
  150SBC   C0G6 5817   2.227   3.367   5.190
  150SBC   C0G5 5818   2.121   3.465   5.173
  150SBC   H01F 5819   2.028   3.456   5.228
  150SBC   C0GD 5820   2.127   3.563   5.081
  150SBC   H01I 5821   2.044   3.629   5.063
  150SBC   O00H 5822   2.237   3.578   4.995
  150SBC   C0EQ 5823   2.330   3.382   5.101
  150SBC   C0GC 5824   2.333   3.481   5.008
  150SBC   C0G7 5825   2.609   3.351   4.782
  150SBC   C0DD 5826   2.945   3.261   4.372
  150SBC   C0GF 5827   2.724   3.227   4.597
  150SBC   C0CO 5828   2.637   2.992   4.734
  150SBC   C0D0 5829   2.865   2.913   4.489
  150SBC   C0C4 5830   2.948   2.727   4.680
  150SBC   C0CN 5831   2.619   2.874   4.818
  150SBC   C0CP 5832   2.876   2.730   5.011
  150SBC   C0CM 5833   2.587   2.924   4.951
  150SBC   C0CI 5834   2.562   3.108   5.174
  150SBC   C0CD 5835   2.565   2.922   5.607
  150SBC   C0BR 5836   2.730   2.792   5.296
  150SBC   C0CS 5837   2.831   2.578   5.370
  150SBC   C0B6 5838   2.851   2.359   5.548
  150SBC   C0CG 5839   2.637   2.698   5.649
  150SBC   C0CF 5840   2.567   2.809   5.692
  150SBC   C0E5 5841   2.440   3.049   5.773
  150SBC   C0DT 5842   2.297   3.055   6.000
  150SBC   C0DL 5843   2.424   2.709   6.011
  150SBC   C0DM 5844   2.429   2.608   6.100
  150SBC   C0DY 5845   2.293   2.720   6.262
  150SBC   C0DU 5846   2.234   3.050   6.123
  150SBC   C0F0 5847   2.164   3.195   6.306
  150SBC   C0F4 5848   2.165   3.251   6.572
  150SBC   C0FG 5849   2.138   2.884   6.560
  150SBC   O00B 5850   2.209   3.152   6.800
  150SBC   C0FN 5851   2.186   2.807   6.661
  150SBC   C0DZ 5852   2.248   2.740   6.396
  150SBC   O00C 5853   2.365   2.429   6.548
  150SBC   C0FR 5854   2.416   2.304   6.511
  150SBC   O00D 5855   2.433   2.223   6.600
  150SBC   C0E0 5856   2.372   2.613   6.227
  150SBC   C0E3 5857   2.471   2.291   6.380
  150SBC   C0AW 5858   2.532   2.171   6.338
  150SBC   C0AV 5859   2.540   2.045   6.411
  150SBC   H00Q 5860   2.504   2.027   6.511
  150SBC   C0AU 5861   2.602   1.932   6.362
  150SBC   H00R 5862   2.608   1.846   6.426
  150SBC   C0AT 5863   2.664   1.938   6.238
  150SBC   C0AS 5864   2.767   1.865   6.164
  150SBC   C0AR 5865   2.840   1.765   6.226
  150SBC   C0BE 5866   2.656   2.063   6.169
  150SBC   C0DN 5867   2.504   2.492   6.063
  150SBC   C0AX 5868   2.588   2.175   6.214
  150SBC   C0BB 5869   2.644   2.376   5.908
  150SBC   C0BD 5870   2.732   2.054   6.050
  150SBC   C0B2 5871   2.795   2.254   5.761
  150SBC   C0AH 5872   2.954   2.031   5.698
  150SBC   C0BF 5873   2.806   1.936   6.038
  150SBC   C0AL 5874   3.097   1.801   5.709
  150SBC   C07U 5875   2.938   1.658   6.005
  150SBC   C0AQ 5876   2.892   1.656   6.139
  150SBC   C0BG 5877   2.832   1.710   6.357
  150SBC   C0FY 5878   3.036   1.451   6.479
  150SBC   C0BJ 5879   2.917   1.769   6.465
  150SBC   H00S 5880   2.950   1.871   6.453
  150SBC   C0FZ 5881   3.136   1.505   6.563
  150SBC   C07S 5882   3.079   1.356   6.385
  150SBC   C0G1 5883   3.416   1.280   6.542
  150SBC   C07K 5884   3.397   0.992   6.310
  150SBC   C07H 5885   3.189   1.166   6.199
  150SBC   C06B 5886   3.099   0.905   5.981
  150SBC   C06N 5887   3.172   1.011   5.790
  150SBC   C066 5888   3.086   1.311   6.015
  150SBC   C062 5889   3.160   1.475   5.766
  150SBC   C05Y 5890   3.239   1.143   5.583
  150SBC   C061 5891   3.259   1.519   5.668
  150SBC   C05H 5892   3.340   1.368   5.345
  150SBC   C06V 5893   3.248   1.629   5.575
  150SBC   C06Y 5894   3.219   1.806   5.358
  150SBC   C05C 5895   3.396   1.549   5.148
  150SBC   C06Z 5896   3.266   1.898   5.148
  150SBC   C070 5897   3.379   1.885   4.895
  150SBC   C05B 5898   3.435   1.541   5.013
  150SBC   C057 5899   3.505   1.522   4.738
  150SBC   C059 5900   3.467   1.754   4.714
  151SBC   C058 5901   5.555   2.239  15.207
  151SBC   C05A 5902   5.418   2.226  15.181
  151SBC   C06Q 5903   5.368   2.226  15.052
  151SBC   C06R 5904   5.229   2.225  15.027
  151SBC   C06S 5905   5.130   2.221  15.128
  151SBC   C06T 5906   4.990   2.219  15.091
  151SBC   C06U 5907   4.869   2.209  15.174
  151SBC   C06X 5908   4.847   2.192  15.312
  151SBC   C060 5909   4.707   2.173  15.336
  151SBC   C05Z 5910   4.624   2.211  15.453
  151SBC   C068 5911   4.495   2.249  15.388
  151SBC   C067 5912   4.371   2.300  15.454
  151SBC   C069 5913   4.353   2.274  15.600
  151SBC   C06A 5914   4.237   2.307  15.680
  151SBC   C073 5915   4.153   2.417  15.678
  151SBC   C07P 5916   4.135   2.486  15.801
  151SBC   C07O 5917   4.228   2.498  15.914
  151SBC   H00D 5918   4.325   2.450  15.917
  151SBC   C07N 5919   4.192   2.549  16.040
  151SBC   H00E 5920   4.259   2.549  16.125
  151SBC   C07M 5921   4.072   2.606  16.039
  151SBC   H00F 5922   4.031   2.640  16.133
  151SBC   C07L 5923   3.980   2.619  15.932
  151SBC   C07Q 5924   3.857   2.690  15.934
  151SBC   H00G 5925   3.841   2.751  16.022
  151SBC   O00F 5926   3.768   2.704  15.832
  151SBC   C07J 5927   3.811   2.642  15.711
  151SBC   C07I 5928   3.935   2.578  15.693
  151SBC   N004 5929   3.964   2.506  15.571
  151SBC   C07R 5930   3.870   2.515  15.462
  151SBC   C07T 5931   3.762   2.605  15.478
  151SBC   C0FX 5932   3.683   2.641  15.373
  151SBC   C0FW 5933   3.583   2.735  15.374
  151SBC   C0G0 5934   3.554   2.794  15.498
  151SBC   C0G2 5935   3.451   2.888  15.514
  151SBC   H01E 5936   3.427   2.922  15.613
  151SBC   C0G3 5937   3.378   2.924  15.399
  151SBC   H01C 5938   3.307   3.005  15.405
  151SBC   C0G4 5939   3.406   2.868  15.272
  151SBC   H01D 5940   3.360   2.899  15.179
  151SBC   O00E 5941   3.622   2.755  15.608
  151SBC   C0FV 5942   3.506   2.770  15.257
  151SBC   C0FU 5943   3.547   2.712  15.134
  151SBC   H01B 5944   3.494   2.735  15.043
  151SBC   C0FT 5945   3.643   2.605  15.135
  151SBC   C0FS 5946   3.728   2.534  15.051
  151SBC   C0BI 5947   3.791   2.423  15.115
  151SBC   C0BH 5948   3.907   2.396  15.041
  151SBC   C07F 5949   4.039   2.400  15.084
  151SBC   C07E 5950   4.086   2.386  15.211
  151SBC   C07G 5951   4.022   2.399  15.329
  151SBC   C074 5952   4.120   2.392  15.426
  151SBC   C065 5953   4.225   2.365  15.240
  151SBC   C064 5954   4.308   2.354  15.127
  151SBC   C063 5955   4.436   2.301  15.117
  151SBC   C075 5956   4.468   2.310  14.971
  151SBC   C0AM 5957   4.363   2.371  14.891
  151SBC   C0AN 5958   4.362   2.407  14.742
  151SBC   C0AO 5959   4.470   2.409  14.633
  151SBC   C0B1 5960   4.448   2.458  14.499
  151SBC   C0B0 5961   4.329   2.504  14.456
  151SBC   C0AZ 5962   4.298   2.568  14.334
  151SBC   C0AY 5963   4.172   2.626  14.310
  151SBC   N007 5964   4.149   2.698  14.193
  151SBC   C0E2 5965   4.025   2.768  14.180
  151SBC   C0E1 5966   4.007   2.831  14.061
  151SBC   C0E4 5967   3.888   2.907  14.038
  151SBC   C0FF 5968   3.857   2.963  13.912
  151SBC   C0FJ 5969   3.742   3.044  13.864
  151SBC   C0FK 5970   3.667   3.126  13.949
  151SBC   H016 5971   3.649   3.122  14.055
  151SBC   C0FL 5972   3.616   3.233  13.866
  151SBC   H017 5973   3.564   3.326  13.886
  151SBC   C0FM 5974   3.672   3.220  13.736
  151SBC   C0FH 5975   3.727   3.289  13.621
  151SBC   C0FI 5976   3.816   3.187  13.565
  151SBC   C0F3 5977   3.931   3.222  13.496
  151SBC   C0F2 5978   4.035   3.133  13.505
  151SBC   C0DW 5979   4.046   3.031  13.598
  151SBC   C0FE 5980   3.938   3.003  13.681
  151SBC   C0DV 5981   4.165   2.973  13.625
  151SBC   C0DX 5982   4.178   2.897  13.735
  151SBC   C0DK 5983   4.309   2.847  13.761
  151SBC   C0DJ 5984   4.417   2.868  13.671
  151SBC   C0DI 5985   4.540   2.815  13.696
  151SBC   C0DH 5986   4.556   2.734  13.812
  151SBC   C0DG 5987   4.449   2.711  13.899
  151SBC   C0BV 5988   4.470   2.647  14.021
  151SBC   C0BC 5989   4.369   2.635  14.113
  151SBC   C0BA 5990   4.594   2.597  14.047
  151SBC   C0B4 5991   4.619   2.530  14.169
  151SBC   C0B3 5992   4.519   2.520  14.267
  151SBC   C0B5 5993   4.743   2.472  14.193
  151SBC   C0BU 5994   4.844   2.473  14.088
  151SBC   C0BT 5995   4.823   2.536  13.964
  151SBC   C0BS 5996   4.921   2.536  13.864
  151SBC   C0CC 5997   4.899   2.608  13.746
  151SBC   C0CB 5998   4.996   2.611  13.645
  151SBC   C0CH 5999   4.989   2.729  13.563
  151SBC   C0DO 6000   4.873   2.807  13.549
  151SBC   C0DP 6001   4.862   2.904  13.447
  151SBC   C0EA 6002   4.967   2.932  13.355
  151SBC   H012 6003   5.052   2.864  13.352
  151SBC   O009 6004   4.960   3.039  13.271
  151SBC   C0EH 6005   4.852   3.121  13.280
  151SBC   C0EG 6006   4.850   3.234  13.196
  151SBC   C0EJ 6007   4.934   3.296  13.096
  151SBC   H010 6008   5.025   3.245  13.069
  151SBC   C0EK 6009   4.877   3.419  13.046
  151SBC   H00Z 6010   4.908   3.491  12.971
  151SBC   C0EL 6011   4.759   3.437  13.123
  151SBC   C0EM 6012   4.649   3.535  13.111
  151SBC   C0EW 6013   4.638   3.650  13.030
  151SBC   H013 6014   4.721   3.676  12.967
  151SBC   C0EX 6015   4.516   3.725  13.011
  151SBC   H014 6016   4.510   3.811  12.946
  151SBC   C0F1 6017   4.406   3.690  13.094
  151SBC   C0EU 6018   4.418   3.581  13.179
  151SBC   C0ET 6019   4.316   3.522  13.257
  151SBC   C0ES 6020   4.373   3.402  13.313
  151SBC   C0EE 6021   4.509   3.392  13.267
  151SBC   C0ED 6022   4.620   3.298  13.270
  151SBC   C0EC 6023   4.617   3.173  13.347
  151SBC   C0EB 6024   4.505   3.115  13.409
  151SBC   C0EN 6025   4.369   3.169  13.393
  151SBC   C0ER 6026   4.264   3.096  13.448
  151SBC   C0DS 6027   4.510   2.999  13.490
  151SBC   C0DR 6028   4.638   2.946  13.520
  151SBC   C0EY 6029   4.305   3.291  13.345
  151SBC   C0EZ 6030   4.166   3.296  13.377
  151SBC   C0F5 6031   4.058   3.396  13.378
  151SBC   C0F6 6032   4.072   3.528  13.332
  151SBC   N008 6033   3.960   3.617  13.350
  151SBC   C0F7 6034   3.849   3.581  13.435
  151SBC   C0FQ 6035   3.743   3.675  13.440
  151SBC   H018 6036   3.660   3.633  13.495
  151SBC   C0FP 6037   3.736   3.797  13.379
  151SBC   H019 6038   3.659   3.868  13.406
  151SBC   C0FO 6039   3.847   3.824  13.299
  151SBC   H01A 6040   3.850   3.925  13.261
  151SBC   C0F8 6041   3.844   3.447  13.486
  151SBC   C0F9 6042   3.958   3.743  13.284
  151SBC   C0FA 6043   4.062   3.783  13.197
  151SBC   H015 6044   4.052   3.879  13.148
  151SBC   C0FB 6045   4.181   3.708  13.193
  151SBC   C0FD 6046   4.185   3.585  13.257
  151SBC   C0FC 6047   4.281   3.760  13.095
  151SBC   O00A 6048   4.257   3.858  13.022
  151SBC   C0EV 6049   4.532   3.503  13.188
  151SBC   C0EF 6050   4.742   3.322  13.203
  151SBC   C0EI 6051   4.739   3.093  13.354
  151SBC   C0DQ 6052   4.744   2.983  13.442
  151SBC   C0CE 6053   4.770   2.784  13.641
  151SBC   H00U 6054   5.083   2.750  13.514
  151SBC   C0CA 6055   5.093   2.501  13.641
  151SBC   C0C9 6056   5.119   2.434  13.761
  151SBC   C0C8 6057   5.224   2.330  13.768
  151SBC   C0C7 6058   5.326   2.297  13.869
  151SBC   C0C6 6059   5.423   2.196  13.842
  151SBC   C0C5 6060   5.564   2.176  13.882
  151SBC   C0CQ 6061   5.652   2.127  13.787
  151SBC   C0D1 6062   5.608   2.138  13.652
  151SBC   C0D8 6063   5.715   2.167  13.573
  151SBC   C0D7 6064   5.833   2.139  13.652
  151SBC   C0D6 6065   5.966   2.172  13.614
  151SBC   C0D5 6066   6.079   2.167  13.704
  151SBC   C0D4 6067   6.094   2.136  13.842
  151SBC   C0D3 6068   6.212   2.203  13.891
  151SBC   C0CX 6069   6.196   2.243  14.029
  151SBC   C0CW 6070   6.054   2.225  14.059
  151SBC   C0CV 6071   5.961   2.235  14.176
  151SBC   C0D2 6072   6.010   2.269  14.307
  151SBC   C09D 6073   6.142   2.312  14.344
  151SBC   C09C 6074   6.173   2.347  14.474
  151SBC   C09B 6075   6.301   2.378  14.529
  151SBC   C09A 6076   6.408   2.364  14.439
  151SBC   C099 6077   6.385   2.357  14.308
  151SBC   C098 6078   6.500   2.303  14.246
  151SBC   C08Y 6079   6.593   2.259  14.352
  151SBC   C08X 6080   6.714   2.176  14.354
  151SBC   C08W 6081   6.756   2.105  14.231
  151SBC   C08U 6082   6.671   2.074  14.117
  151SBC   C08V 6083   6.534   2.119  14.072
  151SBC   C0DC 6084   6.521   2.073  13.938
  151SBC   H00W 6085   6.434   2.098  13.880
  151SBC   C0DB 6086   6.629   1.988  13.903
  151SBC   H00X 6087   6.642   1.921  13.819
  151SBC   C08T 6088   6.719   1.999  14.013
  151SBC   C08S 6089   6.847   1.961  14.009
  151SBC   H00N 6090   6.892   1.921  13.919
  151SBC   C08R 6091   6.924   1.966  14.124
  151SBC   C08Q 6092   7.048   1.904  14.137
  151SBC   H00O 6093   7.080   1.836  14.060
  151SBC   C08P 6094   7.129   1.894  14.250
  151SBC   C08O 6095   7.253   1.815  14.255
  151SBC   H00P 6096   7.289   1.768  14.164
  151SBC   C08N 6097   7.322   1.794  14.380
  151SBC   C08M 6098   7.447   1.717  14.387
  151SBC   O008 6099   7.512   1.674  14.294
  151SBC   O007 6100   7.484   1.681  14.512
  151SBC   C08H 6101   7.431   1.739  14.625
  151SBC   C08G 6102   7.473   1.706  14.760
  151SBC   C03V 6103   7.589   1.635  14.794
  151SBC   H009 6104   7.657   1.611  14.714
  151SBC   C03U 6105   7.631   1.607  14.925
  151SBC   C03W 6106   7.762   1.550  14.966
  151SBC   H00A 6107   7.837   1.517  14.895
  151SBC   C03X 6108   7.791   1.539  15.097
  151SBC   H00B 6109   7.890   1.512  15.133
  151SBC   O005 6110   7.698   1.555  15.195
  151SBC   C03O 6111   7.579   1.624  15.165
  151SBC   C03N 6112   7.489   1.663  15.265
  151SBC   O000 6113   7.506   1.617  15.392
  151SBC   C019 6114   7.412   1.642  15.481
  151SBC   C018 6115   7.309   1.735  15.467
  151SBC   C017 6116   7.289   1.788  15.339
  151SBC   C016 6117   7.192   1.884  15.318
  151SBC   C015 6118   7.116   1.922  15.430
  151SBC   C014 6119   7.019   2.016  15.428
  151SBC   C013 6120   6.976   2.062  15.301
  151SBC   C012 6121   6.853   2.135  15.335
  151SBC   C011 6122   6.850   2.138  15.478
  151SBC   C010 6123   6.754   2.195  15.547
  151SBC   C00Z 6124   6.721   2.181  15.677
  151SBC   C00Y 6125   6.590   2.242  15.683
  151SBC   C01O 6126   6.547   2.288  15.559
  151SBC   C01P 6127   6.410   2.280  15.520
  151SBC   C02L 6128   6.381   2.275  15.388
  151SBC   C02K 6129   6.492   2.266  15.295
  151SBC   C01M 6130   6.629   2.243  15.335
  151SBC   C02J 6131   6.455   2.280  15.161
  151SBC   C02I 6132   6.538   2.287  15.052
  151SBC   C02H 6133   6.675   2.258  15.038
  151SBC   C01Q 6134   6.765   2.205  15.127
  151SBC   C02G 6135   6.882   2.171  15.053
  151SBC   C089 6136   6.866   2.226  14.925
  151SBC   C088 6137   6.935   2.149  14.830
  151SBC   C087 6138   7.024   2.066  14.913
  151SBC   C086 6139   7.131   1.985  14.865
  151SBC   C03S 6140   7.215   1.899  14.940
  151SBC   N006 6141   7.296   1.828  14.850
  151SBC   C08F 6142   7.259   1.860  14.728
  151SBC   C01J 6143   7.240   1.871  15.078
  151SBC   C03R 6144   7.353   1.785  15.107
  151SBC   C03Q 6145   7.436   1.733  15.007
  151SBC   C08E 6146   7.155   1.946  14.727
  151SBC   C08D 6147   7.096   1.997  14.608
  151SBC   C08K 6148   7.150   1.934  14.489
  151SBC   C08C 6149   6.984   2.081  14.589
  151SBC   C091 6150   6.917   2.093  14.467
  151SBC   C092 6151   6.957   2.019  14.351
  151SBC   C08B 6152   6.910   2.155  14.688
  151SBC   C090 6153   6.796   2.219  14.608
  151SBC   C094 6154   6.690   2.295  14.665
  151SBC   C095 6155   6.566   2.326  14.599
  151SBC   C09R 6156   6.471   2.354  14.692
  151SBC   C097 6157   6.528   2.337  14.817
  151SBC   C096 6158   6.660   2.301  14.803
  151SBC   C01I 6159   6.997   2.083  15.058
  151SBC   C08A 6160   6.734   2.270  14.916
  151SBC   C09L 6161   6.466   2.332  14.940
  151SBC   C09K 6162   6.332   2.343  14.983
  151SBC   C09J 6163   6.220   2.384  14.902
  151SBC   C09I 6164   6.088   2.338  14.933
  151SBC   C09O 6165   6.018   2.290  15.051
  151SBC   C09N 6166   6.072   2.292  15.185
  151SBC   C09M 6167   6.209   2.293  15.220
  151SBC   C06O 6168   5.975   2.279  15.292
  151SBC   C05M 6169   5.836   2.261  15.264
  151SBC   C06P 6170   5.789   2.251  15.134
  151SBC   C042 6171   5.740   2.245  15.364
  151SBC   C041 6172   5.783   2.249  15.497
  151SBC   C040 6173   5.689   2.239  15.603
  151SBC   C03Z 6174   5.728   2.224  15.736
  151SBC   C03Y 6175   5.867   2.223  15.762
  151SBC   C027 6176   5.905   2.193  15.890
  151SBC   C026 6177   6.040   2.200  15.922
  151SBC   C028 6178   6.078   2.155  16.047
  151SBC   C029 6179   5.987   2.115  16.141
  151SBC   C02B 6180   6.031   2.060  16.259
  151SBC   C02C 6181   5.940   2.009  16.349
  151SBC   C02X 6182   5.988   1.940  16.461
  151SBC   C03E 6183   5.890   1.888  16.545
  151SBC   C03G 6184   5.756   1.899  16.531
  151SBC   C04Q 6185   5.715   1.974  16.419
  151SBC   C04R 6186   5.577   1.990  16.403
  151SBC   C04S 6187   5.535   2.046  16.280
  151SBC   C04L 6188   5.625   2.090  16.189
  151SBC   C04M 6189   5.761   2.083  16.211
  151SBC   C04K 6190   5.583   2.134  16.064
  151SBC   C04F 6191   5.449   2.137  16.034
  151SBC   C04E 6192   5.354   2.093  16.128
  151SBC   C04D 6193   5.215   2.081  16.092
  151SBC   C050 6194   5.122   2.035  16.180
  151SBC   C051 6195   4.986   2.034  16.149
  151SBC   C05Q 6196   4.897   1.987  16.245
  151SBC   C05V 6197   4.763   1.988  16.209
  151SBC   N005 6198   4.672   1.943  16.305
  151SBC   C07V 6199   4.717   1.882  16.420
  151SBC   C082 6200   4.626   1.821  16.513
  151SBC   C081 6201   4.488   1.833  16.493
  151SBC   C07C 6202   4.445   1.906  16.379
  151SBC   C07B 6203   4.306   1.921  16.351
  151SBC   C080 6204   4.213   1.872  16.445
  151SBC   C07Z 6205   4.076   1.891  16.422
  151SBC   H00L 6206   4.008   1.842  16.490
  151SBC   C079 6207   4.025   1.954  16.307
  151SBC   C078 6208   4.125   1.995  16.212
  151SBC   C077 6209   4.083   2.067  16.100
  151SBC   C07X 6210   3.949   2.090  16.077
  151SBC   H00I 6211   3.911   2.120  15.981
  151SBC   C07Y 6212   3.853   2.056  16.164
  151SBC   H00H 6213   3.749   2.071  16.137
  151SBC   C076 6214   4.177   2.105  16.006
  151SBC   C06C 6215   4.138   2.183  15.893
  151SBC   H00C 6216   4.039   2.225  15.880
  151SBC   C06F 6217   4.310   2.072  16.022
  151SBC   C06E 6218   4.404   2.108  15.924
  151SBC   C06G 6219   4.539   2.091  15.932
  151SBC   C06H 6220   4.582   2.034  16.050
  151SBC   C06I 6221   4.493   1.998  16.155
  151SBC   C06L 6222   4.625   2.132  15.829
  151SBC   C06M 6223   4.578   2.175  15.698
  151SBC   C06K 6224   4.762   2.117  15.860
  151SBC   C05S 6225   4.810   2.080  15.989
  151SBC   C05U 6226   4.853   2.154  15.760
  151SBC   C05X 6227   4.814   2.191  15.627
  151SBC   C05G 6228   4.929   2.199  15.538
  151SBC   C05F 6229   5.058   2.215  15.594
  151SBC   C05E 6230   5.153   2.222  15.495
  151SBC   C048 6231   5.292   2.221  15.518
  151SBC   C056 6232   5.379   2.226  15.415
  151SBC   C045 6233   5.514   2.229  15.445
  151SBC   C047 6234   5.330   2.204  15.649
  151SBC   C049 6235   5.235   2.185  15.750
  151SBC   C04B 6236   5.272   2.155  15.879
  151SBC   C046 6237   5.461   2.207  15.675
  151SBC   C04H 6238   5.501   2.195  15.807
  151SBC   C05D 6239   5.091   2.214  15.370
  151SBC   C04A 6240   5.097   2.189  15.722
  151SBC   C05T 6241   4.995   2.154  15.804
  151SBC   C055 6242   5.038   2.123  15.934
  151SBC   C06D 6243   4.357   2.164  15.808
  151SBC   C07W 6244   4.356   2.013  16.140
  151SBC   C085 6245   3.893   1.991  16.278
  151SBC   H00M 6246   3.813   1.963  16.345
  151SBC   C084 6247   4.264   1.799  16.554
  151SBC   H00J 6248   4.188   1.766  16.624
  151SBC   C07A 6249   4.265   1.974  16.236
  151SBC   C083 6250   4.400   1.773  16.580
  151SBC   H00K 6251   4.430   1.719  16.668
  151SBC   O00K 6252   4.671   1.762  16.625
  151SBC   C0GO 6253   4.803   1.762  16.655
  151SBC   C0GN 6254   4.847   1.702  16.770
  151SBC   H01L 6255   4.767   1.666  16.833
  151SBC   C0GM 6256   4.981   1.692  16.805
  151SBC   C0GL 6257   5.018   1.637  16.918
  151SBC   H01M 6258   4.938   1.601  16.981
  151SBC   O00J 6259   5.149   1.639  16.960
  151SBC   C0GK 6260   5.237   1.700  16.877
  151SBC   H01N 6261   5.338   1.708  16.913
  151SBC   C05K 6262   5.203   1.748  16.750
  151SBC   C05J 6263   5.302   1.805  16.662
  151SBC   C04Y 6264   5.439   1.778  16.666
  151SBC   C04X 6265   5.534   1.844  16.585
  151SBC   O006 6266   5.483   1.674  16.750
  151SBC   C053 6267   5.616   1.649  16.765
  151SBC   C04O 6268   5.712   1.727  16.704
  151SBC   C03C 6269   5.859   1.717  16.718
  151SBC   C03B 6270   5.950   1.629  16.785
  151SBC   C054 6271   5.907   1.506  16.833
  151SBC   C0GR 6272   5.995   1.401  16.871
  151SBC   C03M 6273   6.138   1.379  16.866
  151SBC   C03I 6274   6.238   1.460  16.800
  151SBC   C03J 6275   6.370   1.418  16.804
  151SBC   N002 6276   6.470   1.487  16.724
  151SBC   C02U 6277   6.605   1.437  16.718
  151SBC   C02T 6278   6.700   1.498  16.643
  151SBC   C02Z 6279   6.826   1.449  16.637
  151SBC   N001 6280   6.924   1.501  16.547
  151SBC   C02R 6281   7.054   1.439  16.538
  151SBC   C032 6282   7.086   1.330  16.624
  151SBC   C031 6283   6.986   1.279  16.712
  151SBC   H007 6284   6.996   1.194  16.777
  151SBC   C033 6285   7.217   1.275  16.597
  151SBC   H003 6286   7.250   1.189  16.654
  151SBC   O004 6287   7.300   1.322  16.497
  151SBC   C034 6288   7.273   1.434  16.438
  151SBC   C035 6289   7.377   1.488  16.363
  151SBC   C036 6290   7.355   1.607  16.292
  151SBC   H005 6291   7.429   1.653  16.229
  151SBC   C037 6292   7.228   1.666  16.301
  151SBC   H006 6293   7.210   1.756  16.244
  151SBC   C00D 6294   7.120   1.610  16.375
  151SBC   C00C 6295   6.990   1.665  16.375
  151SBC   C00B 6296   6.950   1.776  16.287
  151SBC   C00A 6297   6.986   1.845  16.156
  151SBC   C009 6298   6.885   1.946  16.146
  151SBC   C008 6299   6.844   2.003  16.028
  151SBC   C007 6300   6.919   1.979  15.914
  151SBC   C006 6301   6.885   2.043  15.793
  151SBC   C005 6302   6.961   2.008  15.674
  151SBC   C004 6303   7.062   1.914  15.676
  151SBC   C003 6304   7.083   1.841  15.795
  151SBC   C002 6305   7.157   1.726  15.793
  151SBC   C01C 6306   7.241   1.703  15.691
  151SBC   C01B 6307   7.350   1.611  15.707
  151SBC   H000 6308   7.374   1.568  15.803
  151SBC   C001 6309   7.145   1.632  15.899
  151SBC   C000 6310   7.070   1.669  16.011
  151SBC   C01U 6311   7.047   1.544  16.076
  151SBC   H002 6312   6.985   1.527  16.163
  151SBC   C01T 6313   7.125   1.438  15.997
  151SBC   O002 6314   7.138   1.319  16.015
  151SBC   O001 6315   7.179   1.502  15.895
  151SBC   C01S 6316   7.010   1.877  15.910
  151SBC   C00N 6317   6.717   2.061  16.021
  151SBC   C00M 6318   6.627   2.051  16.128
  151SBC   C00J 6319   6.659   1.976  16.238
  151SBC   C00I 6320   6.568   1.932  16.332
  151SBC   C00H 6321   6.602   1.830  16.420
  151SBC   C00G 6322   6.730   1.777  16.416
  151SBC   C00F 6323   6.768   1.665  16.487
  151SBC   C01X 6324   6.508   1.775  16.506
  151SBC   C01W 6325   6.380   1.820  16.496
  151SBC   C01V 6326   6.339   1.910  16.397
  151SBC   C020 6327   6.211   1.955  16.385
  151SBC   C01Z 6328   6.286   1.764  16.579
  151SBC   C02Y 6329   6.165   1.820  16.572
  151SBC   C039 6330   6.068   1.764  16.656
  151SBC   C02W 6331   6.312   1.651  16.661
  151SBC   C01Y 6332   6.540   1.662  16.576
  151SBC   C00U 6333   6.435   1.964  16.310
  151SBC   C00S 6334   6.398   2.045  16.202
  151SBC   C00T 6335   6.263   2.078  16.185
  151SBC   C00R 6336   6.489   2.080  16.108
  151SBC   C00Q 6337   6.445   2.138  15.993
  151SBC   C00V 6338   6.315   2.168  15.975
  151SBC   C024 6339   6.269   2.220  15.852
  151SBC   C00X 6340   6.360   2.238  15.750
  151SBC   C00P 6341   6.544   2.161  15.896
  151SBC   C00O 6342   6.677   2.115  15.903
  151SBC   C00K 6343   6.794   1.940  16.248
  151SBC   N000 6344   7.023   1.796  16.029
  151SBC   C00L 6345   6.825   1.833  16.327
  151SBC   H004 6346   7.478   1.450  16.356
  151SBC   C02Q 6347   7.145   1.492  16.447
  151SBC   C00E 6348   6.899   1.615  16.466
  151SBC   C030 6349   6.861   1.338  16.718
  151SBC   O003 6350   6.767   1.283  16.801
  151SBC   C02S 6351   6.670   1.606  16.568
  151SBC   C038 6352   6.640   1.327  16.801
  151SBC   C03L 6353   6.544   1.268  16.885
  151SBC   H008 6354   6.581   1.190  16.950
  151SBC   C02V 6355   6.443   1.606  16.656
  151SBC   C03K 6356   6.410   1.302  16.876
  151SBC   C0BK 6357   6.313   1.228  16.940
  151SBC   H00T 6358   6.349   1.143  16.996
  151SBC   C03H 6359   6.213   1.586  16.738
  151SBC   C0BL 6360   6.178   1.261  16.939
  151SBC   C0GU 6361   6.091   1.175  17.008
  151SBC   H01O 6362   6.126   1.087  17.059
  151SBC   C0GT 6363   5.954   1.187  16.985
  151SBC   H01P 6364   5.879   1.124  17.029
  151SBC   C0GS 6365   5.909   1.302  16.923
  151SBC   C0GV 6366   5.772   1.344  16.906
  151SBC   C0GW 6367   5.652   1.272  16.939
  151SBC   H01Q 6368   5.651   1.172  16.981
  151SBC   C0GX 6369   5.534   1.332  16.931
  151SBC   H01R 6370   5.447   1.274  16.960
  151SBC   O00L 6371   5.527   1.458  16.876
  151SBC   C0GQ 6372   5.768   1.471  16.850
  151SBC   C03A 6373   6.083   1.654  16.737
  151SBC   C05L 6374   5.643   1.533  16.835
  151SBC   C04W 6375   5.261   1.871  16.548
  151SBC   C05I 6376   5.124   1.883  16.517
  151SBC   C05O 6377   5.031   1.819  16.600
  151SBC   C052 6378   5.082   1.941  16.398
  151SBC   C04V 6379   5.347   1.937  16.459
  151SBC   C04U 6380   5.305   2.000  16.342
  151SBC   N009 6381   5.071   1.752  16.715
  151SBC   C0GP 6382   4.897   1.823  16.567
  151SBC   C05W 6383   4.854   1.882  16.450
  151SBC   C07D 6384   4.532   1.950  16.279
  151SBC   C06J 6385   4.717   2.033  16.079
  151SBC   C05P 6386   4.945   1.936  16.365
  151SBC   C05R 6387   4.941   2.076  16.024
  151SBC   C04Z 6388   5.168   1.995  16.304
  151SBC   C04C 6389   5.172   2.115  15.966
  151SBC   C04G 6390   5.405   2.162  15.905
  151SBC   C04J 6391   5.676   2.170  15.964
  151SBC   C04T 6392   5.396   2.054  16.253
  151SBC   N003 6393   5.485   1.928  16.485
  151SBC   C04P 6394   5.669   1.820  16.607
  151SBC   C03D 6395   5.937   1.807  16.648
  151SBC   C021 6396   6.119   1.911  16.476
  151SBC   C03F 6397   5.804   2.028  16.329
  151SBC   C022 6398   6.166   2.038  16.278
  151SBC   C02A 6399   5.851   2.123  16.114
  151SBC   C023 6400   6.220   2.137  16.071
  151SBC   C025 6401   6.132   2.226  15.821
  151SBC   C02D 6402   6.093   2.243  15.689
  151SBC   C02E 6403   6.186   2.260  15.588
  151SBC   C02N 6404   6.150   2.275  15.455
  151SBC   C04N 6405   5.812   2.161  15.986
  151SBC   C02P 6406   5.959   2.241  15.658
  151SBC   C04I 6407   5.634   2.196  15.834
  151SBC   C044 6408   5.553   2.226  15.574
  151SBC   C043 6409   5.917   2.258  15.524
  151SBC   C05N 6410   6.014   2.274  15.426
  151SBC   C09U 6411   5.878   2.270  15.027
  151SBC   C09V 6412   5.823   2.264  14.894
  151SBC   C09X 6413   5.895   2.289  14.781
  151SBC   C09Y 6414   5.860   2.279  14.650
  151SBC   C0A1 6415   5.733   2.238  14.630
  151SBC   C0A2 6416   5.645   2.227  14.740
  151SBC   C0A4 6417   5.510   2.222  14.715
  151SBC   C071 6418   5.418   2.222  14.817
  151SBC   C0A5 6419   5.282   2.234  14.793
  151SBC   C0A9 6420   5.240   2.241  14.664
  151SBC   C0A8 6421   5.330   2.232  14.563
  151SBC   C0AP 6422   5.287   2.249  14.433
  151SBC   C0BY 6423   5.381   2.244  14.332
  151SBC   C0BX 6424   5.512   2.227  14.348
  151SBC   C0C2 6425   5.596   2.237  14.239
  151SBC   C0C3 6426   5.734   2.221  14.256
  151SBC   C0CT 6427   5.780   2.229  14.390
  151SBC   C0C1 6428   5.544   2.255  14.111
  151SBC   C0C0 6429   5.418   2.318  14.095
  151SBC   C0A7 6430   5.558   2.218  14.477
  151SBC   C0BZ 6431   5.342   2.301  14.214
  151SBC   C0BO 6432   5.215   2.340  14.186
  151SBC   C0BN 6433   5.117   2.333  14.280
  151SBC   C0BM 6434   4.993   2.382  14.243
  151SBC   C0B9 6435   4.898   2.378  14.342
  151SBC   C0B8 6436   4.936   2.332  14.468
  151SBC   C0AD 6437   5.068   2.294  14.505
  151SBC   C0AF 6438   4.839   2.337  14.570
  151SBC   C0AG 6439   4.706   2.379  14.549
  151SBC   C0B7 6440   4.675   2.423  14.422
  151SBC   C0AE 6441   4.884   2.306  14.694
  151SBC   C0AB 6442   5.013   2.276  14.730
  151SBC   C0AA 6443   5.052   2.257  14.863
  151SBC   C0AJ 6444   4.788   2.296  14.798
  151SBC   C0AK 6445   4.823   2.264  14.925
  151SBC   C06W 6446   4.712   2.250  14.997
  151SBC   C0AI 6447   4.650   2.318  14.782
  151SBC   C0BP 6448   5.200   2.386  14.057
  151SBC   C0BQ 6449   5.063   2.419  14.012
  151SBC   C0BW 6450   5.156   2.291  14.407
  151SBC   C0AC 6451   5.108   2.267  14.633
  151SBC   C0A6 6452   5.467   2.217  14.583
  151SBC   C0A3 6453   5.689   2.224  14.497
  151SBC   C09Z 6454   5.949   2.300  14.543
  151SBC   C09W 6455   5.690   2.233  14.871
  151SBC   C072 6456   5.599   2.228  14.975
  151SBC   C09H 6457   6.017   2.349  14.804
  151SBC   C09G 6458   6.104   2.388  14.699
  151SBC   C09P 6459   6.227   2.402  14.753
  151SBC   C02O 6460   6.320   2.311  15.126
  151SBC   C02M 6461   6.248   2.284  15.352
  151SBC   C02F 6462   6.316   2.259  15.619
  151SBC   C00W 6463   6.494   2.213  15.782
  151SBC   C01R 6464   6.766   2.113  15.796
  151SBC   C01N 6465   6.648   2.254  15.477
  151SBC   C01L 6466   6.742   2.191  15.261
  151SBC   C01H 6467   7.044   2.021  15.178
  151SBC   C01K 6468   6.939   2.053  15.537
  151SBC   C01E 6469   7.132   1.874  15.557
  151SBC   C01G 6470   7.161   1.929  15.189
  151SBC   C01D 6471   7.228   1.776  15.573
  151SBC   C01A 6472   7.443   1.590  15.606
  151SBC   H001 6473   7.528   1.527  15.628
  151SBC   C01F 6474   7.376   1.750  15.235
  151SBC   C03P 6475   7.547   1.655  15.030
  151SBC   C03T 6476   7.402   1.752  14.870
  151SBC   C08I 6477   7.315   1.818  14.612
  151SBC   C08J 6478   7.263   1.851  14.493
  151SBC   C08L 6479   7.080   1.954  14.367
  151SBC   C093 6480   6.878   2.030  14.237
  151SBC   C08Z 6481   6.797   2.164  14.468
  151SBC   C09T 6482   6.449   2.226  14.136
  151SBC   C09S 6483   6.536   2.325  14.467
  151SBC   C09Q 6484   6.335   2.388  14.664
  151SBC   C09F 6485   6.076   2.350  14.566
  151SBC   C09E 6486   6.262   2.308  14.261
  151SBC   C0A0 6487   5.914   2.266  14.411
  151SBC   C0CU 6488   5.820   2.216  14.150
  151SBC   C0CR 6489   5.765   2.198  14.025
  151SBC   C0CZ 6490   5.852   2.173  13.916
  151SBC   C0DA 6491   6.296   2.249  14.136
  151SBC   C0D9 6492   6.251   2.293  13.782
  151SBC   H00V 6493   6.313   2.381  13.791
  151SBC   C0CY 6494   5.995   2.169  13.941
  151SBC   C0DF 6495   6.179   2.254  13.659
  151SBC   C0DE 6496   6.143   2.289  13.522
  151SBC   C0GI 6497   6.211   2.368  13.427
  151SBC   H01K 6498   6.308   2.412  13.446
  151SBC   C0GJ 6499   6.145   2.377  13.309
  151SBC   H01J 6500   6.201   2.421  13.228
  151SBC   O00I 6501   6.015   2.340  13.282
  151SBC   C0GH 6502   5.935   2.285  13.384
  151SBC   C0GG 6503   5.798   2.271  13.352
  151SBC   O00G 6504   5.757   2.301  13.223
  151SBC   C0G8 6505   5.629   2.313  13.189
  151SBC   C0G9 6506   5.603   2.326  13.053
  151SBC   H01G 6507   5.676   2.297  12.979
  151SBC   C0GA 6508   5.483   2.371  13.011
  151SBC   H01H 6509   5.471   2.379  12.904
  151SBC   C0GB 6510   5.376   2.396  13.096
  151SBC   C0EP 6511   5.398   2.372  13.235
  151SBC   C0E8 6512   5.298   2.421  13.332
  151SBC   C0CK 6513   5.272   2.411  13.469
  151SBC   C0CL 6514   5.325   2.299  13.542
  151SBC   C0E9 6515   5.455   2.247  13.513
  151SBC   C0GE 6516   5.561   2.268  13.410
  151SBC   C0E7 6517   5.180   2.478  13.276
  151SBC   C0CJ 6518   5.096   2.515  13.379
  151SBC   C0E6 6519   4.973   2.563  13.341
  151SBC   H00Y 6520   4.889   2.600  13.397
  151SBC   C0EO 6521   4.956   2.595  13.206
  151SBC   H011 6522   4.868   2.649  13.175
  151SBC   C0G6 6523   5.054   2.571  13.104
  151SBC   C0G5 6524   5.056   2.613  12.961
  151SBC   H01F 6525   4.979   2.686  12.940
  151SBC   C0GD 6526   5.149   2.570  12.874
  151SBC   H01I 6527   5.136   2.589  12.769
  151SBC   O00H 6528   5.247   2.476  12.907
  151SBC   C0EQ 6529   5.165   2.493  13.139
  151SBC   C0GC 6530   5.257   2.452  13.043
  151SBC   C0G7 6531   5.525   2.321  13.283
  151SBC   C0DD 6532   6.008   2.246  13.500
  151SBC   C0GF 6533   5.697   2.225  13.440
  151SBC   C0CO 6534   5.480   2.159  13.616
  151SBC   C0D0 6535   5.788   2.141  13.791
  151SBC   C0C4 6536   5.623   2.213  14.002
  151SBC   C0CN 6537   5.377   2.157  13.711
  151SBC   C0CP 6538   5.331   2.365  13.992
  151SBC   C0CM 6539   5.274   2.245  13.664
  151SBC   C0CI 6540   5.150   2.477  13.511
  151SBC   C0CD 6541   4.785   2.689  13.740
  151SBC   C0BR 6542   5.043   2.465  13.883
  151SBC   C0CS 6543   4.967   2.421  14.115
  151SBC   C0B6 6544   4.769   2.421  14.317
  151SBC   C0CG 6545   4.698   2.606  13.950
  151SBC   C0CF 6546   4.677   2.675  13.833
  151SBC   C0E5 6547   4.650   2.846  13.617
  151SBC   C0DT 6548   4.403   2.951  13.563
  151SBC   C0DL 6549   4.327   2.769  13.874
  151SBC   C0DM 6550   4.224   2.760  13.970
  151SBC   C0DY 6551   4.072   2.884  13.829
  151SBC   C0DU 6552   4.275   2.998  13.546
  151SBC   C0F0 6553   4.147   3.170  13.432
  151SBC   C0F4 6554   3.945   3.352  13.451
  151SBC   C0FG 6555   3.819   3.066  13.647
  151SBC   O00B 6556   3.734   3.414  13.567
  151SBC   C0FN 6557   3.721   3.086  13.735
  151SBC   C0DZ 6558   3.951   2.944  13.805
  151SBC   O00C 6559   3.807   2.920  14.145
  151SBC   C0FR 6560   3.813   2.859  14.257
  151SBC   O00D 6561   3.729   2.890  14.342
  151SBC   C0E0 6562   4.103   2.827  13.957
  151SBC   C0E3 6563   3.928   2.772  14.281
  151SBC   C0AW 6564   3.949   2.693  14.394
  151SBC   C0AV 6565   3.850   2.667  14.491
  151SBC   H00Q 6566   3.750   2.703  14.470
  151SBC   C0AU 6567   3.876   2.594  14.613
  151SBC   H00R 6568   3.797   2.565  14.680
  151SBC   C0AT 6569   4.012   2.559  14.633
  151SBC   C0AS 6570   4.094   2.486  14.734
  151SBC   C0AR 6571   4.038   2.445  14.859
  151SBC   C0BE 6572   4.104   2.578  14.526
  151SBC   C0DN 6573   4.248   2.690  14.089
  151SBC   C0AX 6574   4.072   2.628  14.400
  151SBC   C0BB 6575   4.394   2.572  14.237
  151SBC   C0BD 6576   4.227   2.518  14.557
  151SBC   C0B2 6577   4.543   2.472  14.396
  151SBC   C0AH 6578   4.605   2.372  14.650
  151SBC   C0BF 6579   4.237   2.466  14.689
  151SBC   C0AL 6580   4.596   2.284  14.913
  151SBC   C07U 6581   4.258   2.380  14.991
  151SBC   C0AQ 6582   4.122   2.413  14.973
  151SBC   C0BG 6583   3.898   2.448  14.910
  151SBC   C0FY 6584   3.788   2.461  15.249
  151SBC   C0BJ 6585   3.804   2.557  14.926
  151SBC   H00S 6586   3.795   2.647  14.868
  151SBC   C0FZ 6587   3.703   2.569  15.256
  151SBC   C07S 6588   3.893   2.448  15.346
  151SBC   C0G1 6589   3.726   2.667  15.603
  151SBC   C07K 6590   4.016   2.558  15.808
  151SBC   C07H 6591   4.087   2.439  15.559
  151SBC   C06B 6592   4.233   2.212  15.792
  151SBC   C06N 6593   4.436   2.197  15.700
  151SBC   C066 6594   4.250   2.357  15.378
  151SBC   C062 6595   4.514   2.247  15.235
  151SBC   C05Y 6596   4.671   2.199  15.592
  151SBC   C061 6597   4.635   2.178  15.220
  151SBC   C05H 6598   4.949   2.206  15.397
  151SBC   C06V 6599   4.733   2.207  15.123
  151SBC   C06Y 6600   4.959   2.243  14.962
  151SBC   C05C 6601   5.184   2.219  15.260
  151SBC   C06Z 6602   5.186   2.236  14.896
  151SBC   C070 6603   5.461   2.226  14.949
  151SBC   C05B 6604   5.327   2.222  15.287
  151SBC   C057 6605   5.605   2.235  15.339
  151SBC   C059 6606   5.648   2.243  15.105
  152SBC   C058 6607  11.989   1.072   6.121
  152SBC   C05A 6608  12.106   1.042   6.051
  152SBC   C06Q 6609  12.102   0.975   5.925
  152SBC   C06R 6610  12.221   0.961   5.847
  152SBC   C06S 6611  12.344   1.010   5.889
  152SBC   C06T 6612  12.461   0.980   5.808
  152SBC   C06U 6613  12.598   1.005   5.836
  152SBC   C06X 6614  12.670   1.080   5.930
  152SBC   C060 6615  12.814   1.077   5.909
  152SBC   C05Z 6616  12.913   1.178   5.925
  152SBC   C068 6617  13.013   1.133   5.821
  152SBC   C067 6618  13.156   1.154   5.815
  152SBC   C069 6619  13.222   1.243   5.908
  152SBC   C06A 6620  13.364   1.261   5.935
  152SBC   C073 6621  13.475   1.182   5.916
  152SBC   C07P 6622  13.570   1.164   6.020
  152SBC   C07O 6623  13.560   1.218   6.153
  152SBC   H00D 6624  13.470   1.274   6.173
  152SBC   C07N 6625  13.645   1.187   6.253
  152SBC   H00E 6626  13.632   1.220   6.355
  152SBC   C07M 6627  13.755   1.104   6.221
  152SBC   H00F 6628  13.829   1.082   6.296
  152SBC   C07L 6629  13.773   1.051   6.092
  152SBC   C07Q 6630  13.879   0.966   6.048
  152SBC   H00G 6631  13.953   0.938   6.121
  152SBC   O00F 6632  13.904   0.919   5.919
  152SBC   C07J 6633  13.816   0.955   5.833
  152SBC   C07I 6634  13.702   1.038   5.862
  152SBC   N004 6635  13.607   1.063   5.762
  152SBC   C07R 6636  13.643   1.030   5.627
  152SBC   C07T 6637  13.751   0.948   5.604
  152SBC   C0FX 6638  13.782   0.901   5.477
  152SBC   C0FW 6639  13.884   0.815   5.442
  152SBC   C0G0 6640  13.964   0.772   5.550
  152SBC   C0G2 6641  14.065   0.678   5.532
  152SBC   H01E 6642  14.128   0.649   5.615
  152SBC   C0G3 6643  14.106   0.645   5.405
  152SBC   H01C 6644  14.195   0.586   5.391
  152SBC   C0G4 6645  14.023   0.686   5.299
  152SBC   H01D 6646  14.040   0.646   5.200
  152SBC   O00E 6647  13.942   0.821   5.675
  152SBC   C0FV 6648  13.905   0.765   5.314
  152SBC   C0FU 6649  13.809   0.793   5.212
  152SBC   H01B 6650  13.817   0.743   5.117
  152SBC   C0FT 6651  13.710   0.891   5.237
  152SBC   C0FS 6652  13.592   0.948   5.174
  152SBC   C0BI 6653  13.541   1.057   5.259
  152SBC   C0BH 6654  13.401   1.064   5.241
  152SBC   C07F 6655  13.306   1.050   5.346
  152SBC   C07E 6656  13.314   1.094   5.479
  152SBC   C07G 6657  13.428   1.114   5.553
  152SBC   C074 6658  13.387   1.132   5.680
  152SBC   C065 6659  13.211   1.073   5.567
  152SBC   C064 6660  13.093   1.011   5.515
  152SBC   C063 6661  12.974   0.994   5.584
  152SBC   C075 6662  12.883   0.928   5.479
  152SBC   C0AM 6663  12.950   0.895   5.354
  152SBC   C0AN 6664  12.904   0.818   5.237
  152SBC   C0AO 6665  12.769   0.754   5.205
  152SBC   C0B1 6666  12.746   0.676   5.088
  152SBC   C0B0 6667  12.853   0.647   5.002
  152SBC   C0AZ 6668  12.840   0.587   4.876
  152SBC   C0AY 6669  12.950   0.578   4.792
  152SBC   N007 6670  12.941   0.508   4.669
  152SBC   C0E2 6671  13.053   0.498   4.584
  152SBC   C0E1 6672  13.029   0.442   4.463
  152SBC   C0E4 6673  13.141   0.424   4.378
  152SBC   C0FF 6674  13.122   0.366   4.246
  152SBC   C0FJ 6675  13.220   0.331   4.145
  152SBC   C0FK 6676  13.339   0.261   4.182
  152SBC   H016 6677  13.380   0.260   4.282
  152SBC   C0FL 6678  13.365   0.168   4.074
  152SBC   H017 6679  13.438   0.088   4.072
  152SBC   C0FM 6680  13.264   0.189   3.972
  152SBC   C0FH 6681  13.189   0.120   3.868
  152SBC   C0FI 6682  13.060   0.184   3.873
  152SBC   C0F3 6683  12.956   0.093   3.874
  152SBC   C0F2 6684  12.841   0.136   3.938
  152SBC   C0DW 6685  12.838   0.228   4.043
  152SBC   C0FE 6686  12.955   0.290   4.072
  152SBC   C0DV 6687  12.743   0.230   4.141
  152SBC   C0DX 6688  12.758   0.294   4.263
  152SBC   C0DK 6689  12.661   0.283   4.361
  152SBC   C0DJ 6690  12.548   0.195   4.340
  152SBC   C0DI 6691  12.451   0.188   4.434
  152SBC   C0DH 6692  12.448   0.275   4.540
  152SBC   C0DG 6693  12.568   0.337   4.572
  152SBC   C0BV 6694  12.582   0.410   4.691
  152SBC   C0BC 6695  12.705   0.469   4.724
  152SBC   C0BA 6696  12.468   0.413   4.779
  152SBC   C0B4 6697  12.482   0.493   4.889
  152SBC   C0B3 6698  12.606   0.548   4.928
  152SBC   C0B5 6699  12.368   0.508   4.968
  152SBC   C0BU 6700  12.248   0.445   4.930
  152SBC   C0BT 6701  12.229   0.379   4.810
  152SBC   C0BS 6702  12.106   0.325   4.771
  152SBC   C0CC 6703  12.106   0.245   4.658
  152SBC   C0CB 6704  11.991   0.174   4.633
  152SBC   C0CH 6705  12.017   0.052   4.558
  152SBC   C0DO 6706  12.129   0.024   4.481
  152SBC   C0DP 6707  12.133  -0.080   4.390
  152SBC   C0EA 6708  12.025  -0.179   4.379
  152SBC   H012 6709  11.938  -0.176   4.443
  152SBC   O009 6710  12.043  -0.292   4.304
  152SBC   C0EH 6711  12.148  -0.288   4.214
  152SBC   C0EG 6712  12.156  -0.391   4.122
  152SBC   C0EJ 6713  12.076  -0.507   4.100
  152SBC   H010 6714  11.990  -0.526   4.162
  152SBC   C0EK 6715  12.127  -0.579   3.981
  152SBC   H00Z 6716  12.086  -0.663   3.927
  152SBC   C0EL 6717  12.252  -0.511   3.960
  152SBC   C0EM 6718  12.360  -0.540   3.868
  152SBC   C0EW 6719  12.363  -0.650   3.774
  152SBC   H013 6720  12.282  -0.722   3.771
  152SBC   C0EX 6721  12.476  -0.670   3.683
  152SBC   H014 6722  12.477  -0.760   3.624
  152SBC   C0F1 6723  12.587  -0.570   3.695
  152SBC   C0EU 6724  12.580  -0.467   3.789
  152SBC   C0ET 6725  12.667  -0.361   3.812
  152SBC   C0ES 6726  12.610  -0.282   3.913
  152SBC   C0EE 6727  12.483  -0.335   3.948
  152SBC   C0ED 6728  12.364  -0.301   4.024
  152SBC   C0EC 6729  12.360  -0.194   4.113
  152SBC   C0EB 6730  12.454  -0.085   4.120
  152SBC   C0EN 6731  12.561  -0.066   4.017
  152SBC   C0ER 6732  12.629   0.054   4.022
  152SBC   C0DS 6733  12.443   0.020   4.214
  152SBC   C0DR 6734  12.340   0.012   4.310
  152SBC   C0EY 6735  12.627  -0.146   3.922
  152SBC   C0EZ 6736  12.746  -0.086   3.879
  152SBC   C0F5 6737  12.869  -0.123   3.808
  152SBC   C0F6 6738  12.878  -0.246   3.742
  152SBC   N008 6739  13.006  -0.269   3.672
  152SBC   C0F7 6740  13.122  -0.176   3.687
  152SBC   C0FQ 6741  13.247  -0.227   3.644
  152SBC   H018 6742  13.331  -0.164   3.669
  152SBC   C0FP 6743  13.266  -0.339   3.568
  152SBC   H019 6744  13.366  -0.370   3.539
  152SBC   C0FO 6745  13.159  -0.413   3.536
  152SBC   H01A 6746  13.169  -0.499   3.471
  152SBC   C0F8 6747  13.098  -0.061   3.760
  152SBC   C0F9 6748  13.028  -0.388   3.594
  152SBC   C0FA 6749  12.926  -0.483   3.576
  152SBC   H015 6750  12.946  -0.571   3.516
  152SBC   C0FB 6751  12.800  -0.467   3.640
  152SBC   C0FD 6752  12.781  -0.350   3.719
  152SBC   C0FC 6753  12.707  -0.578   3.626
  152SBC   O00A 6754  12.733  -0.674   3.553
  152SBC   C0EV 6755  12.469  -0.453   3.872
  152SBC   C0EF 6756  12.254  -0.391   4.029
  152SBC   C0EI 6757  12.252  -0.189   4.207
  152SBC   C0DQ 6758  12.248  -0.092   4.304
  152SBC   C0CE 6759  12.229   0.112   4.497
  152SBC   H00U 6760  11.933  -0.016   4.560
  152SBC   C0CA 6761  11.861   0.228   4.666
  152SBC   C0C9 6762  11.856   0.316   4.787
  152SBC   C0C8 6763  11.728   0.368   4.825
  152SBC   C0C7 6764  11.680   0.437   4.941
  152SBC   C0C6 6765  11.546   0.472   4.942
  152SBC   C0C5 6766  11.441   0.501   5.035
  152SBC   C0CQ 6767  11.317   0.469   4.989
  152SBC   C0D1 6768  11.292   0.393   4.875
  152SBC   C0D8 6769  11.190   0.299   4.896
  152SBC   C0D7 6770  11.112   0.353   4.999
  152SBC   C0D6 6771  10.991   0.297   5.051
  152SBC   C0D5 6772  10.923   0.356   5.162
  152SBC   C0D4 6773  10.954   0.478   5.239
  152SBC   C0D3 6774  10.877   0.459   5.358
  152SBC   C0CX 6775  10.957   0.524   5.463
  152SBC   C0CW 6776  11.094   0.537   5.422
  152SBC   C0CV 6777  11.221   0.586   5.478
  152SBC   C0D2 6778  11.235   0.624   5.615
  152SBC   C09D 6779  11.128   0.645   5.707
  152SBC   C09C 6780  11.148   0.685   5.845
  152SBC   C09B 6781  11.051   0.713   5.939
  152SBC   C09A 6782  10.918   0.687   5.898
  152SBC   C099 6783  10.893   0.622   5.788
  152SBC   C098 6784  10.763   0.639   5.751
  152SBC   C08Y 6785  10.703   0.737   5.846
  152SBC   C08X 6786  10.581   0.815   5.837
  152SBC   C08W 6787  10.491   0.808   5.721
  152SBC   C08U 6788  10.511   0.726   5.600
  152SBC   C08V 6789  10.625   0.650   5.545
  152SBC   C0DC 6790  10.569   0.572   5.435
  152SBC   H00W 6791  10.627   0.504   5.375
  152SBC   C0DB 6792  10.428   0.596   5.423
  152SBC   H00X 6793  10.362   0.549   5.352
  152SBC   C08T 6794  10.403   0.698   5.514
  152SBC   C08S 6795  10.284   0.768   5.521
  152SBC   H00N 6796  10.206   0.749   5.449
  152SBC   C08R 6797  10.272   0.873   5.615
  152SBC   C08Q 6798  10.161   0.956   5.616
  152SBC   H00O 6799  10.098   0.950   5.529
  152SBC   C08P 6800  10.130   1.055   5.714
  152SBC   C08O 6801  10.017   1.147   5.716
  152SBC   H00P 6802   9.941   1.140   5.639
  152SBC   C08N 6803  10.015   1.254   5.810
  152SBC   C08M 6804   9.908   1.345   5.804
  152SBC   O008 6805   9.828   1.350   5.717
  152SBC   O007 6806   9.903   1.445   5.902
  152SBC   C08H 6807  10.000   1.452   5.998
  152SBC   C08G 6808   9.993   1.558   6.096
  152SBC   C03V 6809   9.891   1.652   6.117
  152SBC   H009 6810   9.803   1.655   6.054
  152SBC   C03U 6811   9.899   1.753   6.217
  152SBC   C03W 6812   9.794   1.847   6.243
  152SBC   H00A 6813   9.701   1.832   6.189
  152SBC   C03X 6814   9.811   1.939   6.343
  152SBC   H00B 6815   9.732   2.009   6.366
  152SBC   O005 6816   9.929   1.948   6.411
  152SBC   C03O 6817  10.026   1.854   6.391
  152SBC   C03N 6818  10.144   1.870   6.463
  152SBC   O000 6819  10.159   1.985   6.539
  152SBC   C019 6820  10.269   2.005   6.609
  152SBC   C018 6821  10.375   1.912   6.602
  152SBC   C017 6822  10.367   1.803   6.516
  152SBC   C016 6823  10.475   1.712   6.500
  152SBC   C015 6824  10.582   1.741   6.584
  152SBC   C014 6825  10.694   1.653   6.578
  152SBC   C013 6826  10.690   1.536   6.499
  152SBC   C012 6827  10.820   1.476   6.521
  152SBC   C011 6828  10.879   1.556   6.622
  152SBC   C010 6829  10.993   1.523   6.682
  152SBC   C00Z 6830  11.071   1.597   6.766
  152SBC   C00Y 6831  11.197   1.534   6.767
  152SBC   C01O 6832  11.192   1.429   6.682
  152SBC   C01P 6833  11.304   1.383   6.620
  152SBC   C02L 6834  11.289   1.301   6.514
  152SBC   C02K 6835  11.153   1.285   6.470
  152SBC   C01M 6836  11.037   1.352   6.516
  152SBC   C02J 6837  11.137   1.176   6.382
  152SBC   C02I 6838  11.023   1.110   6.342
  152SBC   C02H 6839  10.889   1.151   6.354
  152SBC   C01Q 6840  10.835   1.275   6.397
  152SBC   C02G 6841  10.699   1.275   6.363
  152SBC   C089 6842  10.668   1.152   6.310
  152SBC   C088 6843  10.565   1.169   6.222
  152SBC   C087 6844  10.503   1.298   6.256
  152SBC   C086 6845  10.382   1.351   6.204
  152SBC   C03S 6846  10.313   1.466   6.258
  152SBC   N006 6847  10.198   1.475   6.182
  152SBC   C08F 6848  10.196   1.378   6.094
  152SBC   C01J 6849  10.337   1.575   6.350
  152SBC   C03R 6850  10.237   1.672   6.360
  152SBC   C03Q 6851  10.119   1.665   6.278
  152SBC   C08E 6852  10.306   1.296   6.099
  152SBC   C08D 6853  10.319   1.185   6.014
  152SBC   C08K 6854  10.224   1.173   5.911
  152SBC   C08C 6855  10.424   1.095   6.019
  152SBC   C091 6856  10.437   1.000   5.914
  152SBC   C092 6857  10.345   0.986   5.809
  152SBC   C08B 6858  10.538   1.088   6.106
  152SBC   C090 6859  10.617   0.969   6.054
  152SBC   C094 6860  10.728   0.909   6.122
  152SBC   C095 6861  10.822   0.825   6.051
  152SBC   C09R 6862  10.949   0.835   6.109
  152SBC   C097 6863  10.946   0.934   6.206
  152SBC   C096 6864  10.816   0.978   6.212
  152SBC   C01I 6865  10.589   1.375   6.350
  152SBC   C08A 6866  10.789   1.088   6.288
  152SBC   C09L 6867  11.053   0.995   6.279
  152SBC   C09K 6868  11.200   0.982   6.281
  152SBC   C09J 6869  11.268   0.889   6.198
  152SBC   C09I 6870  11.398   0.918   6.146
  152SBC   C09O 6871  11.512   1.012   6.179
  152SBC   C09N 6872  11.505   1.095   6.292
  152SBC   C09M 6873  11.389   1.145   6.358
  152SBC   C06O 6874  11.632   1.145   6.336
  152SBC   C05M 6875  11.752   1.113   6.272
  152SBC   C06P 6876  11.749   1.043   6.153
  152SBC   C042 6877  11.875   1.168   6.313
  152SBC   C041 6878  11.882   1.254   6.421
  152SBC   C040 6879  12.001   1.313   6.458
  152SBC   C03Z 6880  12.005   1.417   6.551
  152SBC   C03Y 6881  11.896   1.445   6.626
  152SBC   C027 6882  11.900   1.552   6.711
  152SBC   C026 6883  11.785   1.589   6.778
  152SBC   C028 6884  11.783   1.693   6.872
  152SBC   C029 6885  11.903   1.763   6.902
  152SBC   C02B 6886  11.901   1.865   6.997
  152SBC   C02C 6887  12.016   1.944   7.005
  152SBC   C02X 6888  12.009   2.067   7.070
  152SBC   C03E 6889  12.117   2.152   7.063
  152SBC   C03G 6890  12.233   2.125   7.003
  152SBC   C04Q 6891  12.246   2.004   6.942
  152SBC   C04R 6892  12.357   1.972   6.861
  152SBC   C04S 6893  12.365   1.852   6.789
  152SBC   C04L 6894  12.254   1.769   6.780
  152SBC   C04M 6895  12.138   1.800   6.856
  152SBC   C04K 6896  12.245   1.666   6.684
  152SBC   C04F 6897  12.357   1.645   6.606
  152SBC   C04E 6898  12.472   1.723   6.617
  152SBC   C04D 6899  12.584   1.699   6.538
  152SBC   C050 6900  12.694   1.781   6.538
  152SBC   C051 6901  12.800   1.769   6.451
  152SBC   C05Q 6902  12.900   1.863   6.438
  152SBC   C05V 6903  13.003   1.841   6.353
  152SBC   N005 6904  13.106   1.936   6.343
  152SBC   C07V 6905  13.107   2.047   6.424
  152SBC   C082 6906  13.200   2.150   6.406
  152SBC   C081 6907  13.299   2.141   6.313
  152SBC   C07C 6908  13.303   2.024   6.238
  152SBC   C07B 6909  13.404   2.003   6.141
  152SBC   C080 6910  13.495   2.107   6.114
  152SBC   C07Z 6911  13.592   2.079   6.018
  152SBC   H00L 6912  13.652   2.167   5.999
  152SBC   C079 6913  13.627   1.953   5.972
  152SBC   C078 6914  13.541   1.852   5.999
  152SBC   C077 6915  13.570   1.723   5.958
  152SBC   C07X 6916  13.688   1.693   5.883
  152SBC   H00I 6917  13.714   1.589   5.866
  152SBC   C07Y 6918  13.765   1.799   5.837
  152SBC   H00H 6919  13.852   1.784   5.775
  152SBC   C076 6920  13.476   1.620   5.983
  152SBC   C06C 6921  13.499   1.485   5.949
  152SBC   H00C 6922  13.587   1.436   5.911
  152SBC   C06F 6923  13.358   1.652   6.051
  152SBC   C06E 6924  13.251   1.565   6.058
  152SBC   C06G 6925  13.129   1.587   6.116
  152SBC   C06H 6926  13.123   1.704   6.196
  152SBC   C06I 6927  13.223   1.797   6.190
  152SBC   C06L 6928  13.023   1.485   6.111
  152SBC   C06M 6929  13.033   1.372   6.031
  152SBC   C06K 6930  12.914   1.509   6.201
  152SBC   C05S 6931  12.912   1.623   6.288
  152SBC   C05U 6932  12.807   1.422   6.203
  152SBC   C05X 6933  12.801   1.315   6.109
  152SBC   C05G 6934  12.672   1.249   6.103
  152SBC   C05F 6935  12.574   1.279   6.196
  152SBC   C05E 6936  12.453   1.208   6.173
  152SBC   C048 6937  12.337   1.235   6.250
  152SBC   C056 6938  12.222   1.179   6.205
  152SBC   C045 6939  12.110   1.206   6.274
  152SBC   C047 6940  12.350   1.324   6.353
  152SBC   C049 6941  12.469   1.401   6.365
  152SBC   C04B 6942  12.471   1.506   6.449
  152SBC   C046 6943  12.234   1.349   6.425
  152SBC   C04H 6944  12.243   1.459   6.505
  152SBC   C05D 6945  12.467   1.133   6.060
  152SBC   C04A 6946  12.583   1.379   6.293
  152SBC   C05T 6947  12.698   1.453   6.291
  152SBC   C055 6948  12.699   1.563   6.379
  152SBC   C06D 6949  13.269   1.439   6.000
  152SBC   C07W 6950  13.334   1.774   6.107
  152SBC   C085 6951  13.741   1.928   5.884
  152SBC   H00M 6952  13.802   2.013   5.856
  152SBC   C084 6953  13.487   2.227   6.192
  152SBC   H00J 6954  13.561   2.304   6.172
  152SBC   C07A 6955  13.428   1.876   6.082
  152SBC   C083 6956  13.396   2.243   6.293
  152SBC   H00K 6957  13.397   2.335   6.350
  152SBC   O00K 6958  13.206   2.264   6.486
  152SBC   C0GO 6959  13.107   2.271   6.580
  152SBC   C0GN 6960  13.107   2.378   6.670
  152SBC   H01L 6961  13.180   2.457   6.658
  152SBC   C0GM 6962  12.994   2.409   6.755
  152SBC   C0GL 6963  13.000   2.510   6.844
  152SBC   H01M 6964  13.085   2.576   6.853
  152SBC   O00J 6965  12.896   2.538   6.936
  152SBC   C0GK 6966  12.798   2.445   6.937
  152SBC   H01N 6967  12.735   2.440   7.025
  152SBC   C05K 6968  12.787   2.350   6.843
  152SBC   C05J 6969  12.674   2.261   6.843
  152SBC   C04Y 6970  12.550   2.285   6.908
  152SBC   C04X 6971  12.448   2.193   6.922
  152SBC   O006 6972  12.534   2.411   6.961
  152SBC   C053 6973  12.428   2.444   7.037
  152SBC   C04O 6974  12.322   2.353   7.052
  152SBC   C03C 6975  12.202   2.376   7.128
  152SBC   C03B 6976  12.142   2.493   7.182
  152SBC   C054 6977  12.192   2.621   7.188
  152SBC   C0GR 6978  12.120   2.736   7.239
  152SBC   C03M 6979  11.981   2.765   7.294
  152SBC   C03I 6980  11.872   2.666   7.298
  152SBC   C03J 6981  11.747   2.709   7.346
  152SBC   N002 6982  11.628   2.627   7.321
  152SBC   C02U 6983  11.496   2.682   7.350
  152SBC   C02T 6984  11.381   2.608   7.330
  152SBC   C02Z 6985  11.258   2.662   7.357
  152SBC   N001 6986  11.140   2.599   7.304
  152SBC   C02R 6987  11.010   2.654   7.326
  152SBC   C032 6988  10.998   2.779   7.385
  152SBC   C031 6989  11.117   2.846   7.418
  152SBC   H007 6990  11.102   2.943   7.463
  152SBC   C033 6991  10.862   2.824   7.414
  152SBC   H003 6992  10.843   2.915   7.470
  152SBC   O004 6993  10.750   2.761   7.374
  152SBC   C034 6994  10.762   2.640   7.324
  152SBC   C035 6995  10.640   2.572   7.293
  152SBC   C036 6996  10.659   2.447   7.238
  152SBC   H005 6997  10.568   2.393   7.216
  152SBC   C037 6998  10.787   2.392   7.207
  152SBC   H006 6999  10.788   2.291   7.170
  152SBC   C00D 7000  10.901   2.465   7.226
  152SBC   C00C 7001  11.023   2.406   7.190
  152SBC   C00B 7002  11.044   2.282   7.115
  152SBC   C00A 7003  10.970   2.168   7.048
  152SBC   C009 7004  11.063   2.065   7.037
  152SBC   C008 7005  11.064   1.948   6.966
  152SBC   C007 7006  10.945   1.921   6.901
  152SBC   C006 7007  10.940   1.800   6.829
  152SBC   C005 7008  10.822   1.778   6.752
  152SBC   C004 7009  10.719   1.873   6.743
  152SBC   C003 7010  10.736   1.997   6.807
  152SBC   C002 7011  10.641   2.099   6.793
  152SBC   C01C 7012  10.515   2.060   6.740
  152SBC   C01B 7013  10.404   2.150   6.748
  152SBC   H000 7014  10.418   2.240   6.805
  152SBC   C001 7015  10.669   2.227   6.838
  152SBC   C000 7016  10.782   2.253   6.915
  152SBC   C01U 7017  10.801   2.389   6.906
  152SBC   H002 7018  10.880   2.456   6.937
  152SBC   C01T 7019  10.679   2.445   6.846
  152SBC   O002 7020  10.645   2.562   6.842
  152SBC   O001 7021  10.607   2.341   6.799
  152SBC   C01S 7022  10.849   2.023   6.889
  152SBC   C00N 7023  11.185   1.874   6.962
  152SBC   C00M 7024  11.300   1.920   7.015
  152SBC   C00J 7025  11.305   2.040   7.074
  152SBC   C00I 7026  11.418   2.102   7.120
  152SBC   C00H 7027  11.410   2.234   7.166
  152SBC   C00G 7028  11.291   2.300   7.177
  152SBC   C00F 7029  11.274   2.421   7.232
  152SBC   C01X 7030  11.527   2.298   7.208
  152SBC   C01W 7031  11.646   2.239   7.187
  152SBC   C01V 7032  11.653   2.108   7.126
  152SBC   C020 7033  11.775   2.047   7.100
  152SBC   C01Z 7034  11.761   2.312   7.214
  152SBC   C02Y 7035  11.878   2.246   7.175
  152SBC   C039 7036  11.993   2.324   7.183
  152SBC   C02W 7037  11.765   2.445   7.254
  152SBC   C01Y 7038  11.517   2.427   7.255
  152SBC   C00U 7039  11.538   2.039   7.100
  152SBC   C00S 7040  11.541   1.915   7.038
  152SBC   C00T 7041  11.662   1.854   7.008
  152SBC   C00R 7042  11.424   1.859   6.989
  152SBC   C00Q 7043  11.428   1.746   6.917
  152SBC   C00V 7044  11.549   1.688   6.883
  152SBC   C024 7045  11.548   1.577   6.802
  152SBC   C00X 7046  11.431   1.524   6.762
  152SBC   C00P 7047  11.306   1.695   6.875
  152SBC   C00O 7048  11.182   1.761   6.889
  152SBC   C00K 7049  11.186   2.113   7.077
  152SBC   N000 7050  10.867   2.152   6.949
  152SBC   C00L 7051  11.178   2.241   7.123
  152SBC   H004 7052  10.543   2.613   7.318
  152SBC   C02Q 7053  10.892   2.583   7.294
  152SBC   C00E 7054  11.142   2.473   7.243
  152SBC   C030 7055  11.246   2.791   7.407
  152SBC   O003 7056  11.356   2.859   7.449
  152SBC   C02S 7057  11.388   2.487   7.271
  152SBC   C038 7058  11.480   2.813   7.414
  152SBC   C03L 7059  11.597   2.887   7.437
  152SBC   H008 7060  11.600   2.985   7.483
  152SBC   C02V 7061  11.640   2.496   7.276
  152SBC   C03K 7062  11.723   2.838   7.396
  152SBC   C0BK 7063  11.830   2.915   7.403
  152SBC   H00T 7064  11.817   3.013   7.445
  152SBC   C03H 7065  11.878   2.529   7.258
  152SBC   C0BL 7066  11.961   2.891   7.353
  152SBC   C0GU 7067  12.071   2.987   7.347
  152SBC   H01O 7068  12.038   3.085   7.377
  152SBC   C0GT 7069  12.195   2.960   7.289
  152SBC   H01P 7070  12.272   3.036   7.297
  152SBC   C0GS 7071  12.220   2.835   7.245
  152SBC   C0GV 7072  12.341   2.789   7.186
  152SBC   C0GW 7073  12.467   2.860   7.164
  152SBC   H01Q 7074  12.483   2.964   7.186
  152SBC   C0GX 7075  12.566   2.777   7.124
  152SBC   H01R 7076  12.666   2.814   7.111
  152SBC   O00L 7077  12.559   2.642   7.088
  152SBC   C0GQ 7078  12.325   2.654   7.148
  152SBC   C03A 7079  12.002   2.463   7.214
  152SBC   C05L 7080  12.433   2.577   7.091
  152SBC   C04W 7081  12.677   2.141   6.764
  152SBC   C05I 7082  12.790   2.111   6.685
  152SBC   C05O 7083  12.893   2.203   6.667
  152SBC   C052 7084  12.793   1.998   6.609
  152SBC   C04V 7085  12.574   2.043   6.767
  152SBC   C04U 7086  12.584   1.922   6.700
  152SBC   N009 7087  12.888   2.323   6.746
  152SBC   C0GP 7088  13.000   2.180   6.588
  152SBC   C05W 7089  12.997   2.067   6.512
  152SBC   C07D 7090  13.213   1.917   6.254
  152SBC   C06J 7091  13.014   1.724   6.284
  152SBC   C05P 7092  12.894   1.976   6.519
  152SBC   C05R 7093  12.804   1.651   6.376
  152SBC   C04Z 7094  12.691   1.898   6.618
  152SBC   C04C 7095  12.587   1.584   6.461
  152SBC   C04G 7096  12.357   1.538   6.515
  152SBC   C04J 7097  12.128   1.592   6.669
  152SBC   C04T 7098  12.472   1.833   6.703
  152SBC   N003 7099  12.461   2.068   6.851
  152SBC   C04P 7100  12.332   2.221   6.992
  152SBC   C03D 7101  12.108   2.277   7.126
  152SBC   C021 7102  11.888   2.119   7.120
  152SBC   C03F 7103  12.137   1.914   6.942
  152SBC   C022 7104  11.780   1.919   7.039
  152SBC   C02A 7105  12.022   1.719   6.843
  152SBC   C023 7106  11.664   1.742   6.922
  152SBC   C025 7107  11.663   1.528   6.743
  152SBC   C02D 7108  11.660   1.421   6.657
  152SBC   C02E 7109  11.542   1.372   6.610
  152SBC   C02N 7110  11.529   1.277   6.509
  152SBC   C04N 7111  12.016   1.616   6.747
  152SBC   C02P 7112  11.779   1.379   6.598
  152SBC   C04I 7113  12.125   1.489   6.578
  152SBC   C044 7114  12.114   1.287   6.388
  152SBC   C043 7115  11.769   1.283   6.492
  152SBC   C05N 7116  11.645   1.230   6.449
  152SBC   C09U 7117  11.631   0.991   6.105
  152SBC   C09V 7118  11.629   0.914   5.987
  152SBC   C09X 7119  11.514   0.852   5.939
  152SBC   C09Y 7120  11.502   0.792   5.820
  152SBC   C0A1 7121  11.610   0.775   5.745
  152SBC   C0A2 7122  11.732   0.826   5.793
  152SBC   C0A4 7123  11.845   0.809   5.714
  152SBC   C071 7124  11.970   0.857   5.762
  152SBC   C0A5 7125  12.081   0.838   5.688
  152SBC   C0A9 7126  12.071   0.770   5.569
  152SBC   C0A8 7127  11.951   0.723   5.524
  152SBC   C0AP 7128  11.938   0.661   5.398
  152SBC   C0BY 7129  11.813   0.632   5.352
  152SBC   C0BX 7130  11.696   0.649   5.416
  152SBC   C0C2 7131  11.574   0.599   5.366
  152SBC   C0C3 7132  11.462   0.610   5.446
  152SBC   C0CT 7133  11.473   0.662   5.573
  152SBC   C0C1 7134  11.569   0.545   5.239
  152SBC   C0C0 7135  11.695   0.510   5.175
  152SBC   C0A7 7136  11.710   0.703   5.541
  152SBC   C0BZ 7137  11.809   0.560   5.239
  152SBC   C0BO 7138  11.925   0.517   5.172
  152SBC   C0BN 7139  12.052   0.578   5.204
  152SBC   C0BM 7140  12.156   0.545   5.126
  152SBC   C0B9 7141  12.280   0.596   5.163
  152SBC   C0B8 7142  12.287   0.667   5.281
  152SBC   C0AD 7143  12.176   0.680   5.363
  152SBC   C0AF 7144  12.406   0.725   5.321
  152SBC   C0AG 7145  12.524   0.710   5.247
  152SBC   C0B7 7146  12.513   0.629   5.127
  152SBC   C0AE 7147  12.404   0.792   5.438
  152SBC   C0AB 7148  12.302   0.803   5.530
  152SBC   C0AA 7149  12.315   0.869   5.651
  152SBC   C0AJ 7150  12.526   0.844   5.479
  152SBC   C0AK 7151  12.545   0.885   5.610
  152SBC   C06W 7152  12.678   0.912   5.624
  152SBC   C0AI 7153  12.649   0.828   5.413
  152SBC   C0BP 7154  11.892   0.451   5.056
  152SBC   C0BQ 7155  12.003   0.425   4.970
  152SBC   C0BW 7156  12.053   0.641   5.323
  152SBC   C0AC 7157  12.184   0.749   5.486
  152SBC   C0A6 7158  11.837   0.736   5.596
  152SBC   C0A3 7159  11.596   0.720   5.618
  152SBC   C09Z 7160  11.379   0.728   5.779
  152SBC   C09W 7161  11.742   0.898   5.910
  152SBC   C072 7162  11.861   0.949   5.957
  152SBC   C09H 7163  11.412   0.839   6.033
  152SBC   C09G 7164  11.299   0.767   6.006
  152SBC   C09P 7165  11.204   0.808   6.097
  152SBC   C02O 7166  11.253   1.097   6.338
  152SBC   C02M 7167  11.405   1.240   6.463
  152SBC   C02F 7168  11.426   1.423   6.666
  152SBC   C00W 7169  11.315   1.586   6.804
  152SBC   C01R 7170  11.062   1.727   6.833
  152SBC   C01N 7171  11.071   1.427   6.627
  152SBC   C01L 7172  10.901   1.366   6.471
  152SBC   C01H 7173  10.578   1.498   6.420
  152SBC   C01K 7174  10.807   1.664   6.661
  152SBC   C01E 7175  10.600   1.850   6.664
  152SBC   C01G 7176  10.464   1.593   6.420
  152SBC   C01D 7177  10.493   1.939   6.672
  152SBC   C01A 7178  10.284   2.123   6.680
  152SBC   H001 7179  10.213   2.203   6.696
  152SBC   C01F 7180  10.251   1.782   6.447
  152SBC   C03P 7181  10.012   1.755   6.292
  152SBC   C03T 7182  10.102   1.573   6.180
  152SBC   C08I 7183  10.104   1.364   6.000
  152SBC   C08J 7184  10.113   1.262   5.905
  152SBC   C08L 7185  10.229   1.066   5.813
  152SBC   C093 7186  10.376   0.891   5.713
  152SBC   C08Z 7187  10.550   0.918   5.932
  152SBC   C09T 7188  10.750   0.608   5.616
  152SBC   C09S 7189  10.805   0.748   5.943
  152SBC   C09Q 7190  11.069   0.785   6.060
  152SBC   C09F 7191  11.278   0.723   5.876
  152SBC   C09E 7192  10.987   0.618   5.687
  152SBC   C0A0 7193  11.358   0.667   5.654
  152SBC   C0CU 7194  11.337   0.579   5.391
  152SBC   C0CR 7195  11.335   0.532   5.257
  152SBC   C0CZ 7196  11.209   0.499   5.202
  152SBC   C0DA 7197  10.897   0.589   5.577
  152SBC   C0D9 7198  10.844   0.316   5.366
  152SBC   H00V 7199  10.820   0.260   5.456
  152SBC   C0CY 7200  11.089   0.506   5.284
  152SBC   C0DF 7201  10.864   0.259   5.241
  152SBC   C0DE 7202  10.889   0.135   5.174
  152SBC   C0GI 7203  10.854   0.001   5.208
  152SBC   H01K 7204  10.795  -0.026   5.294
  152SBC   C0GJ 7205  10.899  -0.092   5.121
  152SBC   H01J 7206  10.876  -0.194   5.151
  152SBC   O00I 7207  10.980  -0.079   5.009
  152SBC   C0GH 7208  11.009   0.049   4.968
  152SBC   C0GG 7209  11.095   0.063   4.855
  152SBC   O00G 7210  11.116  -0.053   4.779
  152SBC   C0G8 7211  11.197  -0.050   4.670
  152SBC   C0G9 7212  11.176  -0.153   4.578
  152SBC   H01G 7213  11.091  -0.216   4.598
  152SBC   C0GA 7214  11.257  -0.170   4.470
  152SBC   H01H 7215  11.232  -0.250   4.402
  152SBC   C0GB 7216  11.372  -0.088   4.450
  152SBC   C0EP 7217  11.405   0.000   4.563
  152SBC   C0E8 7218  11.538   0.054   4.567
  152SBC   C0CK 7219  11.616   0.136   4.650
  152SBC   C0CL 7220  11.551   0.248   4.706
  152SBC   C0E9 7221  11.412   0.242   4.746
  152SBC   C0GE 7222  11.301   0.145   4.749
  152SBC   C0E7 7223  11.621   0.044   4.453
  152SBC   C0CJ 7224  11.745   0.114   4.462
  152SBC   C0E6 7225  11.828   0.129   4.353
  152SBC   H00Y 7226  11.912   0.196   4.345
  152SBC   C0EO 7227  11.786   0.054   4.236
  152SBC   H011 7228  11.850   0.069   4.150
  152SBC   C0G6 7229  11.657  -0.024   4.227
  152SBC   C0G5 7230  11.627  -0.107   4.119
  152SBC   H01F 7231  11.690  -0.117   4.032
  152SBC   C0GD 7232  11.514  -0.181   4.128
  152SBC   H01I 7233  11.492  -0.241   4.041
  152SBC   O00H 7234  11.419  -0.179   4.234
  152SBC   C0EQ 7235  11.572  -0.031   4.340
  152SBC   C0GC 7236  11.454  -0.095   4.334
  152SBC   C0G7 7237  11.308   0.032   4.664
  152SBC   C0DD 7238  10.966   0.157   5.054
  152SBC   C0GF 7239  11.190   0.170   4.837
  152SBC   C0CO 7240  11.400   0.366   4.800
  152SBC   C0D0 7241  11.207   0.448   5.067
  152SBC   C0C4 7242  11.451   0.523   5.176
  152SBC   C0CN 7243  11.512   0.443   4.807
  152SBC   C0CP 7244  11.751   0.444   5.057
  152SBC   C0CM 7245  11.614   0.374   4.740
  152SBC   C0CI 7246  11.752   0.158   4.599
  152SBC   C0CD 7247  12.226   0.213   4.591
  152SBC   C0BR 7248  11.985   0.361   4.846
  152SBC   C0CS 7249  12.133   0.470   5.010
  152SBC   C0B6 7250  12.392   0.575   5.087
  152SBC   C0CG 7251  12.344   0.365   4.731
  152SBC   C0CF 7252  12.340   0.284   4.622
  152SBC   C0E5 7253  12.339   0.108   4.412
  152SBC   C0DT 7254  12.541   0.115   4.226
  152SBC   C0DL 7255  12.676   0.341   4.485
  152SBC   C0DM 7256  12.799   0.390   4.520
  152SBC   C0DY 7257  12.886   0.344   4.295
  152SBC   C0DU 7258  12.634   0.143   4.133
  152SBC   C0F0 7259  12.736   0.045   3.935
  152SBC   C0F4 7260  12.974  -0.028   3.814
  152SBC   C0FG 7261  13.063   0.285   3.973
  152SBC   O00B 7262  13.212   0.003   3.798
  152SBC   C0FN 7263  13.191   0.304   4.012
  152SBC   C0DZ 7264  12.987   0.340   4.201
  152SBC   O00C 7265  13.266   0.461   4.414
  152SBC   C0FR 7266  13.293   0.533   4.525
  152SBC   O00D 7267  13.408   0.566   4.537
  152SBC   C0E0 7268  12.905   0.389   4.425
  152SBC   C0E3 7269  13.178   0.555   4.616
  152SBC   C0AW 7270  13.185   0.634   4.728
  152SBC   C0AV 7271  13.292   0.723   4.759
  152SBC   H00Q 7272  13.381   0.722   4.698
  152SBC   C0AU 7273  13.290   0.807   4.869
  152SBC   H00R 7274  13.374   0.868   4.900
  152SBC   C0AT 7275  13.181   0.800   4.962
  152SBC   C0AS 7276  13.143   0.847   5.093
  152SBC   C0AR 7277  13.229   0.930   5.170
  152SBC   C0BE 7278  13.074   0.723   4.922
  152SBC   C0DN 7279  12.811   0.459   4.637
  152SBC   C0AX 7280  13.069   0.642   4.809
  152SBC   C0BB 7281  12.713   0.535   4.845
  152SBC   C0BD 7282  12.974   0.720   5.018
  152SBC   C0B2 7283  12.626   0.611   5.050
  152SBC   C0AH 7284  12.646   0.765   5.285
  152SBC   C0BF 7285  13.003   0.800   5.131
  152SBC   C0AL 7286  12.746   0.886   5.500
  152SBC   C07U 7287  13.083   0.957   5.382
  152SBC   C0AQ 7288  13.194   0.979   5.296
  152SBC   C0BG 7289  13.364   0.976   5.137
  152SBC   C0FY 7290  13.604   1.044   5.384
  152SBC   C0BJ 7291  13.477   0.885   5.111
  152SBC   H00S 7292  13.477   0.788   5.063
  152SBC   C0FZ 7293  13.711   0.954   5.368
  152SBC   C07S 7294  13.561   1.076   5.518
  152SBC   C0G1 7295  13.838   0.907   5.703
  152SBC   C07K 7296  13.678   1.082   5.993
  152SBC   C07H 7297  13.482   1.129   5.788
  152SBC   C06B 7298  13.389   1.398   5.959
  152SBC   C06N 7299  13.165   1.352   5.979
  152SBC   C066 7300  13.244   1.120   5.698
  152SBC   C062 7301  12.950   1.036   5.726
  152SBC   C05Y 7302  12.917   1.289   6.023
  152SBC   C061 7303  12.839   0.991   5.803
  152SBC   C05H 7304  12.604   1.157   6.018
  152SBC   C06V 7305  12.707   0.961   5.751
  152SBC   C06Y 7306  12.434   0.919   5.690
  152SBC   C05C 7307  12.343   1.078   6.011
  152SBC   C06Z 7308  12.203   0.884   5.733
  152SBC   C070 7309  11.976   0.926   5.880
  152SBC   C05B 7310  12.225   1.100   6.088
  152SBC   C057 7311  11.991   1.149   6.236
  152SBC   C059 7312  11.867   1.022   6.075
  153SBC   C058 7313   8.033   9.604   7.622
  153SBC   C05A 7314   8.141   9.515   7.605
  153SBC   C06Q 7315   8.244   9.539   7.519
  153SBC   C06R 7316   8.340   9.438   7.495
  153SBC   C06S 7317   8.339   9.310   7.556
  153SBC   C06T 7318   8.435   9.215   7.510
  153SBC   C06U 7319   8.456   9.074   7.553
  153SBC   C06X 7320   8.392   8.990   7.648
  153SBC   C060 7321   8.449   8.853   7.640
  153SBC   C05Z 7322   8.481   8.777   7.760
  153SBC   C068 7323   8.616   8.727   7.735
  153SBC   C067 7324   8.697   8.627   7.815
  153SBC   C069 7325   8.629   8.537   7.902
  153SBC   C06A 7326   8.674   8.403   7.945
  153SBC   C073 7327   8.773   8.315   7.883
  153SBC   C07P 7328   8.737   8.180   7.853
  153SBC   C07O 7329   8.607   8.124   7.830
  153SBC   H00D 7330   8.515   8.180   7.827
  153SBC   C07N 7331   8.582   7.987   7.819
  153SBC   H00E 7332   8.484   7.951   7.790
  153SBC   C07M 7333   8.687   7.901   7.840
  153SBC   H00F 7334   8.670   7.794   7.840
  153SBC   C07L 7335   8.815   7.948   7.861
  153SBC   C07Q 7336   8.924   7.856   7.884
  153SBC   H00G 7337   8.901   7.751   7.872
  153SBC   O00F 7338   9.054   7.907   7.900
  153SBC   C07J 7339   9.075   8.040   7.897
  153SBC   C07I 7340   8.970   8.128   7.887
  153SBC   N004 7341   9.003   8.266   7.888
  153SBC   C07R 7342   9.142   8.307   7.886
  153SBC   C07T 7343   9.242   8.210   7.885
  153SBC   C0FX 7344   9.371   8.235   7.854
  153SBC   C0FW 7345   9.459   8.139   7.792
  153SBC   C0G0 7346   9.416   8.006   7.808
  153SBC   C0G2 7347   9.495   7.896   7.767
  153SBC   H01E 7348   9.448   7.798   7.777
  153SBC   C0G3 7349   9.608   7.922   7.692
  153SBC   H01C 7350   9.668   7.851   7.638
  153SBC   C0G4 7351   9.647   8.056   7.673
  153SBC   H01D 7352   9.726   8.072   7.601
  153SBC   O00E 7353   9.296   7.973   7.868
  153SBC   C0FV 7354   9.572   8.170   7.717
  153SBC   C0FU 7355   9.596   8.310   7.690
  153SBC   H01B 7356   9.680   8.337   7.627
  153SBC   C0FT 7357   9.517   8.409   7.750
  153SBC   C0FS 7358   9.489   8.549   7.728
  153SBC   C0BI 7359   9.382   8.594   7.810
  153SBC   C0BH 7360   9.318   8.702   7.737
  153SBC   C07F 7361   9.177   8.712   7.706
  153SBC   C07E 7362   9.068   8.659   7.772
  153SBC   C07G 7363   9.068   8.541   7.848
  153SBC   C074 7364   8.933   8.508   7.861
  153SBC   C065 7365   8.936   8.682   7.728
  153SBC   C064 7366   8.917   8.751   7.606
  153SBC   C063 7367   8.798   8.799   7.547
  153SBC   C075 7368   8.853   8.882   7.427
  153SBC   C0AM 7369   8.999   8.873   7.416
  153SBC   C0AN 7370   9.088   8.930   7.318
  153SBC   C0AO 7371   9.068   9.049   7.230
  153SBC   C0B1 7372   9.165   9.088   7.135
  153SBC   C0B0 7373   9.273   9.008   7.099
  153SBC   C0AZ 7374   9.361   9.031   6.999
  153SBC   C0AY 7375   9.459   8.936   6.973
  153SBC   N007 7376   9.565   8.965   6.879
  153SBC   C0E2 7377   9.669   8.869   6.858
  153SBC   C0E1 7378   9.771   8.903   6.766
  153SBC   C0E4 7379   9.871   8.806   6.734
  153SBC   C0FF 7380   9.980   8.838   6.646
  153SBC   C0FJ 7381  10.091   8.763   6.580
  153SBC   C0FK 7382  10.100   8.626   6.535
  153SBC   H016 7383  10.033   8.548   6.566
  153SBC   C0FL 7384  10.218   8.622   6.443
  153SBC   H017 7385  10.247   8.532   6.390
  153SBC   C0FM 7386  10.272   8.756   6.423
  153SBC   C0FH 7387  10.344   8.856   6.346
  153SBC   C0FI 7388  10.295   8.975   6.406
  153SBC   C0F3 7389  10.291   9.095   6.339
  153SBC   C0F2 7390  10.201   9.185   6.391
  153SBC   C0DW 7391  10.097   9.154   6.478
  153SBC   C0FE 7392  10.103   9.036   6.547
  153SBC   C0DV 7393   9.984   9.235   6.493
  153SBC   C0DX 7394   9.877   9.191   6.572
  153SBC   C0DK 7395   9.771   9.281   6.585
  153SBC   C0DJ 7396   9.764   9.403   6.515
  153SBC   C0DI 7397   9.654   9.486   6.526
  153SBC   C0DH 7398   9.555   9.455   6.615
  153SBC   C0DG 7399   9.552   9.330   6.681
  153SBC   C0BV 7400   9.459   9.307   6.777
  153SBC   C0BC 7401   9.459   9.181   6.838
  153SBC   C0BA 7402   9.366   9.406   6.814
  153SBC   C0B4 7403   9.268   9.370   6.914
  153SBC   C0B3 7404   9.267   9.246   6.974
  153SBC   C0B5 7405   9.180   9.474   6.958
  153SBC   C0BU 7406   9.180   9.595   6.889
  153SBC   C0BT 7407   9.273   9.628   6.787
  153SBC   C0BS 7408   9.279   9.753   6.723
  153SBC   C0CC 7409   9.369   9.774   6.617
  153SBC   C0CB 7410   9.373   9.892   6.546
  153SBC   C0CH 7411   9.431   9.884   6.417
  153SBC   C0DO 7412   9.539   9.802   6.390
  153SBC   C0DP 7413   9.633   9.826   6.287
  153SBC   C0EA 7414   9.625   9.943   6.198
  153SBC   H012 7415   9.530   9.994   6.195
  153SBC   O009 7416   9.731   9.985   6.122
  153SBC   C0EH 7417   9.842   9.905   6.128
  153SBC   C0EG 7418   9.953   9.955   6.059
  153SBC   C0EJ 7419   9.982  10.074   5.984
  153SBC   H010 7420   9.912  10.155   5.972
  153SBC   C0EK 7421  10.106  10.053   5.908
  153SBC   H00Z 7422  10.147  10.124   5.837
  153SBC   C0EL 7423  10.151   9.931   5.953
  153SBC   C0EM 7424  10.269   9.856   5.907
  153SBC   C0EW 7425  10.380   9.890   5.823
  153SBC   H013 7426  10.392   9.991   5.786
  153SBC   C0EX 7427  10.492   9.798   5.804
  153SBC   H014 7428  10.579   9.839   5.755
  153SBC   C0F1 7429  10.483   9.660   5.852
  153SBC   C0EU 7430  10.376   9.630   5.933
  153SBC   C0ET 7431  10.348   9.506   5.995
  153SBC   C0ES 7432  10.221   9.527   6.056
  153SBC   C0EE 7433  10.170   9.653   6.030
  153SBC   C0ED 7434  10.063   9.735   6.076
  153SBC   C0EC 7435   9.962   9.694   6.168
  153SBC   C0EB 7436   9.960   9.576   6.244
  153SBC   C0EN 7437  10.061   9.475   6.229
  153SBC   C0ER 7438  10.069   9.382   6.328
  153SBC   C0DS 7439   9.857   9.549   6.341
  153SBC   C0DR 7440   9.753   9.635   6.356
  153SBC   C0EY 7441  10.175   9.440   6.148
  153SBC   C0EZ 7442  10.245   9.323   6.186
  153SBC   C0F5 7443  10.349   9.233   6.147
  153SBC   C0F6 7444  10.439   9.270   6.048
  153SBC   N008 7445  10.520   9.162   6.003
  153SBC   C0F7 7446  10.508   9.027   6.054
  153SBC   C0FQ 7447  10.588   8.926   5.986
  153SBC   H018 7448  10.571   8.826   6.022
  153SBC   C0FP 7449  10.682   8.954   5.887
  153SBC   H019 7450  10.750   8.876   5.855
  153SBC   C0FO 7451  10.699   9.085   5.843
  153SBC   H01A 7452  10.766   9.108   5.761
  153SBC   C0F8 7453  10.431   9.006   6.173
  153SBC   C0F9 7454  10.617   9.189   5.898
  153SBC   C0FA 7455  10.634   9.322   5.852
  153SBC   H015 7456  10.718   9.335   5.785
  153SBC   C0FB 7457  10.550   9.426   5.892
  153SBC   C0FD 7458  10.445   9.398   5.979
  153SBC   C0FC 7459  10.576   9.552   5.819
  153SBC   O00A 7460  10.676   9.579   5.758
  153SBC   C0EV 7461  10.269   9.719   5.950
  153SBC   C0EF 7462  10.057   9.870   6.039
  153SBC   C0EI 7463   9.851   9.781   6.194
  153SBC   C0DQ 7464   9.744   9.748   6.277
  153SBC   C0CE 7465   9.546   9.689   6.468
  153SBC   H00U 7466   9.408   9.960   6.344
  153SBC   C0CA 7467   9.313  10.011   6.600
  153SBC   C0C9 7468   9.222   9.999   6.710
  153SBC   C0C8 7469   9.153  10.123   6.761
  153SBC   C0C7 7470   9.026  10.140   6.834
  153SBC   C0C6 7471   8.978  10.276   6.844
  153SBC   C0C5 7472   8.852  10.347   6.855
  153SBC   C0CQ 7473   8.844  10.471   6.788
  153SBC   C0D1 7474   8.945  10.510   6.701
  153SBC   C0D8 7475   8.899  10.581   6.597
  153SBC   C0D7 7476   8.773  10.627   6.635
  153SBC   C0D6 7477   8.684  10.702   6.563
  153SBC   C0D5 7478   8.555  10.730   6.616
  153SBC   C0D4 7479   8.478  10.694   6.731
  153SBC   C0D3 7480   8.343  10.709   6.708
  153SBC   C0CX 7481   8.267  10.624   6.795
  153SBC   C0CW 7482   8.365  10.536   6.864
  153SBC   C0CV 7483   8.374  10.424   6.959
  153SBC   C0D2 7484   8.267  10.404   7.043
  153SBC   C09D 7485   8.161  10.492   7.075
  153SBC   C09C 7486   8.075  10.466   7.181
  153SBC   C09B 7487   7.954  10.537   7.213
  153SBC   C09A 7488   7.941  10.653   7.135
  153SBC   C099 7489   8.033  10.698   7.047
  153SBC   C098 7490   7.968  10.783   6.956
  153SBC   C08Y 7491   7.830  10.779   6.980
  153SBC   C08X 7492   7.723  10.831   6.898
  153SBC   C08W 7493   7.757  10.909   6.777
  153SBC   C08U 7494   7.886  10.933   6.711
  153SBC   C08V 7495   8.011  10.870   6.729
  153SBC   C0DC 7496   8.101  10.955   6.662
  153SBC   H00W 7497   8.207  10.939   6.676
  153SBC   C0DB 7498   8.034  11.057   6.587
  153SBC   H00X 7499   8.074  11.128   6.516
  153SBC   C08T 7500   7.899  11.043   6.624
  153SBC   C08S 7501   7.798  11.124   6.584
  153SBC   H00N 7502   7.819  11.193   6.503
  153SBC   C08R 7503   7.663  11.081   6.617
  153SBC   C08Q 7504   7.550  11.132   6.559
  153SBC   H00O 7505   7.565  11.212   6.487
  153SBC   C08P 7506   7.417  11.083   6.574
  153SBC   C08O 7507   7.309  11.126   6.489
  153SBC   H00P 7508   7.315  11.205   6.415
  153SBC   C08N 7509   7.183  11.064   6.513
  153SBC   C08M 7510   7.071  11.109   6.433
  153SBC   O008 7511   7.076  11.194   6.339
  153SBC   O007 7512   6.941  11.060   6.470
  153SBC   C08H 7513   6.926  10.974   6.573
  153SBC   C08G 7514   6.791  10.922   6.608
  153SBC   C03V 7515   6.661  10.966   6.566
  153SBC   H009 7516   6.658  11.041   6.488
  153SBC   C03U 7517   6.538  10.919   6.618
  153SBC   C03W 7518   6.403  10.960   6.577
  153SBC   H00A 7519   6.391  11.039   6.505
  153SBC   C03X 7520   6.293  10.896   6.631
  153SBC   H00B 7521   6.196  10.917   6.588
  153SBC   O005 7522   6.301  10.794   6.721
  153SBC   C03O 7523   6.430  10.757   6.764
  153SBC   C03N 7524   6.437  10.653   6.858
  153SBC   O000 7525   6.319  10.605   6.893
  153SBC   C019 7526   6.318  10.494   6.972
  153SBC   C018 7527   6.436  10.449   7.035
  153SBC   C017 7528   6.559  10.511   7.007
  153SBC   C016 7529   6.676  10.480   7.076
  153SBC   C015 7530   6.661  10.378   7.174
  153SBC   C014 7531   6.770  10.343   7.251
  153SBC   C013 7532   6.898  10.396   7.225
  153SBC   C012 7533   6.988  10.323   7.311
  153SBC   C011 7534   6.901  10.233   7.379
  153SBC   C010 7535   6.939  10.171   7.492
  153SBC   C00Z 7536   6.873  10.071   7.562
  153SBC   C00Y 7537   6.982  10.011   7.628
  153SBC   C01O 7538   7.101  10.073   7.612
  153SBC   C01P 7539   7.224  10.012   7.631
  153SBC   C02L 7540   7.331  10.070   7.572
  153SBC   C02K 7541   7.306  10.179   7.488
  153SBC   C01M 7542   7.178  10.232   7.447
  153SBC   C02J 7543   7.423  10.246   7.459
  153SBC   C02I 7544   7.432  10.374   7.398
  153SBC   C02H 7545   7.337  10.452   7.331
  153SBC   C01Q 7546   7.204  10.427   7.297
  153SBC   C02G 7547   7.157  10.531   7.210
  153SBC   C089 7548   7.262  10.618   7.197
  153SBC   C088 7549   7.258  10.688   7.078
  153SBC   C087 7550   7.117  10.657   7.037
  153SBC   C086 7551   7.051  10.717   6.926
  153SBC   C03S 7552   6.914  10.712   6.893
  153SBC   N006 7553   6.901  10.791   6.778
  153SBC   C08F 7554   7.021  10.840   6.741
  153SBC   C01J 7555   6.803  10.638   6.937
  153SBC   C03R 7556   6.681  10.670   6.867
  153SBC   C03Q 7557   6.667  10.771   6.767
  153SBC   C08E 7558   7.117  10.794   6.825
  153SBC   C08D 7559   7.250  10.844   6.811
  153SBC   C08K 7560   7.274  10.931   6.696
  153SBC   C08C 7561   7.359  10.826   6.895
  153SBC   C091 7562   7.486  10.866   6.851
  153SBC   C092 7563   7.514  10.946   6.738
  153SBC   C08B 7564   7.369  10.760   7.017
  153SBC   C090 7565   7.510  10.762   7.049
  153SBC   C094 7566   7.570  10.689   7.157
  153SBC   C095 7567   7.711  10.668   7.177
  153SBC   C09R 7568   7.726  10.563   7.271
  153SBC   C097 7569   7.603  10.515   7.307
  153SBC   C096 7570   7.506  10.597   7.244
  153SBC   C01I 7571   7.049  10.559   7.124
  153SBC   C08A 7572   7.373  10.567   7.264
  153SBC   C09L 7573   7.566  10.407   7.388
  153SBC   C09K 7574   7.644  10.298   7.445
  153SBC   C09J 7575   7.780  10.282   7.435
  153SBC   C09I 7576   7.853  10.162   7.459
  153SBC   C09O 7577   7.825  10.032   7.508
  153SBC   C09N 7578   7.698   9.986   7.553
  153SBC   C09M 7579   7.577  10.059   7.543
  153SBC   C06O 7580   7.698   9.865   7.624
  153SBC   C05M 7581   7.814   9.784   7.631
  153SBC   C06P 7582   7.932   9.818   7.565
  153SBC   C042 7583   7.809   9.662   7.701
  153SBC   C041 7584   7.690   9.615   7.765
  153SBC   C040 7585   7.689   9.493   7.835
  153SBC   C03Z 7586   7.568   9.442   7.888
  153SBC   C03Y 7587   7.450   9.515   7.856
  153SBC   C027 7588   7.328   9.454   7.895
  153SBC   C026 7589   7.211   9.522   7.873
  153SBC   C028 7590   7.084   9.464   7.902
  153SBC   C029 7591   7.082   9.332   7.949
  153SBC   C02B 7592   6.956   9.271   7.972
  153SBC   C02C 7593   6.951   9.143   8.020
  153SBC   C02X 7594   6.827   9.083   8.021
  153SBC   C03E 7595   6.829   8.946   8.049
  153SBC   C03G 7596   6.939   8.870   8.063
  153SBC   C04Q 7597   7.065   8.933   8.067
  153SBC   C04R 7598   7.177   8.858   8.074
  153SBC   C04S 7599   7.301   8.922   8.047
  153SBC   C04L 7600   7.307   9.060   8.029
  153SBC   C04M 7601   7.190   9.137   8.028
  153SBC   C04K 7602   7.430   9.119   8.005
  153SBC   C04F 7603   7.548   9.046   8.024
  153SBC   C04E 7604   7.543   8.906   8.047
  153SBC   C04D 7605   7.660   8.828   8.056
  153SBC   C050 7606   7.646   8.695   8.066
  153SBC   C051 7607   7.764   8.615   8.055
  153SBC   C05Q 7608   7.757   8.478   8.059
  153SBC   C05V 7609   7.873   8.399   8.058
  153SBC   N005 7610   7.865   8.257   8.061
  153SBC   C07V 7611   7.741   8.198   8.050
  153SBC   C082 7612   7.737   8.060   8.058
  153SBC   C081 7613   7.847   7.977   8.060
  153SBC   C07C 7614   7.974   8.039   8.074
  153SBC   C07B 7615   8.085   7.961   8.110
  153SBC   C080 7616   8.081   7.819   8.104
  153SBC   C07Z 7617   8.202   7.755   8.125
  153SBC   H00L 7618   8.198   7.647   8.125
  153SBC   C079 7619   8.328   7.814   8.146
  153SBC   C078 7620   8.331   7.956   8.138
  153SBC   C077 7621   8.454   8.028   8.143
  153SBC   C07X 7622   8.571   7.960   8.179
  153SBC   H00I 7623   8.664   8.009   8.205
  153SBC   C07Y 7624   8.576   7.817   8.183
  153SBC   H00H 7625   8.661   7.760   8.216
  153SBC   C076 7626   8.459   8.163   8.119
  153SBC   C06C 7627   8.586   8.222   8.107
  153SBC   H00C 7628   8.686   8.182   8.111
  153SBC   C06F 7629   8.342   8.231   8.094
  153SBC   C06E 7630   8.345   8.364   8.056
  153SBC   C06G 7631   8.235   8.437   8.031
  153SBC   C06H 7632   8.113   8.377   8.049
  153SBC   C06I 7633   8.105   8.243   8.078
  153SBC   C06L 7634   8.250   8.572   7.984
  153SBC   C06M 7635   8.379   8.624   7.929
  153SBC   C06K 7636   8.135   8.648   7.991
  153SBC   C05S 7637   8.013   8.596   8.033
  153SBC   C05U 7638   8.136   8.785   7.954
  153SBC   C05X 7639   8.253   8.830   7.875
  153SBC   C05G 7640   8.232   8.961   7.830
  153SBC   C05F 7641   8.124   9.041   7.873
  153SBC   C05E 7642   8.121   9.162   7.811
  153SBC   C048 7643   8.020   9.249   7.827
  153SBC   C056 7644   8.026   9.361   7.751
  153SBC   C045 7645   7.919   9.450   7.760
  153SBC   C047 7646   7.907   9.201   7.887
  153SBC   C049 7647   7.902   9.074   7.937
  153SBC   C04B 7648   7.782   9.025   7.985
  153SBC   C046 7649   7.796   9.279   7.891
  153SBC   C04H 7650   7.678   9.232   7.948
  153SBC   C05D 7651   8.229   9.168   7.721
  153SBC   C04A 7652   8.010   8.992   7.934
  153SBC   C05T 7653   8.018   8.862   7.969
  153SBC   C055 7654   7.897   8.807   8.016
  153SBC   C06D 7655   8.469   8.422   8.029
  153SBC   C07W 7656   8.219   8.163   8.101
  153SBC   C085 7657   8.454   7.748   8.158
  153SBC   H00M 7658   8.457   7.640   8.157
  153SBC   C084 7659   7.952   7.755   8.071
  153SBC   H00J 7660   7.943   7.648   8.067
  153SBC   C07A 7661   8.213   8.024   8.115
  153SBC   C083 7662   7.842   7.836   8.055
  153SBC   H00K 7663   7.746   7.789   8.034
  153SBC   O00K 7664   7.612   7.995   8.060
  153SBC   C0GO 7665   7.503   8.076   8.051
  153SBC   C0GN 7666   7.383   8.012   8.043
  153SBC   H01L 7667   7.372   7.905   8.028
  153SBC   C0GM 7668   7.260   8.087   8.044
  153SBC   C0GL 7669   7.141   8.020   8.029
  153SBC   H01M 7670   7.145   7.912   8.022
  153SBC   O00J 7671   7.018   8.086   8.038
  153SBC   C0GK 7672   7.035   8.224   8.060
  153SBC   H01N 7673   6.938   8.270   8.046
  153SBC   C05K 7674   7.152   8.295   8.081
  153SBC   C05J 7675   7.156   8.434   8.089
  153SBC   C04Y 7676   7.040   8.520   8.103
  153SBC   C04X 7677   7.043   8.660   8.090
  153SBC   O006 7678   6.919   8.462   8.106
  153SBC   C053 7679   6.800   8.523   8.067
  153SBC   C04O 7680   6.804   8.665   8.064
  153SBC   C03C 7681   6.691   8.749   8.048
  153SBC   C03B 7682   6.551   8.732   8.015
  153SBC   C054 7683   6.501   8.606   7.972
  153SBC   C0GR 7684   6.367   8.590   7.924
  153SBC   C03M 7685   6.255   8.683   7.891
  153SBC   C03I 7686   6.255   8.828   7.887
  153SBC   C03J 7687   6.137   8.891   7.841
  153SBC   N002 7688   6.142   9.032   7.820
  153SBC   C02U 7689   6.026   9.102   7.772
  153SBC   C02T 7690   6.028   9.239   7.736
  153SBC   C02Z 7691   5.913   9.303   7.681
  153SBC   N001 7692   5.924   9.433   7.625
  153SBC   C02R 7693   5.806   9.489   7.561
  153SBC   C032 7694   5.683   9.417   7.558
  153SBC   C031 7695   5.685   9.287   7.608
  153SBC   H007 7696   5.599   9.222   7.600
  153SBC   C033 7697   5.579   9.486   7.485
  153SBC   H003 7698   5.484   9.440   7.462
  153SBC   O004 7699   5.591   9.613   7.439
  153SBC   C034 7700   5.716   9.658   7.418
  153SBC   C035 7701   5.729   9.767   7.329
  153SBC   C036 7702   5.860   9.804   7.298
  153SBC   H005 7703   5.881   9.876   7.220
  153SBC   C037 7704   5.965   9.753   7.370
  153SBC   H006 7705   6.060   9.790   7.335
  153SBC   C00D 7706   5.950   9.665   7.478
  153SBC   C00C 7707   6.053   9.624   7.557
  153SBC   C00B 7708   6.182   9.705   7.566
  153SBC   C00A 7709   6.266   9.832   7.520
  153SBC   C009 7710   6.393   9.813   7.587
  153SBC   C008 7711   6.515   9.883   7.574
  153SBC   C007 7712   6.512   9.997   7.493
  153SBC   C006 7713   6.635  10.062   7.475
  153SBC   C005 7714   6.642  10.162   7.373
  153SBC   C004 7715   6.534  10.202   7.295
  153SBC   C003 7716   6.408  10.138   7.315
  153SBC   C002 7717   6.292  10.185   7.251
  153SBC   C01C 7718   6.303  10.287   7.155
  153SBC   C01B 7719   6.187  10.327   7.076
  153SBC   H000 7720   6.090  10.282   7.086
  153SBC   C001 7721   6.172  10.122   7.288
  153SBC   C000 7722   6.164  10.015   7.379
  153SBC   C01U 7723   6.027  10.022   7.420
  153SBC   H002 7724   5.978   9.967   7.499
  153SBC   C01T 7725   5.964  10.103   7.319
  153SBC   O002 7726   5.847  10.107   7.284
  153SBC   O001 7727   6.054  10.164   7.256
  153SBC   C01S 7728   6.399  10.028   7.414
  153SBC   C00N 7729   6.626   9.832   7.641
  153SBC   C00M 7730   6.622   9.709   7.705
  153SBC   C00J 7731   6.509   9.635   7.712
  153SBC   C00I 7732   6.497   9.512   7.773
  153SBC   C00H 7733   6.375   9.449   7.776
  153SBC   C00G 7734   6.261   9.504   7.718
  153SBC   C00F 7735   6.147   9.438   7.703
  153SBC   C01X 7736   6.373   9.322   7.823
  153SBC   C01W 7737   6.479   9.265   7.886
  153SBC   C01V 7738   6.600   9.338   7.888
  153SBC   C020 7739   6.714   9.279   7.941
  153SBC   C01Z 7740   6.476   9.134   7.924
  153SBC   C02Y 7741   6.593   9.092   7.983
  153SBC   C039 7742   6.586   8.956   8.019
  153SBC   C02W 7743   6.364   9.052   7.909
  153SBC   C01Y 7744   6.257   9.247   7.803
  153SBC   C00U 7745   6.605   9.463   7.832
  153SBC   C00S 7746   6.726   9.525   7.826
  153SBC   C00T 7747   6.844   9.464   7.873
  153SBC   C00R 7748   6.733   9.651   7.770
  153SBC   C00Q 7749   6.854   9.712   7.760
  153SBC   C00V 7750   6.973   9.650   7.803
  153SBC   C024 7751   7.099   9.712   7.787
  153SBC   C00X 7752   7.101   9.835   7.731
  153SBC   C00P 7753   6.858   9.835   7.696
  153SBC   C00O 7754   6.745   9.894   7.633
  153SBC   C00K 7755   6.398   9.697   7.654
  153SBC   N000 7756   6.273   9.952   7.436
  153SBC   C00L 7757   6.274   9.631   7.653
  153SBC   H004 7758   5.636   9.807   7.290
  153SBC   C02Q 7759   5.827   9.601   7.484
  153SBC   C00E 7760   6.044   9.503   7.627
  153SBC   C030 7761   5.791   9.227   7.666
  153SBC   O003 7762   5.784   9.096   7.706
  153SBC   C02S 7763   6.144   9.305   7.750
  153SBC   C038 7764   5.904   9.035   7.748
  153SBC   C03L 7765   5.901   8.901   7.779
  153SBC   H008 7766   5.804   8.857   7.763
  153SBC   C02V 7767   6.254   9.112   7.849
  153SBC   C03K 7768   6.017   8.827   7.810
  153SBC   C0BK 7769   6.023   8.687   7.814
  153SBC   H00T 7770   5.944   8.623   7.777
  153SBC   C03H 7771   6.363   8.908   7.929
  153SBC   C0BL 7772   6.134   8.613   7.852
  153SBC   C0GU 7773   6.130   8.472   7.848
  153SBC   H01O 7774   6.042   8.419   7.813
  153SBC   C0GT 7775   6.235   8.392   7.881
  153SBC   H01P 7776   6.214   8.286   7.891
  153SBC   C0GS 7777   6.351   8.451   7.919
  153SBC   C0GV 7778   6.468   8.379   7.953
  153SBC   C0GW 7779   6.500   8.239   7.951
  153SBC   H01Q 7780   6.433   8.168   7.906
  153SBC   C0GX 7781   6.616   8.210   8.003
  153SBC   H01R 7782   6.629   8.103   8.014
  153SBC   O00L 7783   6.708   8.302   8.036
  153SBC   C0GQ 7784   6.564   8.472   7.987
  153SBC   C03A 7785   6.485   8.859   7.986
  153SBC   C05L 7786   6.692   8.435   8.035
  153SBC   C04W 7787   7.278   8.501   8.099
  153SBC   C05I 7788   7.398   8.426   8.094
  153SBC   C05O 7789   7.392   8.293   8.086
  153SBC   C052 7790   7.518   8.492   8.086
  153SBC   C04V 7791   7.285   8.641   8.084
  153SBC   C04U 7792   7.408   8.708   8.083
  153SBC   N009 7793   7.267   8.226   8.067
  153SBC   C0GP 7794   7.507   8.218   8.072
  153SBC   C05W 7795   7.630   8.277   8.066
  153SBC   C07D 7796   7.984   8.176   8.072
  153SBC   C06J 7797   8.002   8.457   8.046
  153SBC   C05P 7798   7.637   8.414   8.073
  153SBC   C05R 7799   7.893   8.673   8.039
  153SBC   C04Z 7800   7.523   8.630   8.082
  153SBC   C04C 7801   7.783   8.891   8.028
  153SBC   C04G 7802   7.671   9.101   7.991
  153SBC   C04J 7803   7.440   9.250   7.965
  153SBC   C04T 7804   7.419   8.848   8.061
  153SBC   N003 7805   7.169   8.718   8.081
  153SBC   C04P 7806   6.925   8.734   8.075
  153SBC   C03D 7807   6.706   8.887   8.050
  153SBC   C021 7808   6.710   9.151   7.991
  153SBC   C03F 7809   7.069   9.073   8.052
  153SBC   C022 7810   6.834   9.340   7.935
  153SBC   C02A 7811   7.197   9.268   7.979
  153SBC   C023 7812   6.966   9.528   7.865
  153SBC   C025 7813   7.215   9.648   7.820
  153SBC   C02D 7814   7.337   9.704   7.778
  153SBC   C02E 7815   7.340   9.826   7.710
  153SBC   C02N 7816   7.459   9.883   7.658
  153SBC   C04N 7817   7.324   9.326   7.954
  153SBC   C02P 7818   7.457   9.640   7.800
  153SBC   C04I 7819   7.561   9.308   7.939
  153SBC   C044 7820   7.803   9.408   7.832
  153SBC   C043 7821   7.575   9.695   7.752
  153SBC   C05N 7822   7.578   9.818   7.681
  153SBC   C09U 7823   7.937   9.944   7.508
  153SBC   C09V 7824   8.056   9.977   7.433
  153SBC   C09X 7825   8.076  10.099   7.375
  153SBC   C09Y 7826   8.176  10.133   7.290
  153SBC   C0A1 7827   8.272  10.042   7.272
  153SBC   C0A2 7828   8.261   9.917   7.336
  153SBC   C0A4 7829   8.359   9.817   7.311
  153SBC   C071 7830   8.353   9.695   7.372
  153SBC   C0A5 7831   8.456   9.605   7.361
  153SBC   C0A9 7832   8.564   9.639   7.280
  153SBC   C0A8 7833   8.568   9.761   7.215
  153SBC   C0AP 7834   8.674   9.790   7.137
  153SBC   C0BY 7835   8.676   9.913   7.077
  153SBC   C0BX 7836   8.584  10.016   7.091
  153SBC   C0C2 7837   8.596  10.140   7.026
  153SBC   C0C3 7838   8.493  10.233   7.038
  153SBC   C0CT 7839   8.382  10.201   7.116
  153SBC   C0C1 7840   8.708  10.172   6.947
  153SBC   C0C0 7841   8.808  10.067   6.925
  153SBC   C0A7 7842   8.474   9.987   7.171
  153SBC   C0BZ 7843   8.784   9.945   6.994
  153SBC   C0BO 7844   8.887   9.856   6.974
  153SBC   C0BN 7845   8.891   9.735   7.044
  153SBC   C0BM 7846   8.995   9.656   7.019
  153SBC   C0B9 7847   8.992   9.531   7.085
  153SBC   C0B8 7848   8.885   9.498   7.165
  153SBC   C0AD 7849   8.779   9.585   7.187
  153SBC   C0AF 7850   8.878   9.371   7.214
  153SBC   C0AG 7851   8.974   9.276   7.181
  153SBC   C0B7 7852   9.077   9.309   7.100
  153SBC   C0AE 7853   8.761   9.343   7.285
  153SBC   C0AB 7854   8.657   9.422   7.308
  153SBC   C0AA 7855   8.548   9.386   7.379
  153SBC   C0AJ 7856   8.749   9.212   7.324
  153SBC   C0AK 7857   8.634   9.171   7.394
  153SBC   C06W 7858   8.653   9.044   7.424
  153SBC   C0AI 7859   8.842   9.108   7.308
  153SBC   C0BP 7860   8.978   9.904   6.880
  153SBC   C0BQ 7861   9.096   9.822   6.856
  153SBC   C0BW 7862   8.777   9.704   7.122
  153SBC   C0AC 7863   8.666   9.549   7.257
  153SBC   C0A6 7864   8.468   9.857   7.233
  153SBC   C0A3 7865   8.376  10.080   7.191
  153SBC   C09Z 7866   8.175  10.254   7.218
  153SBC   C09W 7867   8.160   9.886   7.417
  153SBC   C072 7868   8.150   9.759   7.479
  153SBC   C09H 7869   7.975  10.191   7.399
  153SBC   C09G 7870   7.988  10.318   7.346
  153SBC   C09P 7871   7.866  10.376   7.363
  153SBC   C02O 7872   7.554  10.193   7.484
  153SBC   C02M 7873   7.453  10.003   7.588
  153SBC   C02F 7874   7.224   9.891   7.696
  153SBC   C00W 7875   6.980   9.888   7.687
  153SBC   C01R 7876   6.742  10.014   7.556
  153SBC   C01N 7877   7.075  10.166   7.516
  153SBC   C01L 7878   7.131  10.326   7.352
  153SBC   C01H 7879   6.920  10.501   7.125
  153SBC   C01K 7880   6.763  10.234   7.343
  153SBC   C01E 7881   6.542  10.311   7.208
  153SBC   C01G 7882   6.802  10.541   7.045
  153SBC   C01D 7883   6.426  10.347   7.133
  153SBC   C01A 7884   6.197  10.440   6.990
  153SBC   H001 7885   6.110  10.489   6.949
  153SBC   C01F 7886   6.561  10.612   6.914
  153SBC   C03P 7887   6.548  10.819   6.715
  153SBC   C03T 7888   6.783  10.827   6.716
  153SBC   C08I 7889   7.039  10.928   6.644
  153SBC   C08J 7890   7.169  10.972   6.615
  153SBC   C08L 7891   7.401  10.990   6.669
  153SBC   C093 7892   7.646  10.975   6.711
  153SBC   C08Z 7893   7.587  10.822   6.936
  153SBC   C09T 7894   8.039  10.776   6.835
  153SBC   C09S 7895   7.823  10.716   7.110
  153SBC   C09Q 7896   7.845  10.495   7.297
  153SBC   C09F 7897   8.089  10.353   7.255
  153SBC   C09E 7898   8.126  10.610   6.997
  153SBC   C0A0 7899   8.277  10.288   7.126
  153SBC   C0CU 7900   8.496  10.349   6.961
  153SBC   C0CR 7901   8.610  10.386   6.892
  153SBC   C0CZ 7902   8.610  10.502   6.814
  153SBC   C0DA 7903   8.146  10.669   6.867
  153SBC   C0D9 7904   8.336  10.736   6.562
  153SBC   H00V 7905   8.245  10.729   6.504
  153SBC   C0CY 7906   8.489  10.574   6.805
  153SBC   C0DF 7907   8.470  10.760   6.510
  153SBC   C0DE 7908   8.549  10.769   6.386
  153SBC   C0GI 7909   8.528  10.821   6.256
  153SBC   H01K 7910   8.430  10.861   6.231
  153SBC   C0GJ 7911   8.634  10.816   6.174
  153SBC   H01J 7912   8.613  10.864   6.080
  153SBC   O00I 7913   8.764  10.764   6.196
  153SBC   C0GH 7914   8.793  10.719   6.326
  153SBC   C0GG 7915   8.914  10.648   6.347
  153SBC   O00G 7916   8.991  10.643   6.233
  153SBC   C0G8 7917   9.122  10.599   6.239
  153SBC   C0G9 7918   9.204  10.641   6.135
  153SBC   H01G 7919   9.177  10.720   6.067
  153SBC   C0GA 7920   9.335  10.589   6.128
  153SBC   H01H 7921   9.403  10.620   6.050
  153SBC   C0GB 7922   9.386  10.492   6.216
  153SBC   C0EP 7923   9.294  10.454   6.320
  153SBC   C0E8 7924   9.331  10.333   6.403
  153SBC   C0CK 7925   9.270  10.253   6.500
  153SBC   C0CL 7926   9.202  10.317   6.604
  153SBC   C0E9 7927   9.120  10.429   6.572
  153SBC   C0GE 7928   9.086  10.511   6.455
  153SBC   C0E7 7929   9.456  10.276   6.386
  153SBC   C0CJ 7930   9.481  10.169   6.471
  153SBC   C0E6 7931   9.610  10.117   6.479
  153SBC   H00Y 7932   9.634  10.042   6.553
  153SBC   C0EO 7933   9.701  10.165   6.380
  153SBC   H011 7934   9.803  10.130   6.390
  153SBC   C0G6 7935   9.671  10.259   6.281
  153SBC   C0G5 7936   9.757  10.310   6.173
  153SBC   H01F 7937   9.849  10.252   6.168
  153SBC   C0GD 7938   9.718  10.410   6.093
  153SBC   H01I 7939   9.793  10.442   6.022
  153SBC   O00H 7940   9.598  10.480   6.106
  153SBC   C0EQ 7941   9.545  10.328   6.291
  153SBC   C0GC 7942   9.517  10.437   6.207
  153SBC   C0G7 7943   9.170  10.520   6.344
  153SBC   C0DD 7944   8.683  10.722   6.421
  153SBC   C0GF 7945   8.964  10.586   6.463
  153SBC   C0CO 7946   9.059  10.445   6.697
  153SBC   C0D0 7947   8.730  10.534   6.744
  153SBC   C0C4 7948   8.726  10.304   6.903
  153SBC   C0CN 7949   9.092  10.345   6.793
  153SBC   C0CP 7950   8.932  10.038   6.854
  153SBC   C0CM 7951   9.193  10.266   6.736
  153SBC   C0CI 7952   9.351  10.132   6.531
  153SBC   C0CD 7953   9.456   9.670   6.575
  153SBC   C0BR 7954   9.191   9.857   6.758
  153SBC   C0CS 7955   9.090   9.696   6.923
  153SBC   C0B6 7956   9.083   9.440   7.053
  153SBC   C0CG 7957   9.367   9.532   6.754
  153SBC   C0CF 7958   9.464   9.553   6.652
  153SBC   C0E5 7959   9.653   9.605   6.447
  153SBC   C0DT 7960   9.864   9.437   6.422
  153SBC   C0DL 7961   9.660   9.239   6.659
  153SBC   C0DM 7962   9.660   9.117   6.720
  153SBC   C0DY 7963   9.879   9.064   6.627
  153SBC   C0DU 7964   9.972   9.350   6.424
  153SBC   C0F0 7965  10.181   9.296   6.312
  153SBC   C0F4 7966  10.359   9.112   6.223
  153SBC   C0FG 7967  10.200   8.953   6.506
  153SBC   O00B 7968  10.413   8.873   6.226
  153SBC   C0FN 7969  10.205   8.822   6.529
  153SBC   C0DZ 7970   9.989   8.974   6.609
  153SBC   O00C 7971   9.858   8.685   6.801
  153SBC   C0FR 7972   9.792   8.673   6.925
  153SBC   O00D 7973   9.844   8.584   6.992
  153SBC   C0E0 7974   9.768   9.028   6.699
  153SBC   C0E3 7975   9.679   8.759   6.938
  153SBC   C0AW 7976   9.590   8.739   7.043
  153SBC   C0AV 7977   9.591   8.632   7.144
  153SBC   H00Q 7978   9.659   8.547   7.140
  153SBC   C0AU 7979   9.505   8.622   7.259
  153SBC   H00R 7980   9.527   8.548   7.334
  153SBC   C0AT 7981   9.400   8.722   7.270
  153SBC   C0AS 7982   9.295   8.762   7.364
  153SBC   C0AR 7983   9.283   8.747   7.509
  153SBC   C0BE 7984   9.391   8.809   7.161
  153SBC   C0DN 7985   9.559   9.089   6.808
  153SBC   C0AX 7986   9.482   8.826   7.050
  153SBC   C0BB 7987   9.362   9.154   6.933
  153SBC   C0BD 7988   9.289   8.899   7.184
  153SBC   C0B2 7989   9.168   9.210   7.067
  153SBC   C0AH 7990   8.961   9.144   7.237
  153SBC   C0BF 7991   9.211   8.865   7.294
  153SBC   C0AL 7992   8.779   8.999   7.371
  153SBC   C07U 7993   9.028   8.795   7.530
  153SBC   C0AQ 7994   9.154   8.762   7.580
  153SBC   C0BG 7995   9.388   8.723   7.615
  153SBC   C0FY 7996   9.315   8.477   7.848
  153SBC   C0BJ 7997   9.492   8.622   7.607
  153SBC   H00S 7998   9.553   8.593   7.523
  153SBC   C0FZ 7999   9.406   8.371   7.832
  153SBC   C07S 8000   9.175   8.447   7.865
  153SBC   C0G1 8001   9.207   8.076   7.892
  153SBC   C07K 8002   8.840   8.087   7.868
  153SBC   C07H 8003   8.900   8.368   7.879
  153SBC   C06B 8004   8.582   8.345   8.044
  153SBC   C06N 8005   8.488   8.534   7.945
  153SBC   C066 8006   8.845   8.611   7.805
  153SBC   C062 8007   8.665   8.799   7.612
  153SBC   C05Y 8008   8.376   8.746   7.861
  153SBC   C061 8009   8.553   8.856   7.548
  153SBC   C05H 8010   8.301   9.044   7.738
  153SBC   C06V 8011   8.560   8.990   7.503
  153SBC   C06Y 8012   8.536   9.259   7.428
  153SBC   C05C 8013   8.234   9.291   7.643
  153SBC   C06Z 8014   8.451   9.475   7.411
  153SBC   C070 8015   8.245   9.664   7.455
  153SBC   C05B 8016   8.135   9.390   7.666
  153SBC   C057 8017   7.924   9.577   7.698
  153SBC   C059 8018   8.038   9.731   7.562
  154SBC   C058 8019   9.985   3.547   5.681
  154SBC   C05A 8020  10.098   3.601   5.742
  154SBC   C06Q 8021  10.224   3.538   5.735
  154SBC   C06R 8022  10.344   3.596   5.787
  154SBC   C06S 8023  10.338   3.725   5.852
  154SBC   C06T 8024  10.461   3.779   5.900
  154SBC   C06U 8025  10.496   3.912   5.957
  154SBC   C06X 8026  10.418   4.025   5.982
  154SBC   C060 8027  10.492   4.126   6.048
  154SBC   C05Z 8028  10.493   4.271   6.042
  154SBC   C068 8029  10.638   4.304   6.059
  154SBC   C067 8030  10.707   4.436   6.082
  154SBC   C069 8031  10.633   4.560   6.061
  154SBC   C06A 8032  10.679   4.697   6.078
  154SBC   C073 8033  10.737   4.753   6.199
  154SBC   C07P 8034  10.688   4.871   6.260
  154SBC   C07O 8035  10.551   4.895   6.288
  154SBC   H00D 8036  10.483   4.811   6.280
  154SBC   C07N 8037  10.500   5.019   6.318
  154SBC   H00E 8038  10.396   5.034   6.343
  154SBC   C07M 8039  10.595   5.127   6.334
  154SBC   H00F 8040  10.552   5.223   6.355
  154SBC   C07L 8041  10.730   5.105   6.305
  154SBC   C07Q 8042  10.828   5.209   6.288
  154SBC   H00G 8043  10.783   5.308   6.287
  154SBC   O00F 8044  10.963   5.193   6.262
  154SBC   C07J 8045  10.999   5.069   6.227
  154SBC   C07I 8046  10.912   4.955   6.243
  154SBC   N004 8047  10.956   4.824   6.210
  154SBC   C07R 8048  11.093   4.805   6.175
  154SBC   C07T 8049  11.167   4.923   6.140
  154SBC   C0FX 8050  11.281   4.920   6.059
  154SBC   C0FW 8051  11.346   5.024   5.990
  154SBC   C0G0 8052  11.290   5.153   6.020
  154SBC   C0G2 8053  11.348   5.265   5.968
  154SBC   H01E 8054  11.315   5.364   5.996
  154SBC   C0G3 8055  11.458   5.249   5.875
  154SBC   H01C 8056  11.492   5.334   5.818
  154SBC   C0G4 8057  11.508   5.120   5.852
  154SBC   H01D 8058  11.595   5.112   5.789
  154SBC   O00E 8059  11.188   5.163   6.114
  154SBC   C0FV 8060  11.451   4.999   5.901
  154SBC   C0FU 8061  11.497   4.862   5.878
  154SBC   H01B 8062  11.577   4.834   5.811
  154SBC   C0FT 8063  11.433   4.764   5.950
  154SBC   C0FS 8064  11.437   4.616   5.955
  154SBC   C0BI 8065  11.360   4.574   6.068
  154SBC   C0BH 8066  11.340   4.439   6.072
  154SBC   C07F 8067  11.206   4.384   6.076
  154SBC   C07E 8068  11.088   4.435   6.122
  154SBC   C07G 8069  11.063   4.564   6.168
  154SBC   C074 8070  10.925   4.578   6.166
  154SBC   C065 8071  10.969   4.372   6.095
  154SBC   C064 8072  10.972   4.239   6.046
  154SBC   C063 8073  10.864   4.154   6.024
  154SBC   C075 8074  10.938   4.032   5.985
  154SBC   C0AM 8075  11.082   4.048   5.965
  154SBC   C0AN 8076  11.188   3.954   5.922
  154SBC   C0AO 8077  11.179   3.807   5.881
  154SBC   C0B1 8078  11.300   3.729   5.853
  154SBC   C0B0 8079  11.424   3.776   5.880
  154SBC   C0AZ 8080  11.545   3.707   5.870
  154SBC   C0AY 8081  11.668   3.768   5.896
  154SBC   N007 8082  11.787   3.696   5.900
  154SBC   C0E2 8083  11.907   3.765   5.922
  154SBC   C0E1 8084  12.023   3.690   5.916
  154SBC   C0E4 8085  12.148   3.755   5.933
  154SBC   C0FF 8086  12.269   3.690   5.930
  154SBC   C0FJ 8087  12.411   3.735   5.930
  154SBC   C0FK 8088  12.453   3.850   5.860
  154SBC   H016 8089  12.382   3.922   5.823
  154SBC   C0FL 8090  12.595   3.830   5.822
  154SBC   H017 8091  12.654   3.889   5.754
  154SBC   C0FM 8092  12.629   3.696   5.871
  154SBC   C0FH 8093  12.699   3.577   5.821
  154SBC   C0FI 8094  12.628   3.467   5.869
  154SBC   C0F3 8095  12.614   3.353   5.786
  154SBC   C0F2 8096  12.496   3.294   5.796
  154SBC   C0DW 8097  12.378   3.344   5.841
  154SBC   C0FE 8098  12.378   3.463   5.903
  154SBC   C0DV 8099  12.255   3.284   5.820
  154SBC   C0DX 8100  12.140   3.352   5.826
  154SBC   C0DK 8101  12.019   3.290   5.789
  154SBC   C0DJ 8102  12.020   3.165   5.724
  154SBC   C0DI 8103  11.904   3.111   5.679
  154SBC   C0DH 8104  11.779   3.181   5.700
  154SBC   C0DG 8105  11.780   3.311   5.749
  154SBC   C0BV 8106  11.661   3.377   5.766
  154SBC   C0BC 8107  11.663   3.502   5.821
  154SBC   C0BA 8108  11.539   3.317   5.728
  154SBC   C0B4 8109  11.421   3.385   5.745
  154SBC   C0B3 8110  11.420   3.515   5.798
  154SBC   C0B5 8111  11.302   3.325   5.705
  154SBC   C0BU 8112  11.307   3.204   5.633
  154SBC   C0BT 8113  11.424   3.133   5.621
  154SBC   C0BS 8114  11.426   3.007   5.551
  154SBC   C0CC 8115  11.550   2.942   5.540
  154SBC   C0CB 8116  11.554   2.817   5.485
  154SBC   C0CH 8117  11.667   2.743   5.506
  154SBC   C0DO 8118  11.793   2.803   5.534
  154SBC   C0DP 8119  11.912   2.743   5.501
  154SBC   C0EA 8120  11.907   2.618   5.429
  154SBC   H012 8121  11.817   2.579   5.385
  154SBC   O009 8122  12.019   2.554   5.387
  154SBC   C0EH 8123  12.136   2.619   5.405
  154SBC   C0EG 8124  12.241   2.577   5.330
  154SBC   C0EJ 8125  12.264   2.472   5.228
  154SBC   H010 8126  12.202   2.387   5.206
  154SBC   C0EK 8127  12.405   2.490   5.173
  154SBC   H00Z 8128  12.449   2.432   5.094
  154SBC   C0EL 8129  12.452   2.614   5.232
  154SBC   C0EM 8130  12.571   2.692   5.212
  154SBC   C0EW 8131  12.664   2.677   5.108
  154SBC   H013 8132  12.651   2.593   5.041
  154SBC   C0EX 8133  12.778   2.770   5.088
  154SBC   H014 8134  12.850   2.760   5.009
  154SBC   C0F1 8135  12.787   2.876   5.187
  154SBC   C0EU 8136  12.694   2.888   5.288
  154SBC   C0ET 8137  12.693   2.987   5.392
  154SBC   C0ES 8138  12.576   2.950   5.469
  154SBC   C0EE 8139  12.510   2.835   5.411
  154SBC   C0ED 8140  12.387   2.763   5.414
  154SBC   C0EC 8141  12.275   2.812   5.488
  154SBC   C0EB 8142  12.270   2.928   5.572
  154SBC   C0EN 8143  12.386   3.005   5.611
  154SBC   C0ER 8144  12.372   3.110   5.703
  154SBC   C0DS 8145  12.146   2.986   5.621
  154SBC   C0DR 8146  12.028   2.923   5.587
  154SBC   C0EY 8147  12.520   3.025   5.565
  154SBC   C0EZ 8148  12.584   3.137   5.626
  154SBC   C0F5 8149  12.708   3.213   5.605
  154SBC   C0F6 8150  12.793   3.189   5.496
  154SBC   N008 8151  12.902   3.286   5.488
  154SBC   C0F7 8152  12.911   3.400   5.576
  154SBC   C0FQ 8153  13.021   3.492   5.554
  154SBC   H018 8154  13.023   3.586   5.606
  154SBC   C0FP 8155  13.115   3.463   5.462
  154SBC   H019 8156  13.198   3.531   5.450
  154SBC   C0FO 8157  13.110   3.346   5.400
  154SBC   H01A 8158  13.195   3.328   5.335
  154SBC   C0F8 8159  12.806   3.425   5.669
  154SBC   C0F9 8160  13.001   3.263   5.396
  154SBC   C0FA 8161  13.000   3.160   5.301
  154SBC   H015 8162  13.085   3.142   5.236
  154SBC   C0FB 8163  12.887   3.073   5.292
  154SBC   C0FD 8164  12.791   3.088   5.393
  154SBC   C0FC 8165  12.890   2.978   5.185
  154SBC   O00A 8166  12.972   2.976   5.092
  154SBC   C0EV 8167  12.587   2.796   5.302
  154SBC   C0EF 8168  12.363   2.657   5.333
  154SBC   C0EI 8169  12.150   2.748   5.476
  154SBC   C0DQ 8170  12.031   2.799   5.529
  154SBC   C0CE 8171  11.788   2.932   5.574
  154SBC   H00U 8172  11.650   2.643   5.470
  154SBC   C0CA 8173  11.445   2.772   5.408
  154SBC   C0C9 8174  11.316   2.820   5.433
  154SBC   C0C8 8175  11.205   2.734   5.407
  154SBC   C0C7 8176  11.066   2.751   5.400
  154SBC   C0C6 8177  10.990   2.624   5.390
  154SBC   C0C5 8178  10.869   2.589   5.319
  154SBC   C0CQ 8179  10.864   2.466   5.254
  154SBC   C0D1 8180  10.982   2.398   5.228
  154SBC   C0D8 8181  10.973   2.338   5.110
  154SBC   C0D7 8182  10.835   2.339   5.072
  154SBC   C0D6 8183  10.785   2.303   4.946
  154SBC   C0D5 8184  10.644   2.314   4.909
  154SBC   C0D4 8185  10.528   2.373   4.973
  154SBC   C0D3 8186  10.439   2.408   4.865
  154SBC   C0CX 8187  10.362   2.530   4.908
  154SBC   C0CW 8188  10.437   2.579   5.030
  154SBC   C0CV 8189  10.411   2.673   5.141
  154SBC   C0D2 8190  10.281   2.733   5.169
  154SBC   C09D 8191  10.160   2.687   5.108
  154SBC   C09C 8192  10.037   2.746   5.154
  154SBC   C09B 8193   9.910   2.716   5.104
  154SBC   C09A 8194   9.909   2.619   5.003
  154SBC   C099 8195  10.016   2.550   4.963
  154SBC   C098 8196   9.993   2.489   4.842
  154SBC   C08Y 8197   9.857   2.527   4.801
  154SBC   C08X 8198   9.788   2.510   4.675
  154SBC   C08W 8199   9.866   2.460   4.562
  154SBC   C08U 8200  10.006   2.435   4.553
  154SBC   C08V 8201  10.124   2.452   4.639
  154SBC   C0DC 8202  10.223   2.374   4.570
  154SBC   H00W 8203  10.314   2.354   4.624
  154SBC   C0DB 8204  10.182   2.322   4.443
  154SBC   H00X 8205  10.239   2.268   4.368
  154SBC   C08T 8206  10.051   2.362   4.438
  154SBC   C08S 8207   9.971   2.333   4.330
  154SBC   H00N 8208  10.002   2.268   4.249
  154SBC   C08R 8209   9.841   2.378   4.324
  154SBC   C08Q 8210   9.762   2.364   4.205
  154SBC   H00O 8211   9.805   2.306   4.125
  154SBC   C08P 8212   9.632   2.419   4.187
  154SBC   C08O 8213   9.555   2.411   4.066
  154SBC   H00P 8214   9.598   2.363   3.979
  154SBC   C08N 8215   9.425   2.469   4.064
  154SBC   C08M 8216   9.343   2.450   3.940
  154SBC   O008 8217   9.367   2.374   3.842
  154SBC   O007 8218   9.225   2.516   3.940
  154SBC   C08H 8219   9.166   2.579   4.045
  154SBC   C08G 8220   9.039   2.649   4.038
  154SBC   C03V 8221   8.941   2.649   3.935
  154SBC   H009 8222   8.963   2.590   3.847
  154SBC   C03U 8223   8.819   2.726   3.939
  154SBC   C03W 8224   8.727   2.736   3.828
  154SBC   H00A 8225   8.749   2.681   3.737
  154SBC   C03X 8226   8.618   2.805   3.848
  154SBC   H00B 8227   8.550   2.814   3.765
  154SBC   O005 8228   8.582   2.874   3.962
  154SBC   C03O 8229   8.666   2.870   4.067
  154SBC   C03N 8230   8.648   2.950   4.180
  154SBC   O000 8231   8.536   3.023   4.177
  154SBC   C019 8232   8.524   3.120   4.270
  154SBC   C018 8233   8.626   3.140   4.373
  154SBC   C017 8234   8.727   3.041   4.390
  154SBC   C016 8235   8.817   3.049   4.498
  154SBC   C015 8236   8.796   3.157   4.577
  154SBC   C014 8237   8.880   3.167   4.695
  154SBC   C013 8238   8.991   3.081   4.719
  154SBC   C012 8239   9.049   3.130   4.840
  154SBC   C011 8240   8.962   3.235   4.878
  154SBC   C010 8241   8.965   3.283   5.005
  154SBC   C00Z 8242   8.899   3.393   5.052
  154SBC   C00Y 8243   8.973   3.424   5.170
  154SBC   C01O 8244   9.067   3.330   5.206
  154SBC   C01P 8245   9.186   3.373   5.264
  154SBC   C02L 8246   9.293   3.289   5.247
  154SBC   C02K 8247   9.285   3.191   5.150
  154SBC   C01M 8248   9.176   3.175   5.057
  154SBC   C02J 8249   9.387   3.101   5.164
  154SBC   C02I 8250   9.394   2.978   5.093
  154SBC   C02H 8251   9.327   2.927   4.982
  154SBC   C01Q 8252   9.218   2.978   4.910
  154SBC   C02G 8253   9.191   2.892   4.796
  154SBC   C089 8254   9.279   2.782   4.804
  154SBC   C088 8255   9.312   2.740   4.678
  154SBC   C087 8256   9.204   2.793   4.594
  154SBC   C086 8257   9.184   2.767   4.452
  154SBC   C03S 8258   9.068   2.797   4.374
  154SBC   N006 8259   9.085   2.733   4.254
  154SBC   C08F 8260   9.203   2.669   4.257
  154SBC   C01J 8261   8.947   2.870   4.394
  154SBC   C03R 8262   8.849   2.863   4.290
  154SBC   C03Q 8263   8.876   2.792   4.168
  154SBC   C08E 8264   9.276   2.696   4.371
  154SBC   C08D 8265   9.402   2.631   4.398
  154SBC   C08K 8266   9.455   2.556   4.288
  154SBC   C08C 8267   9.470   2.616   4.523
  154SBC   C091 8268   9.595   2.554   4.526
  154SBC   C092 8269   9.658   2.497   4.414
  154SBC   C08B 8270   9.436   2.662   4.649
  154SBC   C090 8271   9.553   2.623   4.734
  154SBC   C094 8272   9.571   2.667   4.869
  154SBC   C095 8273   9.691   2.672   4.931
  154SBC   C09R 8274   9.693   2.765   5.035
  154SBC   C097 8275   9.568   2.826   5.043
  154SBC   C096 8276   9.497   2.772   4.938
  154SBC   C01I 8277   9.122   2.892   4.671
  154SBC   C08A 8278   9.373   2.821   4.908
  154SBC   C09L 8279   9.518   2.930   5.122
  154SBC   C09K 8280   9.582   3.013   5.221
  154SBC   C09J 8281   9.712   2.986   5.272
  154SBC   C09I 8282   9.780   3.078   5.353
  154SBC   C09O 8283   9.762   3.206   5.413
  154SBC   C09N 8284   9.638   3.279   5.406
  154SBC   C09M 8285   9.521   3.246   5.328
  154SBC   C06O 8286   9.636   3.402   5.479
  154SBC   C05M 8287   9.758   3.449   5.548
  154SBC   C06P 8288   9.879   3.382   5.545
  154SBC   C042 8289   9.752   3.572   5.621
  154SBC   C041 8290   9.633   3.647   5.618
  154SBC   C040 8291   9.627   3.769   5.684
  154SBC   C03Z 8292   9.514   3.851   5.674
  154SBC   C03Y 8293   9.402   3.802   5.608
  154SBC   C027 8294   9.289   3.886   5.601
  154SBC   C026 8295   9.182   3.849   5.521
  154SBC   C028 8296   9.080   3.938   5.496
  154SBC   C029 8297   9.078   4.055   5.561
  154SBC   C02B 8298   8.975   4.145   5.539
  154SBC   C02C 8299   8.969   4.272   5.596
  154SBC   C02X 8300   8.860   4.357   5.569
  154SBC   C03E 8301   8.862   4.480   5.624
  154SBC   C03G 8302   8.969   4.538   5.690
  154SBC   C04Q 8303   9.075   4.448   5.721
  154SBC   C04R 8304   9.183   4.491   5.786
  154SBC   C04S 8305   9.292   4.409   5.810
  154SBC   C04L 8306   9.288   4.272   5.765
  154SBC   C04M 8307   9.176   4.227   5.701
  154SBC   C04K 8308   9.400   4.194   5.771
  154SBC   C04F 8309   9.519   4.244   5.822
  154SBC   C04E 8310   9.525   4.373   5.879
  154SBC   C04D 8311   9.647   4.430   5.913
  154SBC   C050 8312   9.652   4.561   5.957
  154SBC   C051 8313   9.775   4.616   5.991
  154SBC   C05Q 8314   9.789   4.747   6.016
  154SBC   C05V 8315   9.911   4.811   6.029
  154SBC   N005 8316   9.920   4.948   6.069
  154SBC   C07V 8317   9.804   5.016   6.087
  154SBC   C082 8318   9.806   5.152   6.122
  154SBC   C081 8319   9.930   5.220   6.135
  154SBC   C07C 8320  10.046   5.146   6.105
  154SBC   C07B 8321  10.172   5.211   6.103
  154SBC   C080 8322  10.181   5.350   6.133
  154SBC   C07Z 8323  10.305   5.408   6.122
  154SBC   H00L 8324  10.299   5.514   6.142
  154SBC   C079 8325  10.418   5.341   6.091
  154SBC   C078 8326  10.407   5.208   6.058
  154SBC   C077 8327  10.518   5.137   6.013
  154SBC   C07X 8328  10.644   5.214   5.993
  154SBC   H00I 8329  10.733   5.165   5.956
  154SBC   C07Y 8330  10.650   5.348   6.034
  154SBC   H00H 8331  10.741   5.405   6.017
  154SBC   C076 8332  10.507   4.999   5.990
  154SBC   C06C 8333  10.624   4.924   5.986
  154SBC   H00C 8334  10.722   4.968   5.989
  154SBC   C06F 8335  10.386   4.937   6.007
  154SBC   C06E 8336  10.375   4.796   5.996
  154SBC   C06G 8337  10.261   4.723   6.008
  154SBC   C06H 8338  10.146   4.799   6.024
  154SBC   C06I 8339  10.156   4.940   6.051
  154SBC   C06L 8340  10.263   4.576   5.999
  154SBC   C06M 8341  10.385   4.495   6.000
  154SBC   C06K 8342  10.137   4.518   5.997
  154SBC   C05S 8343  10.018   4.598   5.996
  154SBC   C05U 8344  10.127   4.378   5.985
  154SBC   C05X 8345  10.247   4.296   5.987
  154SBC   C05G 8346  10.220   4.160   5.953
  154SBC   C05F 8347  10.091   4.120   5.923
  154SBC   C05E 8348  10.080   3.982   5.898
  154SBC   C048 8349   9.965   3.927   5.844
  154SBC   C056 8350   9.972   3.798   5.801
  154SBC   C045 8351   9.856   3.742   5.750
  154SBC   C047 8352   9.856   4.012   5.830
  154SBC   C049 8353   9.862   4.146   5.864
  154SBC   C04B 8354   9.753   4.225   5.859
  154SBC   C046 8355   9.736   3.949   5.784
  154SBC   C04H 8356   9.627   4.036   5.778
  154SBC   C05D 8357  10.204   3.929   5.896
  154SBC   C04A 8358   9.980   4.204   5.912
  154SBC   C05T 8359  10.001   4.336   5.949
  154SBC   C055 8360   9.885   4.410   5.949
  154SBC   C06D 8361  10.489   4.724   5.989
  154SBC   C07W 8362  10.276   5.004   6.042
  154SBC   C085 8363  10.541   5.407   6.081
  154SBC   H00M 8364  10.551   5.512   6.105
  154SBC   C084 8365  10.063   5.421   6.159
  154SBC   H00J 8366  10.059   5.527   6.176
  154SBC   C07A 8367  10.286   5.138   6.069
  154SBC   C083 8368   9.944   5.356   6.174
  154SBC   H00K 8369   9.859   5.414   6.206
  154SBC   O00K 8370   9.695   5.227   6.124
  154SBC   C0GO 8371   9.582   5.179   6.072
  154SBC   C0GN 8372   9.476   5.267   6.050
  154SBC   H01L 8373   9.491   5.372   6.070
  154SBC   C0GM 8374   9.359   5.216   5.998
  154SBC   C0GL 8375   9.263   5.308   5.968
  154SBC   H01M 8376   9.287   5.413   5.980
  154SBC   O00J 8377   9.144   5.269   5.910
  154SBC   C0GK 8378   9.126   5.135   5.887
  154SBC   H01N 8379   9.025   5.116   5.854
  154SBC   C05K 8380   9.225   5.045   5.913
  154SBC   C05J 8381   9.210   4.904   5.883
  154SBC   C04Y 8382   9.110   4.856   5.796
  154SBC   C04X 8383   9.091   4.718   5.770
  154SBC   O006 8384   9.021   4.939   5.740
  154SBC   C053 8385   8.913   4.900   5.664
  154SBC   C04O 8386   8.881   4.765   5.658
  154SBC   C03C 8387   8.768   4.709   5.587
  154SBC   C03B 8388   8.656   4.758   5.506
  154SBC   C054 8389   8.643   4.888   5.457
  154SBC   C0GR 8390   8.544   4.935   5.369
  154SBC   C03M 8391   8.436   4.881   5.292
  154SBC   C03I 8392   8.418   4.735   5.266
  154SBC   C03J 8393   8.322   4.697   5.172
  154SBC   N002 8394   8.320   4.559   5.126
  154SBC   C02U 8395   8.225   4.514   5.028
  154SBC   C02T 8396   8.233   4.386   4.968
  154SBC   C02Z 8397   8.150   4.350   4.859
  154SBC   N001 8398   8.154   4.224   4.803
  154SBC   C02R 8399   8.056   4.187   4.707
  154SBC   C032 8400   7.966   4.282   4.664
  154SBC   C031 8401   7.965   4.414   4.717
  154SBC   H007 8402   7.893   4.487   4.684
  154SBC   C033 8403   7.864   4.229   4.582
  154SBC   H003 8404   7.779   4.291   4.558
  154SBC   O004 8405   7.869   4.108   4.526
  154SBC   C034 8406   7.942   4.015   4.594
  154SBC   C035 8407   7.928   3.873   4.575
  154SBC   C036 8408   8.013   3.772   4.624
  154SBC   H005 8409   7.991   3.668   4.605
  154SBC   C037 8410   8.122   3.814   4.692
  154SBC   H006 8411   8.188   3.736   4.727
  154SBC   C00D 8412   8.143   3.955   4.720
  154SBC   C00C 8413   8.251   3.998   4.794
  154SBC   C00B 8414   8.366   3.912   4.827
  154SBC   C00A 8415   8.425   3.770   4.809
  154SBC   C009 8416   8.519   3.763   4.911
  154SBC   C008 8417   8.632   3.679   4.929
  154SBC   C007 8418   8.641   3.572   4.845
  154SBC   C006 8419   8.743   3.481   4.870
  154SBC   C005 8420   8.758   3.374   4.779
  154SBC   C004 8421   8.676   3.358   4.665
  154SBC   C003 8422   8.572   3.457   4.646
  154SBC   C002 8423   8.485   3.443   4.538
  154SBC   C01C 8424   8.497   3.330   4.456
  154SBC   C01B 8425   8.391   3.304   4.365
  154SBC   H000 8426   8.302   3.365   4.363
  154SBC   C001 8427   8.400   3.550   4.506
  154SBC   C000 8428   8.393   3.658   4.593
  154SBC   C01U 8429   8.343   3.764   4.513
  154SBC   H002 8430   8.337   3.868   4.543
  154SBC   C01T 8431   8.319   3.716   4.377
  154SBC   O002 8432   8.292   3.776   4.269
  154SBC   O001 8433   8.344   3.581   4.384
  154SBC   C01S 8434   8.557   3.560   4.735
  154SBC   C00N 8435   8.720   3.710   5.032
  154SBC   C00M 8436   8.711   3.821   5.113
  154SBC   C00J 8437   8.621   3.914   5.083
  154SBC   C00I 8438   8.604   4.031   5.145
  154SBC   C00H 8439   8.505   4.122   5.107
  154SBC   C00G 8440   8.419   4.091   5.003
  154SBC   C00F 8441   8.329   4.173   4.952
  154SBC   C01X 8442   8.501   4.245   5.164
  154SBC   C01W 8443   8.592   4.272   5.265
  154SBC   C01V 8444   8.681   4.178   5.312
  154SBC   C020 8445   8.774   4.202   5.415
  154SBC   C01Z 8446   8.585   4.395   5.329
  154SBC   C02Y 8447   8.663   4.408   5.435
  154SBC   C039 8448   8.660   4.533   5.495
  154SBC   C02W 8449   8.498   4.496   5.277
  154SBC   C01Y 8450   8.410   4.338   5.113
  154SBC   C00U 8451   8.694   4.056   5.246
  154SBC   C00S 8452   8.789   3.968   5.284
  154SBC   C00T 8453   8.879   3.999   5.379
  154SBC   C00R 8454   8.796   3.849   5.220
  154SBC   C00Q 8455   8.884   3.753   5.252
  154SBC   C00V 8456   8.976   3.783   5.352
  154SBC   C024 8457   9.074   3.689   5.389
  154SBC   C00X 8458   9.075   3.572   5.327
  154SBC   C00P 8459   8.887   3.634   5.188
  154SBC   C00O 8460   8.810   3.613   5.069
  154SBC   C00K 8461   8.528   3.881   4.985
  154SBC   N000 8462   8.462   3.671   4.716
  154SBC   C00L 8463   8.439   3.970   4.936
  154SBC   H004 8464   7.848   3.843   4.508
  154SBC   C02Q 8465   8.050   4.049   4.676
  154SBC   C00E 8466   8.244   4.131   4.850
  154SBC   C030 8467   8.053   4.440   4.823
  154SBC   O003 8468   8.037   4.560   4.883
  154SBC   C02S 8469   8.328   4.297   5.009
  154SBC   C038 8470   8.131   4.605   4.977
  154SBC   C03L 8471   8.134   4.731   5.027
  154SBC   H008 8472   8.054   4.791   4.988
  154SBC   C02V 8473   8.409   4.461   5.173
  154SBC   C03K 8474   8.231   4.784   5.118
  154SBC   C0BK 8475   8.248   4.922   5.143
  154SBC   H00T 8476   8.186   4.995   5.093
  154SBC   C03H 8477   8.494   4.628   5.326
  154SBC   C0BL 8478   8.353   4.974   5.222
  154SBC   C0GU 8479   8.388   5.111   5.212
  154SBC   H01O 8480   8.338   5.180   5.145
  154SBC   C0GT 8481   8.484   5.166   5.289
  154SBC   H01P 8482   8.518   5.269   5.279
  154SBC   C0GS 8483   8.557   5.080   5.372
  154SBC   C0GV 8484   8.670   5.110   5.452
  154SBC   C0GW 8485   8.727   5.235   5.473
  154SBC   H01Q 8486   8.682   5.326   5.436
  154SBC   C0GX 8487   8.841   5.237   5.540
  154SBC   H01R 8488   8.900   5.326   5.556
  154SBC   O00L 8489   8.899   5.128   5.607
  154SBC   C0GQ 8490   8.732   4.992   5.505
  154SBC   C03A 8491   8.591   4.643   5.440
  154SBC   C05L 8492   8.843   5.003   5.591
  154SBC   C04W 8493   9.316   4.815   5.907
  154SBC   C05I 8494   9.435   4.857   5.964
  154SBC   C05O 8495   9.449   4.993   5.999
  154SBC   C052 8496   9.548   4.778   5.970
  154SBC   C04V 8497   9.308   4.681   5.882
  154SBC   C04U 8498   9.416   4.590   5.903
  154SBC   N009 8499   9.349   5.083   5.974
  154SBC   C0GP 8500   9.570   5.041   6.043
  154SBC   C05W 8501   9.685   4.961   6.045
  154SBC   C07D 8502  10.042   5.016   6.079
  154SBC   C06J 8503  10.027   4.733   6.013
  154SBC   C05P 8504   9.673   4.829   6.014
  154SBC   C05R 8505   9.892   4.540   5.979
  154SBC   C04Z 8506   9.536   4.641   5.945
  154SBC   C04C 8507   9.765   4.356   5.899
  154SBC   C04G 8508   9.634   4.167   5.818
  154SBC   C04J 8509   9.400   4.063   5.718
  154SBC   C04T 8510   9.410   4.458   5.863
  154SBC   N003 8511   9.194   4.628   5.821
  154SBC   C04P 8512   8.976   4.674   5.708
  154SBC   C03D 8513   8.766   4.573   5.578
  154SBC   C021 8514   8.765   4.324   5.477
  154SBC   C03F 8515   9.074   4.315   5.674
  154SBC   C022 8516   8.878   4.118   5.444
  154SBC   C02A 8517   9.178   4.099   5.643
  154SBC   C023 8518   8.977   3.906   5.412
  154SBC   C025 8519   9.182   3.724   5.465
  154SBC   C02D 8520   9.295   3.639   5.477
  154SBC   C02E 8521   9.298   3.516   5.405
  154SBC   C02N 8522   9.404   3.439   5.405
  154SBC   C04N 8523   9.291   4.016   5.662
  154SBC   C02P 8524   9.407   3.678   5.544
  154SBC   C04I 8525   9.511   3.983   5.723
  154SBC   C044 8526   9.739   3.816   5.746
  154SBC   C043 8527   9.522   3.600   5.552
  154SBC   C05N 8528   9.521   3.481   5.478
  154SBC   C09U 8529   9.877   3.253   5.483
  154SBC   C09V 8530  10.004   3.189   5.481
  154SBC   C09X 8531  10.021   3.071   5.414
  154SBC   C09Y 8532  10.137   3.007   5.387
  154SBC   C0A1 8533  10.252   3.058   5.445
  154SBC   C0A2 8534  10.241   3.176   5.520
  154SBC   C0A4 8535  10.354   3.231   5.578
  154SBC   C071 8536  10.348   3.355   5.653
  154SBC   C0A5 8537  10.466   3.403   5.711
  154SBC   C0A9 8538  10.583   3.336   5.689
  154SBC   C0A8 8539  10.585   3.226   5.607
  154SBC   C0AP 8540  10.710   3.161   5.578
  154SBC   C0BY 8541  10.710   3.041   5.507
  154SBC   C0BX 8542  10.600   2.976   5.464
  154SBC   C0C2 8543  10.617   2.864   5.380
  154SBC   C0C3 8544  10.508   2.819   5.306
  154SBC   C0CT 8545  10.385   2.882   5.329
  154SBC   C0C1 8546  10.742   2.802   5.358
  154SBC   C0C0 8547  10.863   2.875   5.401
  154SBC   C0A7 8548  10.482   3.046   5.479
  154SBC   C0BZ 8549  10.835   2.992   5.466
  154SBC   C0BO 8550  10.948   3.052   5.509
  154SBC   C0BN 8551  10.950   3.164   5.588
  154SBC   C0BM 8552  11.069   3.213   5.626
  154SBC   C0B9 8553  11.068   3.335   5.698
  154SBC   C0B8 8554  10.943   3.392   5.733
  154SBC   C0AD 8555  10.823   3.334   5.694
  154SBC   C0AF 8556  10.945   3.518   5.792
  154SBC   C0AG 8557  11.063   3.592   5.823
  154SBC   C0B7 8558  11.183   3.526   5.787
  154SBC   C0AE 8559  10.823   3.577   5.817
  154SBC   C0AB 8560  10.705   3.517   5.785
  154SBC   C0AA 8561  10.588   3.580   5.814
  154SBC   C0AJ 8562  10.823   3.705   5.870
  154SBC   C0AK 8563  10.706   3.762   5.904
  154SBC   C06W 8564  10.734   3.877   5.962
  154SBC   C0AI 8565  10.936   3.781   5.909
  154SBC   C0BP 8566  11.061   2.983   5.466
  154SBC   C0BQ 8567  11.189   3.028   5.522
  154SBC   C0BW 8568  10.828   3.216   5.621
  154SBC   C0AC 8569  10.703   3.396   5.723
  154SBC   C0A6 8570  10.476   3.168   5.550
  154SBC   C0A3 8571  10.371   2.996   5.418
  154SBC   C09Z 8572  10.153   2.890   5.309
  154SBC   C09W 8573  10.122   3.242   5.533
  154SBC   C072 8574  10.119   3.366   5.600
  154SBC   C09H 8575   9.907   3.021   5.358
  154SBC   C09G 8576   9.919   2.908   5.279
  154SBC   C09P 8577   9.799   2.886   5.225
  154SBC   C02O 8578   9.507   3.125   5.245
  154SBC   C02M 8579   9.407   3.323   5.328
  154SBC   C02F 8580   9.179   3.485   5.341
  154SBC   C00W 8581   8.980   3.546   5.233
  154SBC   C01R 8582   8.816   3.500   4.990
  154SBC   C01N 8583   9.068   3.252   5.094
  154SBC   C01L 8584   9.157   3.098   4.931
  154SBC   C01H 8585   9.018   2.979   4.627
  154SBC   C01K 8586   8.863   3.269   4.787
  154SBC   C01E 8587   8.693   3.253   4.575
  154SBC   C01G 8588   8.931   2.963   4.505
  154SBC   C01D 8589   8.608   3.242   4.467
  154SBC   C01A 8590   8.406   3.202   4.268
  154SBC   H001 8591   8.324   3.184   4.200
  154SBC   C01F 8592   8.739   2.949   4.293
  154SBC   C03P 8593   8.787   2.795   4.061
  154SBC   C03T 8594   8.997   2.726   4.148
  154SBC   C08I 8595   9.251   2.589   4.158
  154SBC   C08J 8596   9.377   2.537   4.172
  154SBC   C08L 8597   9.582   2.493   4.294
  154SBC   C093 8598   9.787   2.449   4.435
  154SBC   C08Z 8599   9.655   2.554   4.654
  154SBC   C09T 8600  10.122   2.479   4.783
  154SBC   C09S 8601   9.809   2.600   4.912
  154SBC   C09Q 8602   9.793   2.790   5.126
  154SBC   C09F 8603  10.042   2.842   5.252
  154SBC   C09E 8604  10.143   2.595   4.998
  154SBC   C0A0 8605  10.274   2.832   5.271
  154SBC   C0CU 8606  10.525   2.707   5.219
  154SBC   C0CR 8607  10.647   2.635   5.220
  154SBC   C0CZ 8608  10.656   2.519   5.140
  154SBC   C0DA 8609  10.216   2.535   4.891
  154SBC   C0D9 8610  10.518   2.394   4.737
  154SBC   H00V 8611  10.497   2.439   4.642
  154SBC   C0CY 8612  10.539   2.486   5.058
  154SBC   C0DF 8613  10.637   2.319   4.768
  154SBC   C0DE 8614  10.766   2.301   4.713
  154SBC   C0GI 8615  10.805   2.273   4.577
  154SBC   H01K 8616  10.734   2.270   4.495
  154SBC   C0GJ 8617  10.938   2.244   4.562
  154SBC   H01J 8618  10.974   2.212   4.466
  154SBC   O00I 8619  11.026   2.237   4.670
  154SBC   C0GH 8620  10.992   2.268   4.797
  154SBC   C0GG 8621  11.097   2.274   4.891
  154SBC   O00G 8622  11.219   2.225   4.843
  154SBC   C0G8 8623  11.333   2.247   4.908
  154SBC   C0G9 8624  11.444   2.191   4.845
  154SBC   H01G 8625  11.437   2.117   4.767
  154SBC   C0GA 8626  11.568   2.238   4.884
  154SBC   H01H 8627  11.655   2.189   4.844
  154SBC   C0GB 8628  11.581   2.349   4.968
  154SBC   C0EP 8629  11.465   2.399   5.041
  154SBC   C0E8 8630  11.479   2.509   5.135
  154SBC   C0CK 8631  11.402   2.577   5.237
  154SBC   C0CL 8632  11.293   2.521   5.292
  154SBC   C0E9 8633  11.208   2.435   5.211
  154SBC   C0GE 8634  11.214   2.368   5.080
  154SBC   C0E7 8635  11.603   2.579   5.135
  154SBC   C0CJ 8636  11.599   2.688   5.220
  154SBC   C0E6 8637  11.701   2.784   5.217
  154SBC   H00Y 8638  11.692   2.876   5.272
  154SBC   C0EO 8639  11.816   2.744   5.141
  154SBC   H011 8640  11.906   2.801   5.152
  154SBC   C0G6 8641  11.821   2.624   5.054
  154SBC   C0G5 8642  11.926   2.584   4.973
  154SBC   H01F 8643  12.021   2.636   4.966
  154SBC   C0GD 8644  11.923   2.473   4.900
  154SBC   H01I 8645  12.007   2.441   4.840
  154SBC   O00H 8646  11.815   2.386   4.904
  154SBC   C0EQ 8647  11.708   2.538   5.056
  154SBC   C0GC 8648  11.700   2.423   4.978
  154SBC   C0G7 8649  11.338   2.340   5.017
  154SBC   C0DD 8650  10.857   2.289   4.823
  154SBC   C0GF 8651  11.088   2.320   5.027
  154SBC   C0CO 8652  11.093   2.441   5.284
  154SBC   C0D0 8653  10.779   2.440   5.152
  154SBC   C0C4 8654  10.755   2.676   5.300
  154SBC   C0CN 8655  11.086   2.525   5.396
  154SBC   C0CP 8656  11.006   2.869   5.393
  154SBC   C0CM 8657  11.219   2.587   5.398
  154SBC   C0CI 8658  11.477   2.682   5.299
  154SBC   C0CD 8659  11.668   3.000   5.590
  154SBC   C0BR 8660  11.305   2.951   5.496
  154SBC   C0CS 8661  11.187   3.146   5.594
  154SBC   C0B6 8662  11.184   3.399   5.730
  154SBC   C0CG 8663  11.544   3.193   5.666
  154SBC   C0CF 8664  11.663   3.125   5.649
  154SBC   C0E5 8665  11.909   2.986   5.617
  154SBC   C0DT 8666  12.141   3.105   5.698
  154SBC   C0DL 8667  11.904   3.358   5.801
  154SBC   C0DM 8668  11.905   3.490   5.854
  154SBC   C0DY 8669  12.141   3.484   5.878
  154SBC   C0DU 8670  12.253   3.166   5.743
  154SBC   C0F0 8671  12.492   3.181   5.722
  154SBC   C0F4 8672  12.713   3.322   5.693
  154SBC   C0FG 8673  12.509   3.517   5.934
  154SBC   O00B 8674  12.806   3.555   5.732
  154SBC   C0FN 8675  12.524   3.652   5.955
  154SBC   C0DZ 8676  12.263   3.549   5.909
  154SBC   O00C 8677  12.140   3.885   5.959
  154SBC   C0FR 8678  12.040   3.966   5.951
  154SBC   O00D 8679  12.063   4.088   5.968
  154SBC   C0E0 8680  12.024   3.555   5.888
  154SBC   C0E3 8681  11.910   3.905   5.941
  154SBC   C0AW 8682  11.791   3.977   5.928
  154SBC   C0AV 8683  11.774   4.125   5.941
  154SBC   H00Q 8684  11.857   4.192   5.960
  154SBC   C0AU 8685  11.647   4.193   5.930
  154SBC   H00R 8686  11.635   4.299   5.941
  154SBC   C0AT 8687  11.535   4.110   5.921
  154SBC   C0AS 8688  11.391   4.130   5.910
  154SBC   C0AR 8689  11.329   4.260   5.923
  154SBC   C0BE 8690  11.554   3.974   5.911
  154SBC   C0DN 8691  11.784   3.561   5.861
  154SBC   C0AX 8692  11.678   3.905   5.911
  154SBC   C0BB 8693  11.542   3.575   5.836
  154SBC   C0BD 8694  11.435   3.913   5.899
  154SBC   C0B2 8695  11.299   3.592   5.815
  154SBC   C0AH 8696  11.065   3.727   5.867
  154SBC   C0BF 8697  11.323   3.999   5.910
  154SBC   C0AL 8698  10.874   3.899   5.968
  154SBC   C07U 8699  11.096   4.181   6.004
  154SBC   C0AQ 8700  11.208   4.259   6.004
  154SBC   C0BG 8701  11.404   4.382   5.958
  154SBC   C0FY 8702  11.278   4.678   6.100
  154SBC   C0BJ 8703  11.459   4.492   5.879
  154SBC   H00S 8704  11.494   4.488   5.777
  154SBC   C0FZ 8705  11.337   4.795   6.041
  154SBC   C07S 8706  11.149   4.677   6.152
  154SBC   C0G1 8707  11.120   5.055   6.157
  154SBC   C07K 8708  10.780   4.975   6.278
  154SBC   C07H 8709  10.867   4.708   6.197
  154SBC   C06B 8710  10.611   4.785   6.000
  154SBC   C06N 8711  10.503   4.589   6.011
  154SBC   C066 8712  10.857   4.461   6.107
  154SBC   C062 8713  10.719   4.176   6.051
  154SBC   C05Y 8714  10.381   4.354   6.012
  154SBC   C061 8715  10.618   4.076   6.060
  154SBC   C05H 8716  10.288   4.038   5.942
  154SBC   C06V 8717  10.625   3.953   5.998
  154SBC   C06Y 8718  10.579   3.707   5.867
  154SBC   C05C 8719  10.210   3.789   5.857
  154SBC   C06Z 8720  10.464   3.525   5.770
  154SBC   C070 8721  10.230   3.419   5.661
  154SBC   C05B 8722  10.095   3.729   5.802
  154SBC   C057 8723   9.863   3.621   5.684
  154SBC   C059 8724   9.997   3.427   5.608
  155SBC   C058 8725   4.300   3.444  11.333
  155SBC   C05A 8726   4.174   3.487  11.290
  155SBC   C06Q 8727   4.153   3.620  11.254
  155SBC   C06R 8728   4.025   3.658  11.210
  155SBC   C06S 8729   3.912   3.572  11.205
  155SBC   C06T 8730   3.782   3.625  11.168
  155SBC   C06U 8731   3.650   3.562  11.167
  155SBC   C06X 8732   3.604   3.427  11.209
  155SBC   C060 8733   3.459   3.427  11.197
  155SBC   C05Z 8734   3.371   3.312  11.165
  155SBC   C068 8735   3.266   3.381  11.085
  155SBC   C067 8736   3.133   3.334  11.043
  155SBC   C069 8737   3.076   3.222  11.120
  155SBC   C06A 8738   2.933   3.181  11.129
  155SBC   C073 8739   2.814   3.255  11.108
  155SBC   C07P 8740   2.709   3.253  11.200
  155SBC   C07O 8741   2.722   3.223  11.338
  155SBC   H00D 8742   2.819   3.216  11.383
  155SBC   C07N 8743   2.616   3.176  11.414
  155SBC   H00E 8744   2.630   3.145  11.517
  155SBC   C07M 8745   2.491   3.177  11.360
  155SBC   H00F 8746   2.406   3.137  11.414
  155SBC   C07L 8747   2.467   3.248  11.237
  155SBC   C07Q 8748   2.345   3.282  11.182
  155SBC   H00G 8749   2.257   3.250  11.236
  155SBC   O00F 8750   2.327   3.342  11.064
  155SBC   C07J 8751   2.438   3.360  10.978
  155SBC   C07I 8752   2.566   3.327  11.022
  155SBC   N004 8753   2.678   3.351  10.940
  155SBC   C07R 8754   2.653   3.397  10.803
  155SBC   C07T 8755   2.516   3.432  10.771
  155SBC   C0FX 8756   2.489   3.507  10.660
  155SBC   C0FW 8757   2.370   3.575  10.638
  155SBC   C0G0 8758   2.266   3.553  10.731
  155SBC   C0G2 8759   2.145   3.626  10.723
  155SBC   H01E 8760   2.064   3.616  10.794
  155SBC   C0G3 8761   2.131   3.719  10.618
  155SBC   H01C 8762   2.045   3.785  10.611
  155SBC   C0G4 8763   2.231   3.743  10.528
  155SBC   H01D 8764   2.218   3.817  10.451
  155SBC   O00E 8765   2.288   3.471  10.842
  155SBC   C0FV 8766   2.351   3.669  10.529
  155SBC   C0FU 8767   2.463   3.683  10.443
  155SBC   H01B 8768   2.454   3.756  10.363
  155SBC   C0FT 8769   2.588   3.617  10.462
  155SBC   C0FS 8770   2.725   3.635  10.414
  155SBC   C0BI 8771   2.805   3.526  10.478
  155SBC   C0BH 8772   2.941   3.562  10.486
  155SBC   C07F 8773   3.013   3.560  10.613
  155SBC   C07E 8774   3.001   3.471  10.727
  155SBC   C07G 8775   2.889   3.406  10.771
  155SBC   C074 8776   2.914   3.359  10.900
  155SBC   C065 8777   3.079   3.487  10.837
  155SBC   C064 8778   3.173   3.592  10.841
  155SBC   C063 8779   3.273   3.619  10.946
  155SBC   C075 8780   3.338   3.738  10.885
  155SBC   C0AM 8781   3.275   3.792  10.767
  155SBC   C0AN 8782   3.302   3.913  10.688
  155SBC   C0AO 8783   3.420   4.005  10.691
  155SBC   C0B1 8784   3.423   4.124  10.612
  155SBC   C0B0 8785   3.313   4.171  10.551
  155SBC   C0AZ 8786   3.301   4.291  10.489
  155SBC   C0AY 8787   3.176   4.339  10.451
  155SBC   N007 8788   3.164   4.466  10.395
  155SBC   C0E2 8789   3.032   4.515  10.374
  155SBC   C0E1 8790   3.027   4.645  10.329
  155SBC   C0E4 8791   2.902   4.707  10.325
  155SBC   C0FF 8792   2.886   4.847  10.292
  155SBC   C0FJ 8793   2.770   4.934  10.301
  155SBC   C0FK 8794   2.670   4.942  10.401
  155SBC   H016 8795   2.641   4.867  10.473
  155SBC   C0FL 8796   2.613   5.077  10.388
  155SBC   H017 8797   2.536   5.122  10.449
  155SBC   C0FM 8798   2.695   5.151  10.291
  155SBC   C0FH 8799   2.747   5.284  10.247
  155SBC   C0FI 8800   2.864   5.237  10.176
  155SBC   C0F3 8801   2.980   5.315  10.158
  155SBC   C0F2 8802   3.094   5.244  10.127
  155SBC   C0DW 8803   3.109   5.107  10.141
  155SBC   C0FE 8804   2.997   5.033  10.168
  155SBC   C0DV 8805   3.233   5.051  10.172
  155SBC   C0DX 8806   3.241   4.922  10.219
  155SBC   C0DK 8807   3.368   4.878  10.256
  155SBC   C0DJ 8808   3.481   4.961  10.247
  155SBC   C0DI 8809   3.609   4.911  10.280
  155SBC   C0DH 8810   3.615   4.787  10.336
  155SBC   C0DG 8811   3.505   4.700  10.347
  155SBC   C0BV 8812   3.517   4.568  10.393
  155SBC   C0BC 8813   3.404   4.488  10.404
  155SBC   C0BA 8814   3.636   4.521  10.434
  155SBC   C0B4 8815   3.643   4.396  10.500
  155SBC   C0B3 8816   3.526   4.323  10.516
  155SBC   C0B5 8817   3.764   4.362  10.560
  155SBC   C0BU 8818   3.873   4.446  10.544
  155SBC   C0BT 8819   3.871   4.561  10.468
  155SBC   C0BS 8820   3.991   4.628  10.431
  155SBC   C0CC 8821   3.979   4.755  10.364
  155SBC   C0CB 8822   4.096   4.818  10.319
  155SBC   C0CH 8823   4.077   4.956  10.289
  155SBC   C0DO 8824   3.950   5.020  10.296
  155SBC   C0DP 8825   3.939   5.160  10.275
  155SBC   C0EA 8826   4.056   5.240  10.286
  155SBC   H012 8827   4.155   5.201  10.307
  155SBC   O009 8828   4.045   5.377  10.281
  155SBC   C0EH 8829   3.920   5.429  10.259
  155SBC   C0EG 8830   3.907   5.572  10.257
  155SBC   C0EJ 8831   3.999   5.683  10.283
  155SBC   H010 8832   4.099   5.676  10.325
  155SBC   C0EK 8833   3.922   5.810  10.270
  155SBC   H00Z 8834   3.960   5.910  10.283
  155SBC   C0EL 8835   3.789   5.766  10.243
  155SBC   C0EM 8836   3.670   5.842  10.235
  155SBC   C0EW 8837   3.648   5.984  10.241
  155SBC   H013 8838   3.740   6.041  10.249
  155SBC   C0EX 8839   3.517   6.046  10.225
  155SBC   H014 8840   3.498   6.152  10.222
  155SBC   C0F1 8841   3.403   5.961  10.209
  155SBC   C0EU 8842   3.415   5.819  10.213
  155SBC   C0ET 8843   3.317   5.720  10.213
  155SBC   C0ES 8844   3.393   5.595  10.217
  155SBC   C0EE 8845   3.535   5.624  10.213
  155SBC   C0ED 8846   3.664   5.559  10.217
  155SBC   C0EC 8847   3.673   5.416  10.216
  155SBC   C0EB 8848   3.567   5.322  10.192
  155SBC   C0EN 8849   3.430   5.367  10.153
  155SBC   C0ER 8850   3.337   5.263  10.142
  155SBC   C0DS 8851   3.578   5.179  10.212
  155SBC   C0DR 8852   3.706   5.129  10.240
  155SBC   C0EY 8853   3.348   5.484  10.146
  155SBC   C0EZ 8854   3.204   5.463  10.151
  155SBC   C0F5 8855   3.077   5.534  10.184
  155SBC   C0F6 8856   3.074   5.672  10.209
  155SBC   N008 8857   2.936   5.722  10.239
  155SBC   C0F7 8858   2.829   5.631  10.263
  155SBC   C0FQ 8859   2.711   5.694  10.308
  155SBC   H018 8860   2.624   5.636  10.336
  155SBC   C0FP 8861   2.695   5.832  10.333
  155SBC   H019 8862   2.611   5.861  10.394
  155SBC   C0FO 8863   2.795   5.913  10.286
  155SBC   H01A 8864   2.789   6.020  10.299
  155SBC   C0F8 8865   2.845   5.499  10.241
  155SBC   C0F9 8866   2.918   5.863  10.234
  155SBC   C0FA 8867   3.026   5.953  10.197
  155SBC   H015 8868   3.009   6.060  10.196
  155SBC   C0FB 8869   3.160   5.903  10.188
  155SBC   C0FD 8870   3.177   5.763  10.207
  155SBC   C0FC 8871   3.270   6.005  10.193
  155SBC   O00A 8872   3.253   6.126  10.192
  155SBC   C0EV 8873   3.547   5.767  10.224
  155SBC   C0EF 8874   3.786   5.626  10.226
  155SBC   C0EI 8875   3.797   5.356  10.237
  155SBC   C0DQ 8876   3.816   5.217  10.243
  155SBC   C0CE 8877   3.840   4.943  10.306
  155SBC   H00U 8878   4.161   5.014  10.256
  155SBC   C0CA 8879   4.217   4.737  10.308
  155SBC   C0C9 8880   4.235   4.619  10.390
  155SBC   C0C8 8881   4.355   4.541  10.390
  155SBC   C0C7 8882   4.415   4.463  10.503
  155SBC   C0C6 8883   4.545   4.413  10.479
  155SBC   C0C5 8884   4.663   4.382  10.562
  155SBC   C0CQ 8885   4.787   4.417  10.510
  155SBC   C0D1 8886   4.790   4.484  10.387
  155SBC   C0D8 8887   4.893   4.571  10.383
  155SBC   C0D7 8888   4.972   4.535  10.498
  155SBC   C0D6 8889   5.090   4.605  10.535
  155SBC   C0D5 8890   5.171   4.547  10.638
  155SBC   C0D4 8891   5.146   4.480  10.767
  155SBC   C0D3 8892   5.257   4.389  10.794
  155SBC   C0CX 8893   5.211   4.275  10.881
  155SBC   C0CW 8894   5.060   4.287  10.876
  155SBC   C0CV 8895   4.943   4.218  10.935
  155SBC   C0D2 8896   4.955   4.129  11.043
  155SBC   C09D 8897   5.073   4.101  11.123
  155SBC   C09C 8898   5.068   4.009  11.233
  155SBC   C09B 8899   5.173   3.965  11.315
  155SBC   C09A 8900   5.302   4.028  11.285
  155SBC   C099 8901   5.313   4.133  11.200
  155SBC   C098 8902   5.439   4.134  11.150
  155SBC   C08Y 8903   5.513   4.030  11.208
  155SBC   C08X 8904   5.645   3.974  11.176
  155SBC   C08W 8905   5.728   4.033  11.074
  155SBC   C08U 8906   5.683   4.138  10.977
  155SBC   C08V 8907   5.552   4.192  10.937
  155SBC   C0DC 8908   5.590   4.307  10.864
  155SBC   H00W 8909   5.528   4.394  10.849
  155SBC   C0DB 8910   5.726   4.305  10.824
  155SBC   H00X 8911   5.777   4.370  10.754
  155SBC   C08T 8912   5.782   4.195  10.894
  155SBC   C08S 8913   5.915   4.163  10.894
  155SBC   H00N 8914   5.981   4.212  10.825
  155SBC   C08R 8915   5.958   4.061  10.975
  155SBC   C08Q 8916   6.092   4.021  10.984
  155SBC   H00O 8917   6.159   4.079  10.922
  155SBC   C08P 8918   6.150   3.913  11.057
  155SBC   C08O 8919   6.290   3.876  11.067
  155SBC   H00P 8920   6.363   3.936  11.016
  155SBC   C08N 8921   6.325   3.754  11.126
  155SBC   C08M 8922   6.465   3.711  11.115
  155SBC   O008 8923   6.554   3.775  11.062
  155SBC   O007 8924   6.490   3.586  11.171
  155SBC   C08H 8925   6.390   3.507  11.228
  155SBC   C08G 8926   6.412   3.371  11.271
  155SBC   C03V 8927   6.532   3.294  11.271
  155SBC   H009 8928   6.615   3.355  11.238
  155SBC   C03U 8929   6.545   3.159  11.297
  155SBC   C03W 8930   6.663   3.072  11.293
  155SBC   H00A 8931   6.757   3.118  11.267
  155SBC   C03X 8932   6.656   2.937  11.317
  155SBC   H00B 8933   6.745   2.875  11.307
  155SBC   O005 8934   6.538   2.875  11.349
  155SBC   C03O 8935   6.431   2.952  11.363
  155SBC   C03N 8936   6.317   2.883  11.396
  155SBC   O000 8937   6.327   2.749  11.410
  155SBC   C019 8938   6.212   2.676  11.425
  155SBC   C018 8939   6.085   2.741  11.451
  155SBC   C017 8940   6.079   2.881  11.444
  155SBC   C016 8941   5.955   2.944  11.462
  155SBC   C015 8942   5.850   2.856  11.493
  155SBC   C014 8943   5.728   2.917  11.515
  155SBC   C013 8944   5.705   3.058  11.499
  155SBC   C012 8945   5.560   3.074  11.524
  155SBC   C011 8946   5.523   2.946  11.559
  155SBC   C010 8947   5.398   2.916  11.595
  155SBC   C00Z 8948   5.336   2.796  11.616
  155SBC   C00Y 8949   5.203   2.831  11.637
  155SBC   C01O 8950   5.182   2.959  11.623
  155SBC   C01P 8951   5.064   3.027  11.608
  155SBC   C02L 8952   5.066   3.158  11.573
  155SBC   C02K 8953   5.192   3.221  11.558
  155SBC   C01M 8954   5.324   3.149  11.556
  155SBC   C02J 8955   5.189   3.358  11.538
  155SBC   C02I 8956   5.291   3.449  11.531
  155SBC   C02H 8957   5.432   3.427  11.522
  155SBC   C01Q 8958   5.506   3.310  11.527
  155SBC   C02G 8959   5.649   3.343  11.502
  155SBC   C089 8960   5.649   3.485  11.490
  155SBC   C088 8961   5.759   3.526  11.423
  155SBC   C087 8962   5.843   3.409  11.413
  155SBC   C086 8963   5.979   3.405  11.379
  155SBC   C03S 8964   6.072   3.295  11.385
  155SBC   N006 8965   6.191   3.352  11.341
  155SBC   C08F 8966   6.171   3.481  11.301
  155SBC   C01J 8967   6.064   3.156  11.404
  155SBC   C03R 8968   6.189   3.087  11.386
  155SBC   C03Q 8969   6.309   3.156  11.347
  155SBC   C08E 8970   6.042   3.516  11.317
  155SBC   C08D 8971   6.001   3.644  11.272
  155SBC   C08K 8972   6.093   3.725  11.203
  155SBC   C08C 8973   5.866   3.691  11.268
  155SBC   C091 8974   5.830   3.807  11.204
  155SBC   C092 8975   5.921   3.875  11.122
  155SBC   C08B 8976   5.754   3.644  11.333
  155SBC   C090 8977   5.652   3.753  11.322
  155SBC   C094 8978   5.535   3.771  11.407
  155SBC   C095 8979   5.430   3.857  11.380
  155SBC   C09R 8980   5.306   3.806  11.432
  155SBC   C097 8981   5.334   3.677  11.480
  155SBC   C096 8982   5.467   3.659  11.469
  155SBC   C01I 8983   5.775   3.288  11.460
  155SBC   C08A 8984   5.514   3.531  11.489
  155SBC   C09L 8985   5.241   3.577  11.517
  155SBC   C09K 8986   5.096   3.566  11.517
  155SBC   C09J 8987   5.009   3.668  11.475
  155SBC   C09I 8988   4.870   3.648  11.442
  155SBC   C09O 8989   4.770   3.544  11.443
  155SBC   C09N 8990   4.801   3.411  11.483
  155SBC   C09M 8991   4.931   3.357  11.514
  155SBC   C06O 8992   4.685   3.322  11.482
  155SBC   C05M 8993   4.553   3.364  11.442
  155SBC   C06P 8994   4.533   3.494  11.400
  155SBC   C042 8995   4.449   3.272  11.420
  155SBC   C041 8996   4.459   3.138  11.463
  155SBC   C040 8997   4.351   3.047  11.442
  155SBC   C03Z 8998   4.371   2.913  11.469
  155SBC   C03Y 8999   4.499   2.867  11.508
  155SBC   C027 9000   4.513   2.731  11.536
  155SBC   C026 9001   4.636   2.683  11.576
  155SBC   C028 9002   4.658   2.550  11.601
  155SBC   C029 9003   4.554   2.460  11.592
  155SBC   C02B 9004   4.574   2.324  11.605
  155SBC   C02C 9005   4.472   2.236  11.599
  155SBC   C02X 9006   4.494   2.103  11.609
  155SBC   C03E 9007   4.390   2.015  11.596
  155SBC   C03G 9008   4.260   2.054  11.558
  155SBC   C04Q 9009   4.236   2.191  11.550
  155SBC   C04R 9010   4.108   2.238  11.516
  155SBC   C04S 9011   4.087   2.377  11.501
  155SBC   C04L 9012   4.195   2.459  11.515
  155SBC   C04M 9013   4.324   2.417  11.552
  155SBC   C04K 9014   4.176   2.593  11.487
  155SBC   C04F 9015   4.054   2.638  11.445
  155SBC   C04E 9016   3.946   2.554  11.433
  155SBC   C04D 9017   3.824   2.604  11.400
  155SBC   C050 9018   3.716   2.516  11.407
  155SBC   C051 9019   3.587   2.572  11.393
  155SBC   C05Q 9020   3.479   2.489  11.417
  155SBC   C05V 9021   3.353   2.547  11.415
  155SBC   N005 9022   3.244   2.467  11.455
  155SBC   C07V 9023   3.271   2.338  11.501
  155SBC   C082 9024   3.166   2.261  11.546
  155SBC   C081 9025   3.039   2.308  11.544
  155SBC   C07C 9026   3.015   2.439  11.495
  155SBC   C07B 9027   2.889   2.497  11.497
  155SBC   C080 9028   2.775   2.423  11.540
  155SBC   C07Z 9029   2.649   2.489  11.534
  155SBC   H00L 9030   2.565   2.431  11.568
  155SBC   C079 9031   2.621   2.607  11.473
  155SBC   C078 9032   2.730   2.672  11.417
  155SBC   C077 9033   2.709   2.788  11.345
  155SBC   C07X 9034   2.577   2.838  11.322
  155SBC   H00I 9035   2.553   2.922  11.259
  155SBC   C07Y 9036   2.471   2.782  11.395
  155SBC   H00H 9037   2.376   2.834  11.388
  155SBC   C076 9038   2.821   2.859  11.297
  155SBC   C06C 9039   2.803   2.972  11.215
  155SBC   H00C 9040   2.711   3.001  11.167
  155SBC   C06F 9041   2.948   2.819  11.325
  155SBC   C06E 9042   3.059   2.895  11.286
  155SBC   C06G 9043   3.189   2.860  11.311
  155SBC   C06H 9044   3.207   2.729  11.365
  155SBC   C06I 9045   3.096   2.651  11.401
  155SBC   C06L 9046   3.293   2.951  11.273
  155SBC   C06M 9047   3.275   3.085  11.221
  155SBC   C06K 9048   3.422   2.900  11.292
  155SBC   C05S 9049   3.443   2.765  11.339
  155SBC   C05U 9050   3.532   2.980  11.270
  155SBC   C05X 9051   3.520   3.119  11.232
  155SBC   C05G 9052   3.647   3.186  11.225
  155SBC   C05F 9053   3.764   3.117  11.251
  155SBC   C05E 9054   3.868   3.209  11.256
  155SBC   C048 9055   3.994   3.171  11.311
  155SBC   C056 9056   4.093   3.265  11.316
  155SBC   C045 9057   4.221   3.216  11.350
  155SBC   C047 9058   4.011   3.038  11.339
  155SBC   C049 9059   3.901   2.950  11.334
  155SBC   C04B 9060   3.913   2.819  11.373
  155SBC   C046 9061   4.129   2.998  11.387
  155SBC   C04H 9062   4.140   2.862  11.425
  155SBC   C05D 9063   3.830   3.342  11.233
  155SBC   C04A 9064   3.775   2.988  11.294
  155SBC   C05T 9065   3.658   2.917  11.296
  155SBC   C055 9066   3.675   2.784  11.338
  155SBC   C06D 9067   3.041   3.018  11.227
  155SBC   C07W 9068   2.970   2.696  11.386
  155SBC   C085 9069   2.490   2.669  11.467
  155SBC   H00M 9070   2.413   2.612  11.517
  155SBC   C084 9071   2.798   2.292  11.587
  155SBC   H00J 9072   2.708   2.246  11.625
  155SBC   C07A 9073   2.863   2.619  11.429
  155SBC   C083 9074   2.927   2.233  11.583
  155SBC   H00K 9075   2.936   2.135  11.627
  155SBC   O00K 9076   3.184   2.128  11.589
  155SBC   C0GO 9077   3.304   2.069  11.562
  155SBC   C0GN 9078   3.325   1.935  11.593
  155SBC   H01L 9079   3.247   1.869  11.628
  155SBC   C0GM 9080   3.442   1.871  11.554
  155SBC   C0GL 9081   3.447   1.735  11.555
  155SBC   H01M 9082   3.361   1.682  11.594
  155SBC   O00J 9083   3.557   1.664  11.509
  155SBC   C0GK 9084   3.669   1.746  11.497
  155SBC   H01N 9085   3.760   1.690  11.515
  155SBC   C05K 9086   3.665   1.880  11.490
  155SBC   C05J 9087   3.786   1.959  11.481
  155SBC   C04Y 9088   3.924   1.914  11.484
  155SBC   C04X 9089   4.031   2.005  11.502
  155SBC   O006 9090   3.959   1.777  11.466
  155SBC   C053 9091   4.086   1.732  11.473
  155SBC   C04O 9092   4.196   1.820  11.511
  155SBC   C03C 9093   4.333   1.786  11.539
  155SBC   C03B 9094   4.417   1.673  11.533
  155SBC   C054 9095   4.383   1.561  11.464
  155SBC   C0GR 9096   4.466   1.450  11.424
  155SBC   C03M 9097   4.613   1.421  11.430
  155SBC   C03I 9098   4.709   1.515  11.486
  155SBC   C03J 9099   4.847   1.468  11.489
  155SBC   N002 9100   4.957   1.556  11.520
  155SBC   C02U 9101   5.093   1.514  11.519
  155SBC   C02T 9102   5.200   1.607  11.541
  155SBC   C02Z 9103   5.330   1.565  11.547
  155SBC   N001 9104   5.435   1.663  11.572
  155SBC   C02R 9105   5.564   1.615  11.596
  155SBC   C032 9106   5.592   1.482  11.596
  155SBC   C031 9107   5.494   1.395  11.543
  155SBC   H007 9108   5.499   1.288  11.532
  155SBC   C033 9109   5.723   1.444  11.647
  155SBC   H003 9110   5.751   1.341  11.667
  155SBC   O004 9111   5.810   1.532  11.700
  155SBC   C034 9112   5.777   1.664  11.701
  155SBC   C035 9113   5.873   1.754  11.751
  155SBC   C036 9114   5.837   1.889  11.774
  155SBC   H005 9115   5.902   1.954  11.831
  155SBC   C037 9116   5.720   1.937  11.718
  155SBC   H006 9117   5.706   2.040  11.745
  155SBC   C00D 9118   5.632   1.851  11.648
  155SBC   C00C 9119   5.515   1.900  11.590
  155SBC   C00B 9120   5.484   2.041  11.563
  155SBC   C00A 9121   5.541   2.181  11.588
  155SBC   C009 9122   5.424   2.258  11.596
  155SBC   C008 9123   5.410   2.398  11.607
  155SBC   C007 9124   5.523   2.477  11.593
  155SBC   C006 9125   5.504   2.617  11.581
  155SBC   C005 9126   5.618   2.695  11.554
  155SBC   C004 9127   5.744   2.635  11.528
  155SBC   C003 9128   5.756   2.492  11.534
  155SBC   C002 9129   5.876   2.432  11.498
  155SBC   C01C 9130   5.991   2.517  11.475
  155SBC   C01B 9131   6.117   2.458  11.441
  155SBC   H000 9132   6.141   2.354  11.428
  155SBC   C001 9133   5.879   2.293  11.479
  155SBC   C000 9134   5.769   2.209  11.507
  155SBC   C01U 9135   5.804   2.080  11.462
  155SBC   H002 9136   5.745   1.990  11.448
  155SBC   C01T 9137   5.951   2.081  11.431
  155SBC   O002 9138   6.025   1.984  11.397
  155SBC   O001 9139   5.984   2.217  11.440
  155SBC   C01S 9140   5.647   2.412  11.566
  155SBC   C00N 9141   5.279   2.443  11.606
  155SBC   C00M 9142   5.171   2.358  11.599
  155SBC   C00J 9143   5.185   2.225  11.591
  155SBC   C00I 9144   5.082   2.138  11.592
  155SBC   C00H 9145   5.108   2.004  11.576
  155SBC   C00G 9146   5.238   1.958  11.559
  155SBC   C00F 9147   5.273   1.829  11.558
  155SBC   C01X 9148   5.006   1.912  11.579
  155SBC   C01W 9149   4.876   1.954  11.593
  155SBC   C01V 9150   4.849   2.094  11.599
  155SBC   C020 9151   4.724   2.147  11.614
  155SBC   C01Z 9152   4.775   1.861  11.595
  155SBC   C02Y 9153   4.654   1.917  11.611
  155SBC   C039 9154   4.544   1.832  11.604
  155SBC   C02W 9155   4.799   1.729  11.571
  155SBC   C01Y 9156   5.040   1.782  11.563
  155SBC   C00U 9157   4.955   2.184  11.593
  155SBC   C00S 9158   4.936   2.319  11.605
  155SBC   C00T 9159   4.808   2.367  11.616
  155SBC   C00R 9160   5.041   2.407  11.611
  155SBC   C00Q 9161   5.016   2.540  11.619
  155SBC   C00V 9162   4.892   2.590  11.617
  155SBC   C024 9163   4.864   2.725  11.612
  155SBC   C00X 9164   4.970   2.811  11.628
  155SBC   C00P 9165   5.124   2.619  11.635
  155SBC   C00O 9166   5.260   2.572  11.625
  155SBC   C00K 9167   5.314   2.183  11.583
  155SBC   N000 9168   5.649   2.262  11.551
  155SBC   C00L 9169   5.345   2.052  11.562
  155SBC   H004 9170   5.968   1.723  11.793
  155SBC   C02Q 9171   5.656   1.714  11.646
  155SBC   C00E 9172   5.410   1.803  11.565
  155SBC   C030 9173   5.359   1.429  11.529
  155SBC   O003 9174   5.260   1.339  11.503
  155SBC   C02S 9175   5.174   1.740  11.549
  155SBC   C038 9176   5.127   1.383  11.497
  155SBC   C03L 9177   5.020   1.297  11.463
  155SBC   H008 9178   5.052   1.195  11.448
  155SBC   C02V 9179   4.933   1.692  11.548
  155SBC   C03K 9180   4.891   1.343  11.443
  155SBC   C0BK 9181   4.790   1.256  11.400
  155SBC   H00T 9182   4.815   1.155  11.373
  155SBC   C03H 9183   4.686   1.646  11.540
  155SBC   C0BL 9184   4.654   1.290  11.386
  155SBC   C0GU 9185   4.561   1.200  11.331
  155SBC   H01O 9186   4.597   1.102  11.305
  155SBC   C0GT 9187   4.428   1.220  11.328
  155SBC   H01P 9188   4.354   1.144  11.307
  155SBC   C0GS 9189   4.381   1.342  11.380
  155SBC   C0GV 9190   4.242   1.387  11.391
  155SBC   C0GW 9191   4.125   1.305  11.374
  155SBC   H01Q 9192   4.130   1.198  11.359
  155SBC   C0GX 9193   4.011   1.371  11.395
  155SBC   H01R 9194   3.926   1.305  11.393
  155SBC   O00L 9195   4.003   1.509  11.420
  155SBC   C0GQ 9196   4.239   1.524  11.436
  155SBC   C03A 9197   4.550   1.700  11.566
  155SBC   C05L 9198   4.113   1.590  11.448
  155SBC   C04W 9199   3.769   2.100  11.464
  155SBC   C05I 9200   3.643   2.160  11.457
  155SBC   C05O 9201   3.530   2.084  11.485
  155SBC   C052 9202   3.623   2.298  11.433
  155SBC   C04V 9203   3.876   2.191  11.463
  155SBC   C04U 9204   3.856   2.331  11.448
  155SBC   N009 9205   3.543   1.950  11.500
  155SBC   C0GP 9206   3.411   2.144  11.507
  155SBC   C05W 9207   3.392   2.277  11.479
  155SBC   C07D 9208   3.117   2.523  11.452
  155SBC   C06J 9209   3.336   2.682  11.376
  155SBC   C05P 9210   3.497   2.355  11.444
  155SBC   C05R 9211   3.570   2.702  11.358
  155SBC   C04Z 9212   3.730   2.379  11.423
  155SBC   C04C 9213   3.803   2.737  11.367
  155SBC   C04G 9214   4.035   2.774  11.415
  155SBC   C04J 9215   4.283   2.682  11.497
  155SBC   C04T 9216   3.963   2.418  11.460
  155SBC   N003 9217   4.005   2.143  11.493
  155SBC   C04P 9218   4.159   1.960  11.523
  155SBC   C03D 9219   4.416   1.884  11.591
  155SBC   C021 9220   4.626   2.052  11.613
  155SBC   C03F 9221   4.341   2.281  11.577
  155SBC   C022 9222   4.700   2.280  11.617
  155SBC   C02A 9223   4.428   2.507  11.561
  155SBC   C023 9224   4.785   2.504  11.609
  155SBC   C025 9225   4.741   2.773  11.588
  155SBC   C02D 9226   4.725   2.910  11.565
  155SBC   C02E 9227   4.830   2.999  11.581
  155SBC   C02N 9228   4.822   3.136  11.547
  155SBC   C04N 9229   4.409   2.638  11.525
  155SBC   C02P 9230   4.603   2.957  11.522
  155SBC   C04I 9231   4.265   2.818  11.466
  155SBC   C044 9232   4.231   3.089  11.397
  155SBC   C043 9233   4.583   3.096  11.508
  155SBC   C05N 9234   4.696   3.185  11.515
  155SBC   C09U 9235   4.640   3.584  11.397
  155SBC   C09V 9236   4.615   3.708  11.339
  155SBC   C09X 9237   4.716   3.793  11.314
  155SBC   C09Y 9238   4.716   3.905  11.234
  155SBC   C0A1 9239   4.592   3.939  11.183
  155SBC   C0A2 9240   4.477   3.870  11.224
  155SBC   C0A4 9241   4.355   3.914  11.178
  155SBC   C071 9242   4.246   3.832  11.194
  155SBC   C0A5 9243   4.127   3.863  11.139
  155SBC   C0A9 9244   4.115   3.976  11.053
  155SBC   C0A8 9245   4.226   4.055  11.035
  155SBC   C0AP 9246   4.218   4.159  10.945
  155SBC   C0BY 9247   4.333   4.221  10.905
  155SBC   C0BX 9248   4.457   4.182  10.946
  155SBC   C0C2 9249   4.569   4.233  10.886
  155SBC   C0C3 9250   4.695   4.195  10.931
  155SBC   C0CT 9251   4.707   4.104  11.035
  155SBC   C0C1 9252   4.565   4.319  10.776
  155SBC   C0C0 9253   4.433   4.378  10.741
  155SBC   C0A7 9254   4.467   4.081  11.042
  155SBC   C0BZ 9255   4.326   4.326  10.814
  155SBC   C0BO 9256   4.202   4.368  10.762
  155SBC   C0BN 9257   4.092   4.289  10.784
  155SBC   C0BM 9258   3.985   4.312  10.707
  155SBC   C0B9 9259   3.874   4.234  10.726
  155SBC   C0B8 9260   3.871   4.139  10.824
  155SBC   C0AD 9261   3.990   4.117  10.897
  155SBC   C0AF 9262   3.762   4.064  10.840
  155SBC   C0AG 9263   3.648   4.073  10.755
  155SBC   C0B7 9264   3.649   4.177  10.662
  155SBC   C0AE 9265   3.776   3.972  10.935
  155SBC   C0AB 9266   3.887   3.934  11.008
  155SBC   C0AA 9267   3.895   3.822  11.092
  155SBC   C0AJ 9268   3.657   3.892  10.957
  155SBC   C0AK 9269   3.663   3.791  11.045
  155SBC   C06W 9270   3.536   3.739  11.042
  155SBC   C0AI 9271   3.537   3.905  10.885
  155SBC   C0BP 9272   4.225   4.445  10.650
  155SBC   C0BQ 9273   4.112   4.474  10.565
  155SBC   C0BW 9274   4.102   4.190  10.880
  155SBC   C0AC 9275   3.998   4.008  10.984
  155SBC   C0A6 9276   4.349   4.020  11.085
  155SBC   C0A3 9277   4.590   4.047  11.092
  155SBC   C09Z 9278   4.830   3.976  11.189
  155SBC   C09W 9279   4.493   3.750  11.297
  155SBC   C072 9280   4.384   3.663  11.304
  155SBC   C09H 9281   4.836   3.768  11.379
  155SBC   C09G 9282   4.943   3.855  11.361
  155SBC   C09P 9283   5.051   3.798  11.425
  155SBC   C02O 9284   5.061   3.431  11.530
  155SBC   C02M 9285   4.939   3.220  11.547
  155SBC   C02F 9286   4.953   2.949  11.616
  155SBC   C00W 9287   5.094   2.749  11.642
  155SBC   C01R 9288   5.373   2.659  11.607
  155SBC   C01N 9289   5.299   3.016  11.590
  155SBC   C01L 9290   5.463   3.181  11.531
  155SBC   C01H 9291   5.815   3.149  11.468
  155SBC   C01K 9292   5.614   2.844  11.551
  155SBC   C01E 9293   5.852   2.717  11.495
  155SBC   C01G 9294   5.947   3.084  11.449
  155SBC   C01D 9295   5.976   2.657  11.475
  155SBC   C01A 9296   6.227   2.539  11.412
  155SBC   H001 9297   6.323   2.499  11.384
  155SBC   C01F 9298   6.197   2.949  11.414
  155SBC   C03P 9299   6.427   3.088  11.335
  155SBC   C03T 9300   6.310   3.291  11.319
  155SBC   C08I 9301   6.264   3.560  11.239
  155SBC   C08J 9302   6.227   3.680  11.191
  155SBC   C08L 9303   6.057   3.840  11.129
  155SBC   C093 9304   5.865   3.987  11.054
  155SBC   C08Z 9305   5.699   3.854  11.230
  155SBC   C09T 9306   5.433   4.182  11.016
  155SBC   C09S 9307   5.427   3.976  11.307
  155SBC   C09Q 9308   5.178   3.857  11.403
  155SBC   C09F 9309   4.946   3.952  11.261
  155SBC   C09E 9310   5.208   4.153  11.104
  155SBC   C0A0 9311   4.831   4.071  11.089
  155SBC   C0CU 9312   4.815   4.250  10.879
  155SBC   C0CR 9313   4.803   4.327  10.759
  155SBC   C0CZ 9314   4.916   4.389  10.706
  155SBC   C0DA 9315   5.280   4.220  10.996
  155SBC   C0D9 9316   5.353   4.389  10.677
  155SBC   H00V 9317   5.430   4.321  10.644
  155SBC   C0CY 9318   5.031   4.397  10.788
  155SBC   C0DF 9319   5.298   4.502  10.592
  155SBC   C0DE 9320   5.304   4.556  10.458
  155SBC   C0GI 9321   5.409   4.562  10.363
  155SBC   H01K 9322   5.508   4.525  10.385
  155SBC   C0GJ 9323   5.397   4.632  10.252
  155SBC   H01J 9324   5.481   4.638  10.185
  155SBC   O00I 9325   5.278   4.695  10.221
  155SBC   C0GH 9326   5.165   4.684  10.299
  155SBC   C0GG 9327   5.034   4.724  10.251
  155SBC   O00G 9328   5.034   4.801  10.136
  155SBC   C0G8 9329   4.913   4.854  10.090
  155SBC   C0G9 9330   4.928   4.946   9.989
  155SBC   H01G 9331   5.031   4.969   9.966
  155SBC   C0GA 9332   4.822   4.992   9.922
  155SBC   H01H 9333   4.847   5.039   9.828
  155SBC   C0GB 9334   4.684   4.964   9.955
  155SBC   C0EP 9335   4.669   4.869  10.066
  155SBC   C0E8 9336   4.529   4.847  10.114
  155SBC   C0CK 9337   4.465   4.767  10.210
  155SBC   C0CL 9338   4.526   4.648  10.239
  155SBC   C0E9 9339   4.670   4.621  10.251
  155SBC   C0GE 9340   4.788   4.698  10.217
  155SBC   C0E7 9341   4.425   4.906  10.051
  155SBC   C0CJ 9342   4.299   4.875  10.101
  155SBC   C0E6 9343   4.190   4.915  10.031
  155SBC   H00Y 9344   4.090   4.883  10.054
  155SBC   C0EO 9345   4.212   4.996   9.915
  155SBC   H011 9346   4.123   5.028   9.863
  155SBC   C0G6 9347   4.338   5.037   9.870
  155SBC   C0G5 9348   4.369   5.123   9.764
  155SBC   H01F 9349   4.289   5.170   9.710
  155SBC   C0GD 9350   4.489   5.153   9.723
  155SBC   H01I 9351   4.493   5.214   9.634
  155SBC   O00H 9352   4.603   5.104   9.783
  155SBC   C0EQ 9353   4.450   4.985   9.933
  155SBC   C0GC 9354   4.577   5.015   9.888
  155SBC   C0G7 9355   4.784   4.811  10.130
  155SBC   C0DD 9356   5.184   4.621  10.425
  155SBC   C0GF 9357   4.912   4.669  10.283
  155SBC   C0CO 9358   4.679   4.497  10.308
  155SBC   C0D0 9359   4.897   4.454  10.584
  155SBC   C0C4 9360   4.671   4.348  10.697
  155SBC   C0CN 9361   4.557   4.433  10.339
  155SBC   C0CP 9362   4.365   4.453  10.632
  155SBC   C0CM 9363   4.458   4.527  10.291
  155SBC   C0CI 9364   4.319   4.790  10.218
  155SBC   C0CD 9365   3.852   4.812  10.342
  155SBC   C0BR 9366   4.117   4.576  10.462
  155SBC   C0CS 9367   3.993   4.415  10.609
  155SBC   C0B6 9368   3.764   4.257  10.648
  155SBC   C0CG 9369   3.747   4.605  10.422
  155SBC   C0CF 9370   3.740   4.732  10.365
  155SBC   C0E5 9371   3.714   4.995  10.273
  155SBC   C0DT 9372   3.469   5.093  10.210
  155SBC   C0DL 9373   3.378   4.752  10.310
  155SBC   C0DM 9374   3.267   4.670  10.327
  155SBC   C0DY 9375   3.125   4.849  10.243
  155SBC   C0DU 9376   3.345   5.130  10.176
  155SBC   C0F0 9377   3.206   5.323  10.124
  155SBC   C0F4 9378   2.970   5.449  10.194
  155SBC   C0FG 9379   2.871   5.100  10.171
  155SBC   O00B 9380   2.738   5.414  10.279
  155SBC   C0FN 9381   2.763   5.048  10.231
  155SBC   C0DZ 9382   2.999   4.905  10.229
  155SBC   O00C 9383   2.789   4.632  10.360
  155SBC   C0FR 9384   2.793   4.506  10.402
  155SBC   O00D 9385   2.688   4.458  10.440
  155SBC   C0E0 9386   3.140   4.721  10.298
  155SBC   C0E3 9387   2.917   4.438  10.402
  155SBC   C0AW 9388   2.929   4.306  10.444
  155SBC   C0AV 9389   2.818   4.213  10.465
  155SBC   H00Q 9390   2.714   4.234  10.445
  155SBC   C0AU 9391   2.844   4.078  10.516
  155SBC   H00R 9392   2.762   4.009  10.526
  155SBC   C0AT 9393   2.981   4.041  10.536
  155SBC   C0AS 9394   3.051   3.917  10.585
  155SBC   C0AR 9395   3.030   3.781  10.553
  155SBC   C0BE 9396   3.080   4.136  10.517
  155SBC   C0DN 9397   3.281   4.539  10.367
  155SBC   C0AX 9398   3.059   4.265  10.475
  155SBC   C0BB 9399   3.409   4.367  10.471
  155SBC   C0BD 9400   3.200   4.091  10.561
  155SBC   C0B2 9401   3.535   4.203  10.594
  155SBC   C0AH 9402   3.534   3.993  10.771
  155SBC   C0BF 9403   3.191   3.964  10.612
  155SBC   C0AL 9404   3.453   3.805  10.946
  155SBC   C07U 9405   3.177   3.692  10.741
  155SBC   C0AQ 9406   3.085   3.681  10.636
  155SBC   C0BG 9407   2.941   3.706  10.453
  155SBC   C0FY 9408   2.727   3.482  10.588
  155SBC   C0BJ 9409   2.808   3.751  10.413
  155SBC   H00S 9410   2.784   3.851  10.381
  155SBC   C0FZ 9411   2.597   3.532  10.571
  155SBC   C07S 9412   2.760   3.421  10.715
  155SBC   C0G1 9413   2.411   3.415  10.857
  155SBC   C07K 9414   2.580   3.282  11.156
  155SBC   C07H 9415   2.809   3.317  10.985
  155SBC   C06B 9416   2.917   3.054  11.188
  155SBC   C06N 9417   3.139   3.115  11.196
  155SBC   C066 9418   3.050   3.391  10.938
  155SBC   C062 9419   3.311   3.525  11.056
  155SBC   C05Y 9420   3.389   3.172  11.206
  155SBC   C061 9421   3.413   3.555  11.150
  155SBC   C05H 9422   3.692   3.323  11.208
  155SBC   C06V 9423   3.531   3.624  11.121
  155SBC   C06Y 9424   3.785   3.748  11.109
  155SBC   C05C 9425   3.935   3.439  11.247
  155SBC   C06Z 9426   4.014   3.777  11.147
  155SBC   C070 9427   4.260   3.704  11.248
  155SBC   C05B 9428   4.065   3.398  11.282
  155SBC   C057 9429   4.322   3.312  11.371
  155SBC   C059 9430   4.407   3.533  11.345
  156SBC   C058 9431  12.697   5.858   5.220
  156SBC   C05A 9432  12.742   5.727   5.210
  156SBC   C06Q 9433  12.833   5.693   5.105
  156SBC   C06R 9434  12.875   5.557   5.089
  156SBC   C06S 9435  12.826   5.457   5.178
  156SBC   C06T 9436  12.883   5.325   5.159
  156SBC   C06U 9437  12.864   5.200   5.236
  156SBC   C06X 9438  12.803   5.173   5.358
  156SBC   C060 9439  12.832   5.040   5.403
  156SBC   C05Z 9440  12.751   4.943   5.473
  156SBC   C068 9441  12.781   4.813   5.401
  156SBC   C067 9442  12.724   4.681   5.427
  156SBC   C069 9443  12.665   4.659   5.559
  156SBC   C06A 9444  12.621   4.534   5.618
  156SBC   C073 9445  12.534   4.443   5.552
  156SBC   C07P 9446  12.413   4.407   5.620
  156SBC   C07O 9447  12.335   4.486   5.710
  156SBC   H00D 9448  12.360   4.586   5.739
  156SBC   C07N 9449  12.226   4.434   5.771
  156SBC   H00E 9450  12.175   4.504   5.837
  156SBC   C07M 9451  12.179   4.309   5.743
  156SBC   H00F 9452  12.086   4.275   5.786
  156SBC   C07L 9453  12.254   4.226   5.657
  156SBC   C07Q 9454  12.226   4.091   5.650
  156SBC   H00G 9455  12.150   4.046   5.713
  156SBC   O00F 9456  12.299   3.999   5.579
  156SBC   C07J 9457  12.396   4.052   5.493
  156SBC   C07I 9458  12.430   4.187   5.506
  156SBC   N004 9459  12.531   4.245   5.420
  156SBC   C07R 9460  12.559   4.168   5.303
  156SBC   C07T 9461  12.528   4.031   5.300
  156SBC   C0FX 9462  12.570   3.955   5.191
  156SBC   C0FW 9463  12.568   3.820   5.179
  156SBC   C0G0 9464  12.501   3.751   5.287
  156SBC   C0G2 9465  12.505   3.609   5.288
  156SBC   H01E 9466  12.453   3.551   5.362
  156SBC   C0G3 9467  12.562   3.542   5.176
  156SBC   H01C 9468  12.566   3.434   5.168
  156SBC   C0G4 9469  12.626   3.611   5.072
  156SBC   H01D 9470  12.657   3.548   4.990
  156SBC   O00E 9471  12.449   3.827   5.396
  156SBC   C0FV 9472  12.629   3.753   5.067
  156SBC   C0FU 9473  12.698   3.830   4.968
  156SBC   H01B 9474  12.763   3.767   4.909
  156SBC   C0FT 9475  12.694   3.973   4.978
  156SBC   C0FS 9476  12.753   4.086   4.912
  156SBC   C0BI 9477  12.677   4.199   4.948
  156SBC   C0BH 9478  12.742   4.315   4.915
  156SBC   C07F 9479  12.784   4.414   5.008
  156SBC   C07E 9480  12.756   4.439   5.142
  156SBC   C07G 9481  12.679   4.366   5.224
  156SBC   C074 9482  12.672   4.434   5.349
  156SBC   C065 9483  12.794   4.559   5.203
  156SBC   C064 9484  12.878   4.643   5.124
  156SBC   C063 9485  12.921   4.773   5.162
  156SBC   C075 9486  13.003   4.812   5.041
  156SBC   C0AM 9487  13.008   4.715   4.932
  156SBC   C0AN 9488  13.073   4.717   4.796
  156SBC   C0AO 9489  13.140   4.833   4.721
  156SBC   C0B1 9490  13.205   4.816   4.592
  156SBC   C0B0 9491  13.201   4.695   4.526
  156SBC   C0AZ 9492  13.256   4.668   4.404
  156SBC   C0AY 9493  13.245   4.541   4.344
  156SBC   N007 9494  13.300   4.513   4.222
  156SBC   C0E2 9495  13.283   4.386   4.167
  156SBC   C0E1 9496  13.340   4.362   4.045
  156SBC   C0E4 9497  13.324   4.239   3.983
  156SBC   C0FF 9498  13.399   4.198   3.870
  156SBC   C0FJ 9499  13.398   4.088   3.777
  156SBC   C0FK 9500  13.296   3.993   3.752
  156SBC   H016 9501  13.209   3.967   3.811
  156SBC   C0FL 9502  13.318   3.939   3.613
  156SBC   H017 9503  13.265   3.869   3.550
  156SBC   C0FM 9504  13.437   4.008   3.564
  156SBC   C0FH 9505  13.529   4.045   3.454
  156SBC   C0FI 9506  13.619   4.131   3.523
  156SBC   C0F3 9507  13.674   4.236   3.452
  156SBC   C0F2 9508  13.699   4.344   3.527
  156SBC   C0DW 9509  13.652   4.371   3.653
  156SBC   C0FE 9510  13.584   4.277   3.717
  156SBC   C0DV 9511  13.662   4.492   3.712
  156SBC   C0DX 9512  13.584   4.522   3.823
  156SBC   C0DK 9513  13.594   4.653   3.869
  156SBC   C0DJ 9514  13.662   4.757   3.803
  156SBC   C0DI 9515  13.656   4.890   3.849
  156SBC   C0DH 9516  13.595   4.916   3.971
  156SBC   C0DG 9517  13.527   4.813   4.035
  156SBC   C0BV 9518  13.452   4.840   4.148
  156SBC   C0BC 9519  13.379   4.740   4.211
  156SBC   C0BA 9520  13.453   4.970   4.199
  156SBC   C0B4 9521  13.390   4.996   4.318
  156SBC   C0B3 9522  13.329   4.894   4.395
  156SBC   C0B5 9523  13.389   5.124   4.364
  156SBC   C0BU 9524  13.443   5.232   4.290
  156SBC   C0BT 9525  13.520   5.207   4.177
  156SBC   C0BS 9526  13.577   5.314   4.100
  156SBC   C0CC 9527  13.627   5.283   3.975
  156SBC   C0CB 9528  13.677   5.384   3.894
  156SBC   C0CH 9529  13.669   5.353   3.757
  156SBC   C0DO 9530  13.689   5.221   3.715
  156SBC   C0DP 9531  13.720   5.193   3.579
  156SBC   C0EA 9532  13.717   5.299   3.480
  156SBC   H012 9533  13.696   5.403   3.499
  156SBC   O009 9534  13.754   5.269   3.355
  156SBC   C0EH 9535  13.803   5.151   3.331
  156SBC   C0EG 9536  13.858   5.143   3.204
  156SBC   C0EJ 9537  13.886   5.230   3.093
  156SBC   H010 9538  13.878   5.338   3.101
  156SBC   C0EK 9539  13.934   5.152   2.978
  156SBC   H00Z 9540  13.964   5.181   2.878
  156SBC   C0EL 9541  13.933   5.020   3.026
  156SBC   C0EM 9542  13.934   4.899   2.949
  156SBC   C0EW 9543  13.960   4.880   2.808
  156SBC   H013 9544  13.989   4.958   2.739
  156SBC   C0EX 9545  13.949   4.750   2.744
  156SBC   H014 9546  13.970   4.741   2.639
  156SBC   C0F1 9547  13.906   4.635   2.826
  156SBC   C0EU 9548  13.881   4.655   2.965
  156SBC   C0ET 9549  13.839   4.560   3.060
  156SBC   C0ES 9550  13.834   4.636   3.181
  156SBC   C0EE 9551  13.862   4.771   3.158
  156SBC   C0ED 9552  13.862   4.895   3.231
  156SBC   C0EC 9553  13.817   4.906   3.366
  156SBC   C0EB 9554  13.802   4.805   3.462
  156SBC   C0EN 9555  13.815   4.663   3.422
  156SBC   C0ER 9556  13.775   4.574   3.523
  156SBC   C0DS 9557  13.754   4.829   3.590
  156SBC   C0DR 9558  13.737   4.963   3.631
  156SBC   C0EY 9559  13.837   4.581   3.302
  156SBC   C0EZ 9560  13.791   4.446   3.323
  156SBC   C0F5 9561  13.750   4.330   3.243
  156SBC   C0F6 9562  13.774   4.319   3.104
  156SBC   N008 9563  13.738   4.190   3.046
  156SBC   C0F7 9564  13.675   4.084   3.123
  156SBC   C0FQ 9565  13.645   3.966   3.049
  156SBC   H018 9566  13.607   3.877   3.098
  156SBC   C0FP 9567  13.670   3.948   2.913
  156SBC   H019 9568  13.652   3.855   2.863
  156SBC   C0FO 9569  13.742   4.045   2.843
  156SBC   H01A 9570  13.769   4.023   2.740
  156SBC   C0F8 9571  13.643   4.114   3.253
  156SBC   C0F9 9572  13.776   4.165   2.912
  156SBC   C0FA 9573  13.838   4.268   2.832
  156SBC   H015 9574  13.860   4.245   2.728
  156SBC   C0FB 9575  13.852   4.400   2.879
  156SBC   C0FD 9576  13.816   4.424   3.016
  156SBC   C0FC 9577  13.891   4.498   2.782
  156SBC   O00A 9578  13.906   4.470   2.662
  156SBC   C0EV 9579  13.898   4.783   3.024
  156SBC   C0EF 9580  13.893   5.018   3.160
  156SBC   C0EI 9581  13.788   5.034   3.412
  156SBC   C0DQ 9582  13.749   5.064   3.539
  156SBC   C0CE 9583  13.688   5.118   3.808
  156SBC   H00U 9584  13.662   5.434   3.685
  156SBC   C0CA 9585  13.718   5.513   3.949
  156SBC   C0C9 9586  13.656   5.548   4.069
  156SBC   C0C8 9587  13.683   5.684   4.114
  156SBC   C0C7 9588  13.617   5.777   4.205
  156SBC   C0C6 9589  13.676   5.902   4.231
  156SBC   C0C5 9590  13.624   6.034   4.259
  156SBC   C0CQ 9591  13.682   6.139   4.188
  156SBC   C0D1 9592  13.773   6.120   4.083
  156SBC   C0D8 9593  13.750   6.213   3.987
  156SBC   C0D7 9594  13.683   6.322   4.052
  156SBC   C0D6 9595  13.639   6.443   3.990
  156SBC   C0D5 9596  13.576   6.548   4.062
  156SBC   C0D4 9597  13.529   6.551   4.199
  156SBC   C0D3 9598  13.420   6.646   4.203
  156SBC   C0CX 9599  13.329   6.611   4.308
  156SBC   C0CW 9600  13.349   6.470   4.343
  156SBC   C0CV 9601  13.283   6.366   4.424
  156SBC   C0D2 9602  13.172   6.392   4.506
  156SBC   C09D 9603  13.094   6.511   4.501
  156SBC   C09C 9604  12.977   6.532   4.582
  156SBC   C09B 9605  12.889   6.641   4.594
  156SBC   C09A 9606  12.933   6.753   4.522
  156SBC   C099 9607  13.032   6.748   4.432
  156SBC   C098 9608  13.074   6.879   4.403
  156SBC   C08Y 9609  13.007   6.965   4.500
  156SBC   C08X 9610  13.048   7.095   4.537
  156SBC   C08W 9611  13.156   7.165   4.469
  156SBC   C08U 9612  13.251   7.113   4.367
  156SBC   C08V 9613  13.290   6.977   4.329
  156SBC   C0DC 9614  13.369   6.994   4.206
  156SBC   H00W 9615  13.392   6.920   4.130
  156SBC   C0DB 9616  13.375   7.133   4.176
  156SBC   H00X 9617  13.420   7.174   4.086
  156SBC   C08T 9618  13.315   7.203   4.286
  156SBC   C08S 9619  13.321   7.340   4.304
  156SBC   H00N 9620  13.374   7.398   4.231
  156SBC   C08R 9621  13.263   7.387   4.421
  156SBC   C08Q 9622  13.280   7.519   4.463
  156SBC   H00O 9623  13.345   7.583   4.406
  156SBC   C08P 9624  13.222   7.580   4.576
  156SBC   C08O 9625  13.248   7.715   4.624
  156SBC   H00P 9626  13.315   7.779   4.569
  156SBC   C08N 9627  13.194   7.760   4.752
  156SBC   C08M 9628  13.236   7.889   4.805
  156SBC   O008 9629  13.322   7.967   4.767
  156SBC   O007 9630  13.185   7.921   4.930
  156SBC   C08H 9631  13.117   7.833   5.015
  156SBC   C08G 9632  13.101   7.852   5.156
  156SBC   C03V 9633  13.158   7.946   5.247
  156SBC   H009 9634  13.215   8.027   5.204
  156SBC   C03U 9635  13.144   7.941   5.389
  156SBC   C03W 9636  13.195   8.031   5.480
  156SBC   H00A 9637  13.260   8.113   5.452
  156SBC   C03X 9638  13.177   8.011   5.612
  156SBC   H00B 9639  13.217   8.079   5.685
  156SBC   O005 9640  13.092   7.920   5.667
  156SBC   C03O 9641  13.042   7.831   5.583
  156SBC   C03N 9642  12.953   7.743   5.633
  156SBC   O000 9643  12.937   7.750   5.772
  156SBC   C019 9644  12.841   7.677   5.831
  156SBC   C018 9645  12.770   7.582   5.751
  156SBC   C017 9646  12.804   7.563   5.617
  156SBC   C016 9647  12.740   7.464   5.541
  156SBC   C015 9648  12.643   7.389   5.608
  156SBC   C014 9649  12.577   7.287   5.538
  156SBC   C013 9650  12.613   7.250   5.410
  156SBC   C012 9651  12.542   7.125   5.388
  156SBC   C011 9652  12.461   7.111   5.501
  156SBC   C010 9653  12.362   7.019   5.502
  156SBC   C00Z 9654  12.295   6.981   5.619
  156SBC   C00Y 9655  12.259   6.847   5.588
  156SBC   C01O 9656  12.293   6.806   5.459
  156SBC   C01P 9657  12.337   6.675   5.434
  156SBC   C02L 9658  12.418   6.654   5.323
  156SBC   C02K 9659  12.473   6.773   5.261
  156SBC   C01M 9660  12.466   6.903   5.315
  156SBC   C02J 9661  12.532   6.739   5.136
  156SBC   C02I 9662  12.572   6.832   5.045
  156SBC   C02H 9663  12.606   6.966   5.056
  156SBC   C01Q 9664  12.602   7.050   5.167
  156SBC   C02G 9665  12.672   7.166   5.136
  156SBC   C089 9666  12.687   7.165   4.998
  156SBC   C088 9667  12.792   7.253   4.958
  156SBC   C087 9668  12.817   7.325   5.090
  156SBC   C086 9669  12.882   7.450   5.093
  156SBC   C03S 9670  12.897   7.539   5.208
  156SBC   N006 9671  12.969   7.651   5.159
  156SBC   C08F 9672  12.999   7.632   5.030
  156SBC   C01J 9673  12.863   7.541   5.340
  156SBC   C03R 9674  12.917   7.644   5.417
  156SBC   C03Q 9675  12.996   7.747   5.360
  156SBC   C08E 9676  12.958   7.511   4.984
  156SBC   C08D 9677  13.004   7.455   4.861
  156SBC   C08K 9678  13.092   7.538   4.782
  156SBC   C08C 9679  12.969   7.333   4.798
  156SBC   C091 9680  13.030   7.290   4.681
  156SBC   C092 9681  13.121   7.365   4.611
  156SBC   C08B 9682  12.872   7.238   4.840
  156SBC   C090 9683  12.876   7.134   4.735
  156SBC   C094 9684  12.779   7.025   4.723
  156SBC   C095 9685  12.802   6.910   4.656
  156SBC   C09R 9686  12.740   6.799   4.708
  156SBC   C097 9687  12.671   6.837   4.822
  156SBC   C096 9688  12.704   6.974   4.835
  156SBC   C01I 9689  12.727   7.284   5.198
  156SBC   C08A 9690  12.664   7.038   4.952
  156SBC   C09L 9691  12.610   6.766   4.931
  156SBC   C09K 9692  12.591   6.623   4.950
  156SBC   C09J 9693  12.656   6.526   4.872
  156SBC   C09I 9694  12.689   6.394   4.922
  156SBC   C09O 9695  12.658   6.308   5.038
  156SBC   C09N 9696  12.583   6.357   5.150
  156SBC   C09M 9697  12.531   6.489   5.174
  156SBC   C06O 9698  12.552   6.259   5.252
  156SBC   C05M 9699  12.603   6.130   5.241
  156SBC   C06P 9700  12.690   6.087   5.135
  156SBC   C042 9701  12.578   6.031   5.340
  156SBC   C041 9702  12.500   6.070   5.450
  156SBC   C040 9703  12.461   5.970   5.544
  156SBC   C03Z 9704  12.390   5.998   5.662
  156SBC   C03Y 9705  12.348   6.132   5.675
  156SBC   C027 9706  12.282   6.167   5.792
  156SBC   C026 9707  12.239   6.291   5.811
  156SBC   C028 9708  12.172   6.326   5.930
  156SBC   C029 9709  12.153   6.233   6.026
  156SBC   C02B 9710  12.097   6.266   6.148
  156SBC   C02C 9711  12.074   6.168   6.242
  156SBC   C02X 9712  12.017   6.213   6.362
  156SBC   C03E 9713  11.995   6.116   6.454
  156SBC   C03G 9714  12.032   5.980   6.446
  156SBC   C04Q 9715  12.089   5.942   6.325
  156SBC   C04R 9716  12.143   5.819   6.308
  156SBC   C04S 9717  12.205   5.781   6.190
  156SBC   C04L 9718  12.217   5.872   6.091
  156SBC   C04M 9719  12.173   6.002   6.106
  156SBC   C04K 9720  12.280   5.841   5.973
  156SBC   C04F 9721  12.337   5.715   5.960
  156SBC   C04E 9722  12.324   5.621   6.058
  156SBC   C04D 9723  12.372   5.494   6.041
  156SBC   C050 9724  12.360   5.401   6.140
  156SBC   C051 9725  12.405   5.270   6.123
  156SBC   C05Q 9726  12.402   5.179   6.223
  156SBC   C05V 9727  12.439   5.045   6.202
  156SBC   N005 9728  12.407   4.953   6.303
  156SBC   C07V 9729  12.355   4.991   6.422
  156SBC   C082 9730  12.338   4.894   6.521
  156SBC   C081 9731  12.349   4.759   6.503
  156SBC   C07C 9732  12.382   4.718   6.373
  156SBC   C07B 9733  12.394   4.583   6.339
  156SBC   C080 9734  12.340   4.488   6.432
  156SBC   C07Z 9735  12.332   4.355   6.381
  156SBC   H00L 9736  12.298   4.284   6.454
  156SBC   C079 9737  12.377   4.310   6.258
  156SBC   C078 9738  12.436   4.408   6.177
  156SBC   C077 9739  12.502   4.376   6.059
  156SBC   C07X 9740  12.477   4.241   6.005
  156SBC   H00I 9741  12.495   4.197   5.908
  156SBC   C07Y 9742  12.409   4.143   6.074
  156SBC   H00H 9743  12.391   4.048   6.025
  156SBC   C076 9744  12.555   4.472   5.975
  156SBC   C06C 9745  12.599   4.434   5.848
  156SBC   H00C 9746  12.592   4.336   5.802
  156SBC   C06F 9747  12.547   4.605   6.010
  156SBC   C06E 9748  12.588   4.705   5.916
  156SBC   C06G 9749  12.565   4.835   5.931
  156SBC   C06H 9750  12.513   4.876   6.058
  156SBC   C06I 9751  12.476   4.780   6.157
  156SBC   C06L 9752  12.592   4.924   5.826
  156SBC   C06M 9753  12.640   4.883   5.692
  156SBC   C06K 9754  12.562   5.058   5.852
  156SBC   C05S 9755  12.509   5.099   5.978
  156SBC   C05U 9756  12.573   5.149   5.749
  156SBC   C05X 9757  12.631   5.113   5.623
  156SBC   C05G 9758  12.638   5.224   5.530
  156SBC   C05F 9759  12.571   5.343   5.554
  156SBC   C05E 9760  12.593   5.443   5.458
  156SBC   C048 9761  12.561   5.573   5.480
  156SBC   C056 9762  12.606   5.666   5.392
  156SBC   C045 9763  12.571   5.799   5.411
  156SBC   C047 9764  12.501   5.604   5.595
  156SBC   C049 9765  12.479   5.510   5.694
  156SBC   C04B 9766  12.434   5.546   5.819
  156SBC   C046 9767  12.467   5.737   5.616
  156SBC   C04H 9768  12.405   5.770   5.737
  156SBC   C05D 9769  12.681   5.392   5.369
  156SBC   C04A 9770  12.522   5.381   5.678
  156SBC   C05T 9771  12.516   5.277   5.773
  156SBC   C055 9772  12.467   5.321   5.894
  156SBC   C06D 9773  12.631   4.667   5.789
  156SBC   C07W 9774  12.488   4.642   6.133
  156SBC   C085 9775  12.366   4.179   6.207
  156SBC   H00M 9776  12.327   4.099   6.268
  156SBC   C084 9777  12.301   4.532   6.560
  156SBC   H00J 9778  12.254   4.468   6.634
  156SBC   C07A 9779  12.441   4.548   6.217
  156SBC   C083 9780  12.307   4.666   6.597
  156SBC   H00K 9781  12.277   4.686   6.699
  156SBC   O00K 9782  12.323   4.936   6.652
  156SBC   C0GO 9783  12.296   5.074   6.676
  156SBC   C0GN 9784  12.272   5.123   6.807
  156SBC   H01L 9785  12.269   5.057   6.892
  156SBC   C0GM 9786  12.256   5.265   6.832
  156SBC   C0GL 9787  12.249   5.310   6.958
  156SBC   H01M 9788  12.281   5.248   7.041
  156SBC   O00J 9789  12.212   5.441   6.988
  156SBC   C0GK 9790  12.185   5.518   6.880
  156SBC   H01N 9791  12.148   5.618   6.901
  156SBC   C05K 9792  12.184   5.470   6.749
  156SBC   C05J 9793  12.144   5.554   6.643
  156SBC   C04Y 9794  12.077   5.679   6.649
  156SBC   C04X 9795  12.077   5.766   6.538
  156SBC   O006 9796  12.020   5.722   6.768
  156SBC   C053 9797  12.001   5.851   6.798
  156SBC   C04O 9798  11.993   5.946   6.689
  156SBC   C03C 9799  11.953   6.083   6.693
  156SBC   C03B 9800  11.939   6.176   6.802
  156SBC   C054 9801  11.953   6.143   6.938
  156SBC   C0GR 9802  11.941   6.240   7.045
  156SBC   C03M 9803  11.957   6.386   7.057
  156SBC   C03I 9804  11.966   6.471   6.942
  156SBC   C03J 9805  11.980   6.612   6.974
  156SBC   N002 9806  12.012   6.710   6.877
  156SBC   C02U 9807  12.038   6.845   6.902
  156SBC   C02T 9808  12.074   6.938   6.804
  156SBC   C02Z 9809  12.114   7.066   6.841
  156SBC   N001 9810  12.162   7.162   6.746
  156SBC   C02R 9811  12.188   7.297   6.782
  156SBC   C032 9812  12.177   7.336   6.913
  156SBC   C031 9813  12.131   7.239   7.005
  156SBC   H007 9814  12.128   7.267   7.109
  156SBC   C033 9815  12.222   7.471   6.940
  156SBC   H003 9816  12.211   7.509   7.041
  156SBC   O004 9817  12.271   7.554   6.844
  156SBC   C034 9818  12.273   7.515   6.716
  156SBC   C035 9819  12.324   7.613   6.628
  156SBC   C036 9820  12.331   7.569   6.494
  156SBC   H005 9821  12.367   7.640   6.420
  156SBC   C037 9822  12.277   7.446   6.453
  156SBC   H006 9823  12.273   7.428   6.346
  156SBC   C00D 9824  12.239   7.349   6.549
  156SBC   C00C 9825  12.207   7.221   6.510
  156SBC   C00B 9826  12.226   7.171   6.370
  156SBC   C00A 9827  12.255   7.217   6.227
  156SBC   C009 9828  12.207   7.112   6.145
  156SBC   C008 9829  12.246   7.077   6.011
  156SBC   C007 9830  12.317   7.167   5.938
  156SBC   C006 9831  12.349   7.137   5.808
  156SBC   C005 9832  12.442   7.218   5.743
  156SBC   C004 9833  12.504   7.328   5.807
  156SBC   C003 9834  12.482   7.346   5.948
  156SBC   C002 9835  12.562   7.433   6.018
  156SBC   C01C 9836  12.656   7.517   5.950
  156SBC   C01B 9837  12.722   7.619   6.027
  156SBC   H000 9838  12.700   7.639   6.130
  156SBC   C001 9839  12.560   7.428   6.157
  156SBC   C000 9840  12.466   7.340   6.222
  156SBC   C01U 9841  12.518   7.324   6.353
  156SBC   H002 9842  12.483   7.270   6.440
  156SBC   C01T 9843  12.644   7.411   6.370
  156SBC   O002 9844  12.714   7.434   6.468
  156SBC   O001 9845  12.660   7.464   6.248
  156SBC   C01S 9846  12.383   7.267   6.011
  156SBC   C00N 9847  12.207   6.952   5.971
  156SBC   C00M 9848  12.149   6.855   6.056
  156SBC   C00J 9849  12.115   6.886   6.185
  156SBC   C00I 9850  12.077   6.795   6.280
  156SBC   C00H 9851  12.073   6.829   6.412
  156SBC   C00G 9852  12.117   6.958   6.454
  156SBC   C00F 9853  12.131   6.995   6.584
  156SBC   C01X 9854  12.045   6.735   6.508
  156SBC   C01W 9855  12.018   6.608   6.476
  156SBC   C01V 9856  12.039   6.573   6.339
  156SBC   C020 9857  12.038   6.443   6.299
  156SBC   C01Z 9858  11.990   6.516   6.569
  156SBC   C02Y 9859  11.972   6.390   6.527
  156SBC   C039 9860  11.948   6.291   6.619
  156SBC   C02W 9861  11.986   6.546   6.705
  156SBC   C01Y 9862  12.054   6.770   6.643
  156SBC   C00U 9863  12.068   6.666   6.241
  156SBC   C00S 9864  12.090   6.633   6.112
  156SBC   C00T 9865  12.100   6.499   6.081
  156SBC   C00R 9866  12.129   6.730   6.016
  156SBC   C00Q 9867  12.163   6.689   5.888
  156SBC   C00V 9868  12.164   6.556   5.860
  156SBC   C024 9869  12.226   6.519   5.737
  156SBC   C00X 9870  12.256   6.615   5.647
  156SBC   C00P 9871  12.206   6.787   5.805
  156SBC   C00O 9872  12.225   6.921   5.841
  156SBC   C00K 9873  12.150   7.010   6.229
  156SBC   N000 9874  12.368   7.269   6.156
  156SBC   C00L 9875  12.164   7.046   6.356
  156SBC   H004 9876  12.375   7.702   6.662
  156SBC   C02Q 9877  12.239   7.382   6.681
  156SBC   C00E 9878  12.170   7.125   6.610
  156SBC   C030 9879  12.098   7.109   6.974
  156SBC   O003 9880  12.061   7.015   7.071
  156SBC   C02S 9881  12.087   6.904   6.677
  156SBC   C038 9882  12.024   6.890   7.032
  156SBC   C03L 9883  11.988   6.801   7.132
  156SBC   H008 9884  11.977   6.829   7.236
  156SBC   C02V 9885  12.021   6.673   6.739
  156SBC   C03K 9886  11.978   6.663   7.106
  156SBC   C0BK 9887  11.956   6.573   7.206
  156SBC   H00T 9888  11.945   6.615   7.305
  156SBC   C03H 9889  11.962   6.446   6.803
  156SBC   C0BL 9890  11.955   6.435   7.194
  156SBC   C0GU 9891  11.947   6.341   7.300
  156SBC   H01O 9892  11.956   6.378   7.401
  156SBC   C0GT 9893  11.938   6.207   7.292
  156SBC   H01P 9894  11.938   6.133   7.370
  156SBC   C0GS 9895  11.939   6.163   7.163
  156SBC   C0GV 9896  11.937   6.021   7.129
  156SBC   C0GW 9897  11.924   5.906   7.212
  156SBC   H01Q 9898  11.892   5.920   7.315
  156SBC   C0GX 9899  11.921   5.786   7.145
  156SBC   H01R 9900  11.919   5.689   7.191
  156SBC   O00L 9901  11.950   5.770   7.013
  156SBC   C0GQ 9902  11.958   6.012   6.991
  156SBC   C03A 9903  11.941   6.310   6.753
  156SBC   C05L 9904  11.971   5.880   6.933
  156SBC   C04W 9905  12.192   5.516   6.513
  156SBC   C05I 9906  12.245   5.387   6.494
  156SBC   C05O 9907  12.255   5.294   6.594
  156SBC   C052 9908  12.289   5.344   6.364
  156SBC   C04V 9909  12.188   5.596   6.399
  156SBC   C04U 9910  12.243   5.560   6.277
  156SBC   N009 9911  12.231   5.342   6.725
  156SBC   C0GP 9912  12.298   5.168   6.573
  156SBC   C05W 9913  12.331   5.124   6.446
  156SBC   C07D 9914  12.419   4.816   6.276
  156SBC   C06J 9915  12.489   5.009   6.082
  156SBC   C05P 9916  12.345   5.217   6.342
  156SBC   C05R 9917  12.463   5.230   6.000
  156SBC   C04Z 9918  12.293   5.432   6.258
  156SBC   C04C 9919  12.426   5.452   5.918
  156SBC   C04G 9920  12.389   5.675   5.835
  156SBC   C04J 9921  12.297   5.934   5.874
  156SBC   C04T 9922  12.261   5.654   6.176
  156SBC   N003 9923  12.133   5.724   6.412
  156SBC   C04P 9924  12.035   5.901   6.557
  156SBC   C03D 9925  11.948   6.154   6.578
  156SBC   C021 9926  12.007   6.347   6.397
  156SBC   C03F 9927  12.107   6.037   6.225
  156SBC   C022 9928  12.077   6.402   6.181
  156SBC   C02A 9929  12.189   6.102   6.005
  156SBC   C023 9930  12.139   6.458   5.955
  156SBC   C025 9931  12.262   6.387   5.713
  156SBC   C02D 9932  12.339   6.355   5.598
  156SBC   C02E 9933  12.363   6.454   5.502
  156SBC   C02N 9934  12.435   6.427   5.385
  156SBC   C04N 9935  12.251   6.066   5.886
  156SBC   C02P 9936  12.382   6.226   5.576
  156SBC   C04I 9937  12.363   5.901   5.758
  156SBC   C044 9938  12.496   5.835   5.522
  156SBC   C043 9939  12.459   6.198   5.463
  156SBC   C05N 9940  12.480   6.293   5.366
  156SBC   C09U 9941  12.716   6.180   5.035
  156SBC   C09V 9942  12.825   6.142   4.946
  156SBC   C09X 9943  12.863   6.227   4.850
  156SBC   C09Y 9944  12.972   6.210   4.765
  156SBC   C0A1 9945  13.036   6.088   4.770
  156SBC   C0A2 9946  12.987   5.993   4.863
  156SBC   C0A4 9947  13.040   5.867   4.854
  156SBC   C071 9948  12.980   5.763   4.932
  156SBC   C0A5 9949  13.015   5.634   4.910
  156SBC   C0A9 9950  13.111   5.600   4.817
  156SBC   C0A8 9951  13.177   5.708   4.750
  156SBC   C0AP 9952  13.271   5.677   4.657
  156SBC   C0BY 9953  13.316   5.777   4.578
  156SBC   C0BX 9954  13.285   5.910   4.587
  156SBC   C0C2 9955  13.339   6.011   4.495
  156SBC   C0C3 9956  13.296   6.137   4.506
  156SBC   C0CT 9957  13.193   6.167   4.600
  156SBC   C0C1 9958  13.433   5.976   4.399
  156SBC   C0C0 9959  13.445   5.833   4.374
  156SBC   C0A7 9960  13.190   5.941   4.679
  156SBC   C0BZ 9961  13.399   5.746   4.474
  156SBC   C0BO 9962  13.419   5.612   4.438
  156SBC   C0BN 9963  13.363   5.508   4.509
  156SBC   C0BM 9964  13.378   5.382   4.460
  156SBC   C0B9 9965  13.324   5.277   4.531
  156SBC   C0B8 9966  13.266   5.306   4.654
  156SBC   C0AD 9967  13.245   5.438   4.697
  156SBC   C0AF 9968  13.211   5.201   4.728
  156SBC   C0AG 9969  13.215   5.068   4.693
  156SBC   C0B7 9970  13.274   5.046   4.568
  156SBC   C0AE 9971  13.137   5.243   4.835
  156SBC   C0AB 9972  13.094   5.369   4.863
  156SBC   C0AA 9973  13.001   5.400   4.963
  156SBC   C0AJ 9974  13.084   5.140   4.913
  156SBC   C0AK 9975  12.997   5.169   5.019
  156SBC   C06W 9976  12.985   5.057   5.085
  156SBC   C0AI 9977  13.094   5.002   4.894
  156SBC   C0BP 9978  13.480   5.604   4.308
  156SBC   C0BQ 9979  13.502   5.465   4.264
  156SBC   C0BW 9980  13.298   5.545   4.627
  156SBC   C0AC 9981  13.153   5.471   4.798
  156SBC   C0A6 9982  13.139   5.839   4.764
  156SBC   C0A3 9983  13.140   6.066   4.685
  156SBC   C09Z 9984  13.016   6.307   4.672
  156SBC   C09W 9985  12.886   6.019   4.953
  156SBC   C072 9986  12.839   5.925   5.035
  156SBC   C09H 9987  12.775   6.333   4.826
  156SBC   C09G 9988  12.818   6.429   4.732
  156SBC   C09P 9989  12.740   6.546   4.755
  156SBC   C02O 9990  12.549   6.605   5.086
  156SBC   C02M 9991  12.463   6.525   5.288
  156SBC   C02F 9992  12.312   6.580   5.530
  156SBC   C00W 9993  12.232   6.749   5.684
  156SBC   C01R 9994  12.292   7.020   5.761
  156SBC   C01N 9995  12.367   6.910   5.416
  156SBC   C01L 9996  12.536   7.024   5.281
  156SBC   C01H 9997  12.707   7.330   5.334
  156SBC   C01K 9998  12.488   7.201   5.604
  156SBC   C01E 9999  12.606   7.404   5.746
  156SBC   C01G10000  12.767   7.451   5.399
  156SBC   C01D10001  12.677   7.501   5.815
  156SBC   C01A10002  12.823   7.696   5.969
  156SBC   H00110003  12.868   7.770   6.033
  156SBC   C01F10004  12.896   7.646   5.554
  156SBC   C03P10005  13.062   7.838   5.440
  156SBC   C03T10006  13.023   7.756   5.226
  156SBC   C08I10007  13.078   7.714   4.954
  156SBC   C08J10008  13.121   7.671   4.829
  156SBC   C08L10009  13.144   7.496   4.657
  156SBC   C09310010  13.181   7.304   4.497
  156SBC   C08Z10011  12.982   7.165   4.642
  156SBC   C09T10012  13.210   6.856   4.363
  156SBC   C09S10013  12.909   6.886   4.559
  156SBC   C09Q10014  12.782   6.662   4.683
  156SBC   C09F10015  12.943   6.420   4.657
  156SBC   C09E10016  13.121   6.638   4.432
  156SBC   C0A010017  13.130   6.290   4.589
  156SBC   C0CU10018  13.345   6.237   4.421
  156SBC   C0CR10019  13.459   6.208   4.334
  156SBC   C0CZ10020  13.518   6.308   4.256
  156SBC   C0DA10021  13.232   6.702   4.368
  156SBC   C0D910022  13.391   6.675   4.059
  156SBC   H00V10023  13.300   6.723   4.028
  156SBC   C0CY10024  13.470   6.439   4.268
  156SBC   C0DF10025  13.497   6.626   3.973
  156SBC   C0DE10026  13.543   6.595   3.839
  156SBC   C0GI10027  13.534   6.661   3.709
  156SBC   H01K10028  13.482   6.755   3.702
  156SBC   C0GJ10029  13.597   6.600   3.607
  156SBC   H01J10030  13.605   6.645   3.509
  156SBC   O00I10031  13.669   6.481   3.616
  156SBC   C0GH10032  13.685   6.412   3.738
  156SBC   C0GG10033  13.754   6.284   3.735
  156SBC   O00G10034  13.808   6.249   3.613
  156SBC   C0G810035  13.843   6.128   3.584
  156SBC   C0G910036  13.860   6.103   3.444
  156SBC   H01G10037  13.852   6.183   3.372
  156SBC   C0GA10038  13.887   5.974   3.399
  156SBC   H01H10039  13.902   5.959   3.294
  156SBC   C0GB10040  13.908   5.870   3.487
  156SBC   C0EP10041  13.881   5.892   3.628
  156SBC   C0E810042  13.862   5.770   3.707
  156SBC   C0CK10043  13.807   5.729   3.824
  156SBC   C0CL10044  13.802   5.816   3.930
  156SBC   C0E910045  13.810   5.961   3.918
  156SBC   C0GE10046  13.810   6.059   3.809
  156SBC   C0E710047  13.917   5.649   3.667
  156SBC   C0CJ10048  13.892   5.542   3.753
  156SBC   C0E610049  13.945   5.418   3.728
  156SBC   H00Y10050  13.938   5.336   3.798
  156SBC   C0EO10051  13.995   5.407   3.596
  156SBC   H01110052  14.034   5.309   3.573
  156SBC   C0G610053  13.999   5.511   3.498
  156SBC   C0G510054  14.019   5.490   3.356
  156SBC   H01F10055  14.035   5.391   3.316
  156SBC   C0GD10056  13.998   5.593   3.271
  156SBC   H01I10057  14.003   5.572   3.165
  156SBC   O00H10058  13.988   5.723   3.314
  156SBC   C0EQ10059  13.962   5.641   3.539
  156SBC   C0GC10060  13.960   5.745   3.448
  156SBC   C0G710061  13.842   6.018   3.679
  156SBC   C0DD10062  13.623   6.474   3.851
  156SBC   C0GF10063  13.774   6.196   3.841
  156SBC   C0CO10064  13.805   5.996   4.052
  156SBC   C0D010065  13.619   6.263   4.159
  156SBC   C0C410066  13.501   6.067   4.328
  156SBC   C0CN10067  13.784   5.895   4.140
  156SBC   C0CP10068  13.508   5.738   4.277
  156SBC   C0CM10069  13.782   5.775   4.063
  156SBC   C0CI10070  13.802   5.588   3.856
  156SBC   C0CD10071  13.636   5.145   3.937
  156SBC   C0BR10072  13.577   5.446   4.143
  156SBC   C0CS10073  13.442   5.361   4.335
  156SBC   C0B610074  13.333   5.150   4.492
  156SBC   C0CG10075  13.524   5.072   4.137
  156SBC   C0CF10076  13.590   5.043   4.019
  156SBC   C0E510077  13.704   4.990   3.766
  156SBC   C0DT10078  13.727   4.729   3.687
  156SBC   C0DL10079  13.523   4.683   3.987
  156SBC   C0DM10080  13.440   4.584   4.046
  156SBC   C0DY10081  13.503   4.423   3.885
  156SBC   C0DU10082  13.723   4.601   3.647
  156SBC   C0F010083  13.766   4.449   3.462
  156SBC   C0F410084  13.694   4.228   3.318
  156SBC   C0FG10085  13.579   4.156   3.650
  156SBC   O00B10086  13.562   4.024   3.320
  156SBC   C0FN10087  13.484   4.068   3.679
  156SBC   C0DZ10088  13.500   4.296   3.827
  156SBC   O00C10089  13.230   4.151   4.039
  156SBC   C0FR10090  13.168   4.164   4.154
  156SBC   O00D10091  13.087   4.075   4.178
  156SBC   C0E010092  13.425   4.460   3.989
  156SBC   C0E310093  13.207   4.284   4.229
  156SBC   C0AW10094  13.155   4.311   4.356
  156SBC   C0AV10095  13.086   4.219   4.436
  156SBC   H00Q10096  13.065   4.117   4.407
  156SBC   C0AU10097  13.030   4.251   4.564
  156SBC   H00R10098  12.969   4.183   4.620
  156SBC   C0AT10099  13.055   4.381   4.614
  156SBC   C0AS10100  13.017   4.460   4.733
  156SBC   C0AR10101  12.950   4.400   4.839
  156SBC   C0BE10102  13.125   4.469   4.527
  156SBC   C0DN10103  13.372   4.614   4.160
  156SBC   C0AX10104  13.175   4.438   4.401
  156SBC   C0BB10105  13.326   4.766   4.336
  156SBC   C0BD10106  13.136   4.592   4.591
  156SBC   C0B210107  13.270   4.919   4.522
  156SBC   C0AH10108  13.154   4.965   4.770
  156SBC   C0BF10109  13.072   4.596   4.719
  156SBC   C0AL10110  13.041   4.943   5.012
  156SBC   C07U10111  12.930   4.607   4.992
  156SBC   C0AQ10112  12.889   4.481   4.939
  156SBC   C0BG10113  12.853   4.287   4.827
  156SBC   C0FY10114  12.622   4.166   5.074
  156SBC   C0BJ10115  12.875   4.141   4.845
  156SBC   H00S10116  12.968   4.091   4.822
  156SBC   C0FZ10117  12.625   4.031   5.084
  156SBC   C07S10118  12.618   4.239   5.197
  156SBC   C0G110119  12.459   3.964   5.397
  156SBC   C07K10120  12.364   4.271   5.592
  156SBC   C07H10121  12.580   4.378   5.442
  156SBC   C06B10122  12.631   4.530   5.760
  156SBC   C06N10123  12.653   4.745   5.679
  156SBC   C06610124  12.735   4.567   5.337
  156SBC   C06210125  12.871   4.846   5.285
  156SBC   C05Y10126  12.671   4.979   5.597
  156SBC   C06110127  12.915   4.980   5.306
  156SBC   C05H10128  12.700   5.255   5.407
  156SBC   C06V10129  12.919   5.075   5.201
  156SBC   C06Y10130  12.953   5.299   5.044
  156SBC   C05C10131  12.734   5.489   5.272
  156SBC   C06Z10132  12.960   5.529   4.985
  156SBC   C07010133  12.886   5.792   5.026
  156SBC   C05B10134  12.694   5.626   5.288
  156SBC   C05710135  12.615   5.896   5.324
  156SBC   C05910136  12.745   5.958   5.135
  157SBC   C05810137   9.100   3.849  14.298
  157SBC   C05A10138   9.016   3.765  14.220
  157SBC   C06Q10139   9.019   3.625  14.237
  157SBC   C06R10140   8.939   3.543  14.155
  157SBC   C06S10141   8.854   3.592  14.054
  157SBC   C06T10142   8.780   3.501  13.974
  157SBC   C06U10143   8.685   3.525  13.865
  157SBC   C06X10144   8.631   3.636  13.797
  157SBC   C06010145   8.527   3.606  13.703
  157SBC   C05Z10146   8.517   3.662  13.570
  157SBC   C06810147   8.490   3.543  13.485
  157SBC   C06710148   8.458   3.528  13.341
  157SBC   C06910149   8.444   3.646  13.261
  157SBC   C06A10150   8.425   3.644  13.115
  157SBC   C07310151   8.450   3.550  13.013
  157SBC   C07P10152   8.527   3.589  12.907
  157SBC   C07O10153   8.610   3.700  12.900
  157SBC   H00D10154   8.614   3.772  12.981
  157SBC   C07N10155   8.680   3.730  12.784
  157SBC   H00E10156   8.743   3.818  12.787
  157SBC   C07M10157   8.659   3.652  12.675
  157SBC   H00F10158   8.709   3.665  12.580
  157SBC   C07L10159   8.588   3.537  12.677
  157SBC   C07Q10160   8.582   3.444  12.567
  157SBC   H00G10161   8.634   3.472  12.477
  157SBC   O00F10162   8.499   3.335  12.566
  157SBC   C07J10163   8.435   3.309  12.678
  157SBC   C07I10164   8.448   3.390  12.792
  157SBC   N00410165   8.385   3.343  12.916
  157SBC   C07R10166   8.297   3.232  12.916
  157SBC   C07T10167   8.307   3.149  12.801
  157SBC   C0FX10168   8.255   3.022  12.795
  157SBC   C0FW10169   8.273   2.924  12.697
  157SBC   C0G010170   8.334   2.967  12.580
  157SBC   C0G210171   8.367   2.885  12.471
  157SBC   H01E10172   8.399   2.935  12.380
  157SBC   C0G310173   8.365   2.744  12.505
  157SBC   H01C10174   8.401   2.672  12.432
  157SBC   C0G410175   8.305   2.697  12.621
  157SBC   H01D10176   8.313   2.590  12.628
  157SBC   O00E10177   8.370   3.097  12.569
  157SBC   C0FV10178   8.262   2.783  12.722
  157SBC   C0FU10179   8.205   2.738  12.844
  157SBC   H01B10180   8.192   2.634  12.870
  157SBC   C0FT10181   8.170   2.838  12.939
  157SBC   C0FS10182   8.142   2.840  13.081
  157SBC   C0BI10183   8.117   2.974  13.124
  157SBC   C0BH10184   8.157   2.981  13.264
  157SBC   C07F10185   8.249   3.078  13.306
  157SBC   C07E10186   8.263   3.208  13.277
  157SBC   C07G10187   8.265   3.253  13.147
  157SBC   C07410188   8.338   3.373  13.153
  157SBC   C06510189   8.355   3.283  13.349
  157SBC   C06410190   8.433   3.218  13.443
  157SBC   C06310191   8.526   3.275  13.523
  157SBC   C07510192   8.592   3.169  13.595
  157SBC   C0AM10193   8.549   3.045  13.536
  157SBC   C0AN10194   8.614   2.915  13.554
  157SBC   C0AO10195   8.733   2.870  13.638
  157SBC   C0B110196   8.799   2.746  13.611
  157SBC   C0B010197   8.766   2.666  13.506
  157SBC   C0AZ10198   8.838   2.557  13.457
  157SBC   C0AY10199   8.807   2.502  13.330
  157SBC   N00710200   8.891   2.414  13.272
  157SBC   C0E210201   8.863   2.367  13.142
  157SBC   C0E110202   8.958   2.289  13.085
  157SBC   C0E410203   8.939   2.252  12.950
  157SBC   C0FF10204   9.034   2.168  12.883
  157SBC   C0FJ10205   9.050   2.127  12.743
  157SBC   C0FK10206   9.026   2.218  12.642
  157SBC   H01610207   8.983   2.316  12.654
  157SBC   C0FL10208   9.123   2.179  12.537
  157SBC   H01710209   9.147   2.237  12.448
  157SBC   C0FM10210   9.192   2.060  12.577
  157SBC   C0FH10211   9.328   1.989  12.581
  157SBC   C0FI10212   9.331   1.937  12.714
  157SBC   C0F310213   9.452   1.912  12.779
  157SBC   C0F210214   9.442   1.917  12.912
  157SBC   C0DW10215   9.342   1.973  12.986
  157SBC   C0FE10216   9.226   2.012  12.919
  157SBC   C0DV10217   9.359   2.018  13.112
  157SBC   C0DX10218   9.265   2.101  13.167
  157SBC   C0DK10219   9.293   2.158  13.292
  157SBC   C0DJ10220   9.419   2.131  13.354
  157SBC   C0DI10221   9.450   2.190  13.479
  157SBC   C0DH10222   9.353   2.262  13.543
  157SBC   C0DG10223   9.233   2.292  13.482
  157SBC   C0BV10224   9.154   2.393  13.536
  157SBC   C0BC10225   9.032   2.430  13.470
  157SBC   C0BA10226   9.183   2.453  13.656
  157SBC   C0B410227   9.107   2.559  13.703
  157SBC   C0B310228   8.992   2.597  13.635
  157SBC   C0B510229   9.140   2.622  13.819
  157SBC   C0BU10230   9.253   2.577  13.899
  157SBC   C0BT10231   9.335   2.473  13.849
  157SBC   C0BS10232   9.450   2.429  13.919
  157SBC   C0CC10233   9.539   2.349  13.851
  157SBC   C0CB10234   9.664   2.326  13.906
  157SBC   C0CH10235   9.764   2.297  13.810
  157SBC   C0DO10236   9.740   2.234  13.692
  157SBC   C0DP10237   9.840   2.163  13.625
  157SBC   C0EA10238   9.977   2.160  13.668
  157SBC   H01210239  10.018   2.225  13.743
  157SBC   O00910240  10.065   2.067  13.623
  157SBC   C0EH10241  10.032   2.003  13.506
  157SBC   C0EG10242  10.138   1.930  13.445
  157SBC   C0EJ10243  10.279   1.914  13.479
  157SBC   H01010244  10.316   1.947  13.575
  157SBC   C0EK10245  10.345   1.851  13.365
  157SBC   H00Z10246  10.449   1.826  13.351
  157SBC   C0EL10247  10.243   1.847  13.266
  157SBC   C0EM10248  10.248   1.833  13.118
  157SBC   C0EW10249  10.360   1.799  13.039
  157SBC   H01310250  10.458   1.772  13.075
  157SBC   C0EX10251  10.348   1.778  12.894
  157SBC   H01410252  10.434   1.752  12.833
  157SBC   C0F110253  10.221   1.812  12.833
  157SBC   C0EU10254  10.109   1.845  12.918
  157SBC   C0ET10255   9.982   1.881  12.877
  157SBC   C0ES10256   9.908   1.912  12.994
  157SBC   C0EE10257   9.996   1.901  13.103
  157SBC   C0ED10258  10.004   1.919  13.242
  157SBC   C0EC10259   9.890   1.968  13.314
  157SBC   C0EB10260   9.752   1.978  13.267
  157SBC   C0EN10261   9.717   1.918  13.136
  157SBC   C0ER10262   9.580   1.922  13.109
  157SBC   C0DS10263   9.646   2.041  13.343
  157SBC   C0DR10264   9.674   2.096  13.464
  157SBC   C0EY10265   9.782   1.870  13.018
  157SBC   C0EZ10266   9.686   1.868  12.905
  157SBC   C0F510267   9.695   1.889  12.762
  157SBC   C0F610268   9.820   1.896  12.690
  157SBC   N00810269   9.808   1.942  12.552
  157SBC   C0F710270   9.683   1.982  12.494
  157SBC   C0FQ10271   9.680   2.045  12.367
  157SBC   H01810272   9.591   2.080  12.318
  157SBC   C0FP10273   9.797   2.059  12.291
  157SBC   H01910274   9.791   2.098  12.190
  157SBC   C0FO10275   9.912   2.006  12.344
  157SBC   H01A10276   9.999   2.009  12.280
  157SBC   C0F810277   9.570   1.960  12.570
  157SBC   C0F910278   9.921   1.952  12.476
  157SBC   C0FA10279  10.041   1.906  12.520
  157SBC   H01510280  10.131   1.910  12.460
  157SBC   C0FB10281  10.060   1.863  12.654
  157SBC   C0FD10282   9.951   1.872  12.734
  157SBC   C0FC10283  10.192   1.821  12.695
  157SBC   O00A10284  10.285   1.797  12.614
  157SBC   C0EV10285  10.123   1.856  13.053
  157SBC   C0EF10286  10.120   1.885  13.317
  157SBC   C0EI10287   9.904   2.015  13.445
  157SBC   C0DQ10288   9.806   2.089  13.514
  157SBC   C0CE10289   9.607   2.230  13.652
  157SBC   H00U10290   9.863   2.300  13.854
  157SBC   C0CA10291   9.681   2.333  14.047
  157SBC   C0C910292   9.592   2.423  14.118
  157SBC   C0C810293   9.624   2.456  14.254
  157SBC   C0C710294   9.592   2.578  14.340
  157SBC   C0C610295   9.649   2.577  14.469
  157SBC   C0C510296   9.704   2.676  14.566
  157SBC   C0CQ10297   9.811   2.633  14.643
  157SBC   C0D110298   9.875   2.517  14.619
  157SBC   C0D810299  10.009   2.534  14.636
  157SBC   C0D710300  10.024   2.646  14.727
  157SBC   C0D610301  10.145   2.716  14.748
  157SBC   C0D510302  10.155   2.842  14.805
  157SBC   C0D410303  10.067   2.934  14.859
  157SBC   C0D310304  10.134   3.056  14.869
  157SBC   C0CX10305  10.029   3.161  14.872
  157SBC   C0CW10306   9.913   3.095  14.810
  157SBC   C0CV10307   9.776   3.135  14.764
  157SBC   C0D210308   9.728   3.260  14.807
  157SBC   C09D10309   9.773   3.341  14.915
  157SBC   C09C10310   9.716   3.470  14.936
  157SBC   C09B10311   9.770   3.572  15.015
  157SBC   C09A10312   9.884   3.535  15.087
  157SBC   C09910313   9.923   3.408  15.107
  157SBC   C09810314  10.061   3.405  15.149
  157SBC   C08Y10315  10.108   3.545  15.153
  157SBC   C08X10316  10.244   3.593  15.165
  157SBC   C08W10317  10.352   3.501  15.177
  157SBC   C08U10318  10.349   3.354  15.162
  157SBC   C08V10319  10.254   3.260  15.112
  157SBC   C0DC10320  10.307   3.127  15.138
  157SBC   H00W10321  10.243   3.042  15.116
  157SBC   C0DB10322  10.439   3.135  15.191
  157SBC   H00X10323  10.509   3.060  15.225
  157SBC   C08T10324  10.466   3.276  15.190
  157SBC   C08S10325  10.585   3.329  15.233
  157SBC   H00N10326  10.666   3.260  15.252
  157SBC   C08R10327  10.594   3.471  15.236
  157SBC   C08Q10328  10.719   3.530  15.263
  157SBC   H00O10329  10.791   3.453  15.286
  157SBC   C08P10330  10.747   3.670  15.245
  157SBC   C08O10331  10.879   3.730  15.252
  157SBC   H00P10332  10.964   3.664  15.261
  157SBC   C08N10333  10.895   3.868  15.240
  157SBC   C08M10334  11.022   3.924  15.259
  157SBC   O00810335  11.114   3.863  15.305
  157SBC   O00710336  11.032   4.061  15.233
  157SBC   C08H10337  10.934   4.140  15.182
  157SBC   C08G10338  10.950   4.282  15.147
  157SBC   C03V10339  11.068   4.358  15.140
  157SBC   H00910340  11.156   4.300  15.168
  157SBC   C03U10341  11.070   4.496  15.106
  157SBC   C03W10342  11.188   4.581  15.091
  157SBC   H00A10343  11.286   4.536  15.101
  157SBC   C03X10344  11.181   4.710  15.078
  157SBC   H00B10345  11.261   4.782  15.084
  157SBC   O00510346  11.053   4.771  15.059
  157SBC   C03O10347  10.943   4.691  15.052
  157SBC   C03N10348  10.824   4.752  15.016
  157SBC   O00010349  10.836   4.879  14.965
  157SBC   C01910350  10.731   4.936  14.899
  157SBC   C01810351  10.608   4.868  14.893
  157SBC   C01710352  10.593   4.741  14.948
  157SBC   C01610353  10.469   4.669  14.937
  157SBC   C01510354  10.364   4.746  14.883
  157SBC   C01410355  10.237   4.684  14.880
  157SBC   C01310356  10.221   4.550  14.926
  157SBC   C01210357  10.084   4.525  14.889
  157SBC   C01110358  10.032   4.644  14.835
  157SBC   C01010359   9.903   4.661  14.794
  157SBC   C00Z10360   9.850   4.764  14.719
  157SBC   C00Y10361   9.728   4.707  14.677
  157SBC   C01O10362   9.704   4.585  14.729
  157SBC   C01P10363   9.623   4.494  14.663
  157SBC   C02L10364   9.629   4.370  14.706
  157SBC   C02K10365   9.742   4.340  14.793
  157SBC   C01M10366   9.851   4.425  14.839
  157SBC   C02J10367   9.731   4.210  14.841
  157SBC   C02I10368   9.826   4.149  14.925
  157SBC   C02H10369   9.951   4.186  14.977
  157SBC   C01Q10370  10.028   4.301  14.958
  157SBC   C02G10371  10.148   4.283  15.027
  157SBC   C08910372  10.146   4.160  15.085
  157SBC   C08810373  10.269   4.109  15.122
  157SBC   C08710374  10.358   4.225  15.089
  157SBC   C08610375  10.500   4.230  15.110
  157SBC   C03S10376  10.590   4.340  15.085
  157SBC   N00610377  10.715   4.291  15.125
  157SBC   C08F10378  10.710   4.160  15.160
  157SBC   C01J10379  10.581   4.468  15.032
  157SBC   C03R10380  10.702   4.541  15.038
  157SBC   C03Q10381  10.825   4.481  15.078
  157SBC   C08E10382  10.581   4.114  15.146
  157SBC   C08D10383  10.545   3.976  15.174
  157SBC   C08K10384  10.654   3.892  15.200
  157SBC   C08C10385  10.420   3.917  15.175
  157SBC   C09110386  10.401   3.781  15.190
  157SBC   C09210387  10.509   3.689  15.204
  157SBC   C08B10388  10.292   3.966  15.147
  157SBC   C09010389  10.198   3.858  15.152
  157SBC   C09410390  10.058   3.858  15.121
  157SBC   C09510391   9.971   3.752  15.100
  157SBC   C09R10392   9.851   3.794  15.037
  157SBC   C09710393   9.859   3.930  15.023
  157SBC   C09610394   9.985   3.969  15.072
  157SBC   C01I10395  10.285   4.340  15.034
  157SBC   C08A10396  10.024   4.094  15.048
  157SBC   C09L10397   9.775   4.019  14.950
  157SBC   C09K10398   9.662   3.995  14.866
  157SBC   C09J10399   9.591   3.872  14.859
  157SBC   C09I10400   9.498   3.836  14.753
  157SBC   C09O10401   9.428   3.904  14.645
  157SBC   C09N10402   9.442   4.048  14.622
  157SBC   C09M10403   9.529   4.142  14.688
  157SBC   C06O10404   9.357   4.102  14.517
  157SBC   C05M10405   9.270   4.017  14.450
  157SBC   C06P10406   9.272   3.879  14.467
  157SBC   C04210407   9.177   4.072  14.354
  157SBC   C04110408   9.180   4.208  14.322
  157SBC   C04010409   9.106   4.262  14.220
  157SBC   C03Z10410   9.117   4.390  14.176
  157SBC   C03Y10411   9.201   4.480  14.244
  157SBC   C02710412   9.202   4.614  14.213
  157SBC   C02610413   9.291   4.695  14.280
  157SBC   C02810414   9.310   4.825  14.237
  157SBC   C02910415   9.235   4.874  14.127
  157SBC   C02B10416   9.258   5.004  14.079
  157SBC   C02C10417   9.190   5.048  13.968
  157SBC   C02X10418   9.230   5.163  13.903
  157SBC   C03E10419   9.172   5.189  13.781
  157SBC   C03G10420   9.073   5.122  13.722
  157SBC   C04Q10421   9.034   5.003  13.786
  157SBC   C04R10422   8.937   4.921  13.729
  157SBC   C04S10423   8.907   4.798  13.786
  157SBC   C04L10424   8.972   4.756  13.900
  157SBC   C04M10425   9.061   4.843  13.956
  157SBC   C04K10426   8.957   4.626  13.940
  157SBC   C04F10427   8.865   4.546  13.875
  157SBC   C04E10428   8.795   4.587  13.762
  157SBC   C04D10429   8.708   4.503  13.693
  157SBC   C05010430   8.645   4.551  13.585
  157SBC   C05110431   8.560   4.459  13.509
  157SBC   C05Q10432   8.495   4.505  13.400
  157SBC   C05V10433   8.417   4.415  13.329
  157SBC   N00510434   8.347   4.460  13.218
  157SBC   C07V10435   8.362   4.594  13.185
  157SBC   C08210436   8.287   4.642  13.073
  157SBC   C08110437   8.201   4.561  13.000
  157SBC   C07C10438   8.213   4.422  13.016
  157SBC   C07B10439   8.170   4.337  12.914
  157SBC   C08010440   8.086   4.385  12.812
  157SBC   C07Z10441   8.049   4.285  12.717
  157SBC   H00L10442   7.989   4.320  12.635
  157SBC   C07910443   8.098   4.153  12.717
  157SBC   C07810444   8.176   4.110  12.823
  157SBC   C07710445   8.218   3.978  12.829
  157SBC   C07X10446   8.193   3.886  12.725
  157SBC   H00I10447   8.213   3.780  12.724
  157SBC   C07Y10448   8.137   3.925  12.609
  157SBC   H00H10449   8.136   3.862  12.521
  157SBC   C07610450   8.277   3.937  12.941
  157SBC   C06C10451   8.308   3.798  12.962
  157SBC   H00C10452   8.294   3.721  12.887
  157SBC   C06F10453   8.300   4.024  13.047
  157SBC   C06E10454   8.354   3.979  13.172
  157SBC   C06G10455   8.401   4.056  13.271
  157SBC   C06H10456   8.386   4.191  13.254
  157SBC   C06I10457   8.313   4.240  13.140
  157SBC   C06L10458   8.454   4.000  13.393
  157SBC   C06M10459   8.470   3.861  13.414
  157SBC   C06K10460   8.495   4.094  13.493
  157SBC   C05S10461   8.484   4.232  13.469
  157SBC   C05U10462   8.553   4.046  13.613
  157SBC   C05X10463   8.556   3.907  13.640
  157SBC   C05G10464   8.626   3.879  13.766
  157SBC   C05F10465   8.682   3.982  13.839
  157SBC   C05E10466   8.768   3.935  13.940
  157SBC   C04810467   8.851   4.018  14.012
  157SBC   C05610468   8.935   3.959  14.104
  157SBC   C04510469   9.015   4.040  14.180
  157SBC   C04710470   8.852   4.150  13.974
  157SBC   C04910471   8.776   4.198  13.871
  157SBC   C04B10472   8.772   4.331  13.836
  157SBC   C04610473   8.937   4.228  14.047
  157SBC   C04H10474   8.945   4.362  14.004
  157SBC   C05D10475   8.762   3.799  13.945
  157SBC   C04A10476   8.689   4.116  13.799
  157SBC   C05T10477   8.613   4.147  13.693
  157SBC   C05510478   8.619   4.280  13.656
  157SBC   C06D10479   8.386   3.846  13.187
  157SBC   C07W10480   8.274   4.154  13.042
  157SBC   C08510481   8.089   4.060  12.607
  157SBC   H00M10482   8.041   4.088  12.515
  157SBC   C08410483   8.057   4.523  12.805
  157SBC   H00J10484   8.010   4.566  12.718
  157SBC   C07A10485   8.210   4.202  12.927
  157SBC   C08310486   8.118   4.608  12.895
  157SBC   H00K10487   8.102   4.714  12.894
  157SBC   O00K10488   8.292   4.774  13.032
  157SBC   C0GO10489   8.391   4.852  13.083
  157SBC   C0GN10490   8.421   4.981  13.036
  157SBC   H01L10491   8.366   5.020  12.952
  157SBC   C0GM10492   8.515   5.068  13.099
  157SBC   C0GL10493   8.540   5.189  13.043
  157SBC   H01M10494   8.490   5.218  12.952
  157SBC   O00J10495   8.650   5.261  13.078
  157SBC   C0GK10496   8.732   5.203  13.174
  157SBC   H01N10497   8.822   5.258  13.198
  157SBC   C05K10498   8.697   5.089  13.244
  157SBC   C05J10499   8.771   5.041  13.361
  157SBC   C04Y10500   8.886   5.095  13.411
  157SBC   C04X10501   8.938   5.067  13.538
  157SBC   O00610502   8.965   5.166  13.326
  157SBC   C05310503   9.069   5.246  13.372
  157SBC   C04O10504   9.108   5.242  13.507
  157SBC   C03C10505   9.212   5.311  13.575
  157SBC   C03B10506   9.323   5.385  13.529
  157SBC   C05410507   9.355   5.407  13.393
  157SBC   C0GR10508   9.463   5.490  13.350
  157SBC   C03M10509   9.585   5.552  13.416
  157SBC   C03I10510   9.620   5.535  13.554
  157SBC   C03J10511   9.757   5.577  13.587
  157SBC   N00210512   9.811   5.548  13.717
  157SBC   C02U10513   9.950   5.569  13.750
  157SBC   C02T10514  10.006   5.537  13.874
  157SBC   C02Z10515  10.141   5.559  13.894
  157SBC   N00110516  10.200   5.515  14.013
  157SBC   C02R10517  10.341   5.516  14.021
  157SBC   C03210518  10.421   5.570  13.916
  157SBC   C03110519  10.356   5.628  13.805
  157SBC   H00710520  10.416   5.665  13.723
  157SBC   C03310521  10.566   5.552  13.929
  157SBC   H00310522  10.630   5.574  13.845
  157SBC   O00410523  10.626   5.488  14.038
  157SBC   C03410524  10.542   5.416  14.120
  157SBC   C03510525  10.604   5.326  14.204
  157SBC   C03610526  10.520   5.236  14.273
  157SBC   H00510527  10.563   5.157  14.332
  157SBC   C03710528  10.377   5.259  14.278
  157SBC   H00610529  10.312   5.195  14.337
  157SBC   C00D10530  10.319   5.366  14.208
  157SBC   C00C10531  10.184   5.400  14.221
  157SBC   C00B10532  10.097   5.361  14.336
  157SBC   C00A10533  10.103   5.295  14.470
  157SBC   C00910534   9.972   5.249  14.496
  157SBC   C00810535   9.946   5.128  14.562
  157SBC   C00710536  10.046   5.069  14.634
  157SBC   C00610537  10.022   4.941  14.693
  157SBC   C00510538  10.134   4.880  14.762
  157SBC   C00410539  10.255   4.941  14.776
  157SBC   C00310540  10.275   5.069  14.712
  157SBC   C00210541  10.408   5.127  14.712
  157SBC   C01C10542  10.513   5.065  14.782
  157SBC   C01B10543  10.643   5.127  14.792
  157SBC   H00010544  10.681   5.220  14.753
  157SBC   C00110545  10.428   5.254  14.643
  157SBC   C00010546  10.317   5.312  14.581
  157SBC   C01U10547  10.373   5.440  14.539
  157SBC   H00210548  10.325   5.518  14.483
  157SBC   C01T10549  10.521   5.429  14.542
  157SBC   O00210550  10.604   5.492  14.481
  157SBC   O00110551  10.547   5.321  14.624
  157SBC   C01S10552  10.176   5.123  14.635
  157SBC   C00N10553   9.827   5.068  14.525
  157SBC   C00M10554   9.735   5.125  14.437
  157SBC   C00J10555   9.766   5.242  14.367
  157SBC   C00I10556   9.704   5.280  14.251
  157SBC   C00H10557   9.770   5.369  14.163
  157SBC   C00G10558   9.900   5.408  14.185
  157SBC   C00F10559   9.980   5.463  14.090
  157SBC   C01X10560   9.713   5.399  14.044
  157SBC   C01W10561   9.589   5.353  14.013
  157SBC   C01V10562   9.527   5.260  14.096
  157SBC   C02010563   9.409   5.193  14.059
  157SBC   C01Z10564   9.531   5.383  13.889
  157SBC   C02Y10565   9.409   5.327  13.865
  157SBC   C03910566   9.347   5.358  13.746
  157SBC   C02W10567   9.598   5.455  13.790
  157SBC   C01Y10568   9.788   5.469  13.946
  157SBC   C00U10569   9.586   5.226  14.212
  157SBC   C00S10570   9.547   5.109  14.286
  157SBC   C00T10571   9.435   5.037  14.242
  157SBC   C00R10572   9.623   5.061  14.393
  157SBC   C00Q10573   9.599   4.936  14.435
  157SBC   C00V10574   9.487   4.860  14.386
  157SBC   C02410575   9.469   4.729  14.430
  157SBC   C00X10576   9.551   4.677  14.527
  157SBC   C00P10577   9.683   4.882  14.530
  157SBC   C00O10578   9.801   4.943  14.571
  157SBC   C00K10579   9.884   5.307  14.406
  157SBC   N00010580  10.198   5.245  14.558
  157SBC   C00L10581   9.958   5.375  14.309
  157SBC   H00410582  10.710   5.310  14.197
  157SBC   C02Q10583  10.397   5.432  14.115
  157SBC   C00E10584  10.118   5.460  14.111
  157SBC   C03010585  10.220   5.623  13.795
  157SBC   O00310586  10.159   5.662  13.682
  157SBC   C02S10587   9.922   5.491  13.972
  157SBC   C03810588  10.033   5.616  13.653
  157SBC   C03L10589   9.978   5.653  13.535
  157SBC   H00810590  10.051   5.693  13.467
  157SBC   C02V10591   9.731   5.491  13.821
  157SBC   C03K10592   9.843   5.640  13.499
  157SBC   C0BK10593   9.792   5.670  13.376
  157SBC   H00T10594   9.860   5.715  13.304
  157SBC   C03H10595   9.550   5.469  13.657
  157SBC   C0BL10596   9.663   5.634  13.333
  157SBC   C0GU10597   9.623   5.664  13.201
  157SBC   H01O10598   9.682   5.733  13.142
  157SBC   C0GT10599   9.517   5.606  13.140
  157SBC   H01P10600   9.495   5.627  13.036
  157SBC   C0GS10601   9.439   5.513  13.210
  157SBC   C0GV10602   9.328   5.435  13.162
  157SBC   C0GW10603   9.268   5.428  13.029
  157SBC   H01Q10604   9.322   5.472  12.946
  157SBC   C0GX10605   9.149   5.365  13.031
  157SBC   H01R10606   9.115   5.356  12.928
  157SBC   O00L10607   9.084   5.305  13.139
  157SBC   C0GQ10608   9.272   5.377  13.281
  157SBC   C03A10609   9.416   5.412  13.633
  157SBC   C05L10610   9.144   5.314  13.268
  157SBC   C04W10611   8.725   4.931  13.430
  157SBC   C05I10612   8.629   4.852  13.371
  157SBC   C05O10613   8.563   4.889  13.258
  157SBC   C05210614   8.600   4.726  13.423
  157SBC   C04V10615   8.776   4.891  13.550
  157SBC   C04U10616   8.749   4.765  13.607
  157SBC   N00910617   8.589   5.015  13.203
  157SBC   C0GP10618   8.465   4.812  13.197
  157SBC   C05W10619   8.440   4.683  13.247
  157SBC   C07D10620   8.286   4.371  13.126
  157SBC   C06J10621   8.426   4.278  13.353
  157SBC   C05P10622   8.511   4.641  13.354
  157SBC   C05R10623   8.549   4.325  13.544
  157SBC   C04Z10624   8.662   4.682  13.538
  157SBC   C04C10625   8.696   4.369  13.732
  157SBC   C04G10626   8.856   4.415  13.908
  157SBC   C04J10627   9.038   4.578  14.036
  157SBC   C04T10628   8.813   4.717  13.721
  157SBC   N00310629   8.884   4.965  13.610
  157SBC   C04P10630   9.041   5.147  13.590
  157SBC   C03D10631   9.228   5.296  13.707
  157SBC   C02110632   9.349   5.230  13.944
  157SBC   C03F10633   9.089   4.967  13.906
  157SBC   C02210634   9.364   5.078  14.131
  157SBC   C02A10635   9.139   4.794  14.062
  157SBC   C02310636   9.408   4.908  14.287
  157SBC   C02510637   9.377   4.645  14.377
  157SBC   C02D10638   9.370   4.511  14.412
  157SBC   C02E10639   9.452   4.460  14.511
  157SBC   C02N10640   9.447   4.323  14.548
  157SBC   C04N10641   9.128   4.665  14.105
  157SBC   C02P10642   9.280   4.426  14.346
  157SBC   C04I10643   9.035   4.440  14.073
  157SBC   C04410644   9.018   4.178  14.149
  157SBC   C04310645   9.269   4.292  14.389
  157SBC   C05N10646   9.356   4.243  14.484
  157SBC   C09U10647   9.348   3.822  14.565
  157SBC   C09V10648   9.345   3.682  14.583
  157SBC   C09X10649   9.425   3.615  14.668
  157SBC   C09Y10650   9.464   3.483  14.670
  157SBC   C0A110651   9.408   3.406  14.574
  157SBC   C0A210652   9.306   3.463  14.494
  157SBC   C0A410653   9.234   3.382  14.407
  157SBC   C07110654   9.140   3.434  14.320
  157SBC   C0A510655   9.077   3.356  14.228
  157SBC   C0A910656   9.116   3.218  14.221
  157SBC   C0A810657   9.213   3.166  14.308
  157SBC   C0AP10658   9.261   3.041  14.281
  157SBC   C0BY10659   9.361   2.997  14.357
  157SBC   C0BX10660   9.429   3.063  14.448
  157SBC   C0C210661   9.535   3.010  14.521
  157SBC   C0C310662   9.607   3.093  14.609
  157SBC   C0CT10663   9.553   3.221  14.637
  157SBC   C0C110664   9.578   2.877  14.499
  157SBC   C0C010665   9.524   2.809  14.378
  157SBC   C0A710666   9.383   3.192  14.471
  157SBC   C0BZ10667   9.420   2.879  14.320
  157SBC   C0BO10668   9.374   2.800  14.215
  157SBC   C0BN10669   9.258   2.836  14.149
  157SBC   C0BM10670   9.219   2.756  14.046
  157SBC   C0B910671   9.114   2.806  13.972
  157SBC   C0B810672   9.061   2.932  13.994
  157SBC   C0AD10673   9.106   3.007  14.103
  157SBC   C0AF10674   8.956   2.974  13.916
  157SBC   C0AG10675   8.899   2.893  13.816
  157SBC   C0B710676   8.960   2.774  13.787
  157SBC   C0AE10677   8.911   3.102  13.953
  157SBC   C0AB10678   8.965   3.189  14.046
  157SBC   C0AA10679   8.915   3.318  14.060
  157SBC   C0AJ10680   8.800   3.143  13.885
  157SBC   C0AK10681   8.756   3.273  13.895
  157SBC   C06W10682   8.670   3.292  13.797
  157SBC   C0AI10683   8.741   3.073  13.778
  157SBC   C0BP10684   9.444   2.686  14.188
  157SBC   C0BQ10685   9.401   2.591  14.088
  157SBC   C0BW10686   9.206   2.960  14.180
  157SBC   C0AC10687   9.062   3.139  14.122
  157SBC   C0A610688   9.276   3.249  14.395
  157SBC   C0A310689   9.446   3.273  14.562
  157SBC   C09Z10690   9.561   3.431  14.753
  157SBC   C09W10691   9.274   3.600  14.501
  157SBC   C07210692   9.190   3.657  14.410
  157SBC   C09H10693   9.481   3.697  14.764
  157SBC   C09G10694   9.562   3.641  14.862
  157SBC   C09P10695   9.637   3.743  14.922
  157SBC   C02O10696   9.631   4.113  14.793
  157SBC   C02M10697   9.531   4.279  14.651
  157SBC   C02F10698   9.542   4.542  14.567
  157SBC   C00W10699   9.644   4.762  14.581
  157SBC   C01R10700   9.896   4.883  14.661
  157SBC   C01N10701   9.818   4.554  14.795
  157SBC   C01L10702   9.982   4.414  14.898
  157SBC   C01H10703  10.321   4.472  14.987
  157SBC   C01K10704  10.126   4.743  14.815
  157SBC   C01E10705  10.368   4.877  14.829
  157SBC   C01G10706  10.458   4.533  14.986
  157SBC   C01D10707  10.496   4.937  14.836
  157SBC   C01A10708  10.751   5.065  14.859
  157SBC   H00110709  10.843   5.119  14.877
  157SBC   C01F10710  10.705   4.678  14.999
  157SBC   C03P10711  10.948   4.551  15.080
  157SBC   C03T10712  10.830   4.353  15.117
  157SBC   C08I10713  10.810   4.078  15.182
  157SBC   C08J10714  10.786   3.944  15.208
  157SBC   C08L10715  10.634   3.750  15.217
  157SBC   C09310716  10.484   3.553  15.202
  157SBC   C08Z10717  10.272   3.736  15.168
  157SBC   C09T10718  10.117   3.293  15.078
  157SBC   C09S10719   9.989   3.617  15.119
  157SBC   C09Q10720   9.748   3.712  14.998
  157SBC   C09F10721   9.611   3.505  14.855
  157SBC   C09E10722   9.887   3.323  14.999
  157SBC   C0A010723   9.609   3.303  14.736
  157SBC   C0CU10724   9.711   3.042  14.678
  157SBC   C0CR10725   9.743   2.904  14.658
  157SBC   C0CZ10726   9.861   2.853  14.733
  157SBC   C0DA10727  10.012   3.245  14.988
  157SBC   C0D910728  10.256   3.055  14.793
  157SBC   H00V10729  10.314   3.137  14.754
  157SBC   C0CY10730   9.941   2.956  14.801
  157SBC   C0DF10731  10.267   2.913  14.758
  157SBC   C0DE10732  10.342   2.813  14.687
  157SBC   C0GI10733  10.475   2.813  14.636
  157SBC   H01K10734  10.541   2.898  14.626
  157SBC   C0GJ10735  10.521   2.696  14.590
  157SBC   H01J10736  10.623   2.691  14.555
  157SBC   O00I10737  10.457   2.574  14.594
  157SBC   C0GH10738  10.324   2.580  14.623
  157SBC   C0GG10739  10.249   2.465  14.577
  157SBC   O00G10740  10.326   2.358  14.544
  157SBC   C0G810741  10.279   2.252  14.467
  157SBC   C0G910742  10.372   2.155  14.432
  157SBC   H01G10743  10.470   2.148  14.475
  157SBC   C0GA10744  10.336   2.062  14.338
  157SBC   H01H10745  10.413   1.992  14.311
  157SBC   C0GB10746  10.219   2.073  14.262
  157SBC   C0EP10747  10.123   2.172  14.300
  157SBC   C0E810748   9.999   2.191  14.223
  157SBC   C0CK10749   9.885   2.276  14.218
  157SBC   C0CL10750   9.832   2.336  14.332
  157SBC   C0E910751   9.914   2.372  14.443
  157SBC   C0GE10752  10.058   2.361  14.471
  157SBC   C0E710753   9.975   2.106  14.115
  157SBC   C0CJ10754   9.857   2.132  14.042
  157SBC   C0E610755   9.823   2.050  13.935
  157SBC   H00Y10756   9.721   2.055  13.900
  157SBC   C0EO10757   9.918   1.948  13.899
  157SBC   H01110758   9.892   1.881  13.818
  157SBC   C0G610759  10.046   1.943  13.955
  157SBC   C0G510760  10.157   1.867  13.903
  157SBC   H01F10761  10.135   1.810  13.814
  157SBC   C0GD10762  10.276   1.859  13.967
  157SBC   H01I10763  10.353   1.792  13.929
  157SBC   O00H10764  10.304   1.927  14.086
  157SBC   C0EQ10765  10.077   2.016  14.074
  157SBC   C0GC10766  10.196   1.998  14.143
  157SBC   C0G710767  10.146   2.265  14.407
  157SBC   C0DD10768  10.267   2.693  14.681
  157SBC   C0GF10769  10.108   2.452  14.568
  157SBC   C0CO10770   9.825   2.439  14.530
  157SBC   C0D010771   9.900   2.718  14.703
  157SBC   C0C410772   9.674   2.815  14.572
  157SBC   C0CN10773   9.696   2.444  14.479
  157SBC   C0CP10774   9.539   2.690  14.293
  157SBC   C0CM10775   9.699   2.379  14.352
  157SBC   C0CI10776   9.803   2.255  14.100
  157SBC   C0CD10777   9.507   2.293  13.728
  157SBC   C0BR10778   9.480   2.483  14.048
  157SBC   C0CS10779   9.288   2.639  14.016
  157SBC   C0B610780   9.070   2.733  13.862
  157SBC   C0CG10781   9.296   2.410  13.725
  157SBC   C0CF10782   9.383   2.319  13.669
  157SBC   C0E510783   9.573   2.169  13.534
  157SBC   C0DT10784   9.512   2.047  13.297
  157SBC   C0DL10785   9.204   2.244  13.354
  157SBC   C0DM10786   9.089   2.287  13.286
  157SBC   C0DY10787   9.152   2.149  13.099
  157SBC   C0DU10788   9.476   1.989  13.178
  157SBC   C0F010789   9.564   1.897  12.974
  157SBC   C0F410790   9.570   1.913  12.705
  157SBC   C0FG10791   9.212   1.970  12.788
  157SBC   O00B10792   9.447   2.003  12.507
  157SBC   C0FN10793   9.122   2.022  12.697
  157SBC   C0DZ10794   9.135   2.104  12.966
  157SBC   O00C10795   8.825   2.295  12.879
  157SBC   C0FR10796   8.725   2.367  12.932
  157SBC   O00D10797   8.638   2.406  12.856
  157SBC   C0E010798   9.063   2.241  13.158
  157SBC   C0E310799   8.745   2.411  13.075
  157SBC   C0AW10800   8.661   2.502  13.133
  157SBC   C0AV10801   8.542   2.566  13.073
  157SBC   H00Q10802   8.506   2.543  12.974
  157SBC   C0AU10803   8.478   2.677  13.136
  157SBC   H00R10804   8.406   2.736  13.082
  157SBC   C0AT10805   8.512   2.705  13.268
  157SBC   C0AS10806   8.459   2.795  13.369
  157SBC   C0AR10807   8.339   2.875  13.362
  157SBC   C0BE10808   8.615   2.637  13.324
  157SBC   C0DN10809   9.008   2.378  13.347
  157SBC   C0AX10810   8.698   2.548  13.257
  157SBC   C0BB10811   8.955   2.529  13.519
  157SBC   C0BD10812   8.646   2.697  13.443
  157SBC   C0B210813   8.913   2.701  13.682
  157SBC   C0AH10814   8.791   2.943  13.737
  157SBC   C0BF10815   8.574   2.812  13.462
  157SBC   C0AL10816   8.645   3.171  13.727
  157SBC   C07U10817   8.446   3.084  13.446
  157SBC   C0AQ10818   8.351   3.014  13.373
  157SBC   C0BG10819   8.205   2.845  13.304
  157SBC   C0FY10820   8.157   3.061  13.021
  157SBC   C0BJ10821   8.178   2.761  13.190
  157SBC   H00S10822   8.214   2.659  13.184
  157SBC   C0FZ10823   8.187   2.978  12.910
  157SBC   C07S10824   8.229   3.185  13.028
  157SBC   C0G110825   8.367   3.184  12.680
  157SBC   C07K10826   8.523   3.505  12.796
  157SBC   C07H10827   8.387   3.427  13.028
  157SBC   C06B10828   8.362   3.762  13.083
  157SBC   C06N10829   8.441   3.785  13.297
  157SBC   C06610830   8.386   3.406  13.284
  157SBC   C06210831   8.513   3.417  13.559
  157SBC   C05Y10832   8.512   3.809  13.542
  157SBC   C06110833   8.528   3.465  13.693
  157SBC   C05H10834   8.667   3.763  13.839
  157SBC   C06V10835   8.623   3.418  13.788
  157SBC   C06Y10836   8.809   3.366  13.987
  157SBC   C05C10837   8.851   3.738  14.045
  157SBC   C06Z10838   8.979   3.407  14.143
  157SBC   C07010839   9.117   3.571  14.325
  157SBC   C05B10840   8.930   3.820  14.125
  157SBC   C05710841   9.096   3.986  14.279
  157SBC   C05910842   9.181   3.799  14.396
  158SBC   C05810843   0.628   3.371  13.476
  158SBC   C05A10844   0.658   3.330  13.610
  158SBC   C06Q10845   0.708   3.200  13.632
  158SBC   C06R10846   0.746   3.160  13.756
  158SBC   C06S10847   0.728   3.241  13.869
  158SBC   C06T10848   0.757   3.187  13.997
  158SBC   C06U10849   0.759   3.254  14.131
  158SBC   C06X10850   0.724   3.382  14.177
  158SBC   C06010851   0.758   3.395  14.317
  158SBC   C05Z10852   0.699   3.483  14.423
  158SBC   C06810853   0.708   3.391  14.541
  158SBC   C06710854   0.687   3.417  14.687
  158SBC   C06910855   0.692   3.558  14.734
  158SBC   C06A10856   0.697   3.616  14.867
  158SBC   C07310857   0.630   3.590  14.984
  158SBC   C07P10858   0.588   3.702  15.067
  158SBC   C07O10859   0.542   3.828  15.026
  158SBC   H00D10860   0.520   3.843  14.922
  158SBC   C07N10861   0.535   3.937  15.116
  158SBC   H00E10862   0.500   4.033  15.083
  158SBC   C07M10863   0.562   3.906  15.247
  158SBC   H00F10864   0.553   3.984  15.321
  158SBC   C07L10865   0.606   3.783  15.292
  158SBC   C07Q10866   0.648   3.757  15.430
  158SBC   H00G10867   0.657   3.844  15.492
  158SBC   O00F10868   0.696   3.637  15.469
  158SBC   C07J10869   0.683   3.533  15.385
  158SBC   C07I10870   0.644   3.551  15.250
  158SBC   N00410871   0.638   3.437  15.160
  158SBC   C07R10872   0.647   3.305  15.221
  158SBC   C07T10873   0.691   3.293  15.354
  158SBC   C0FX10874   0.715   3.168  15.410
  158SBC   C0FW10875   0.772   3.141  15.534
  158SBC   C0G010876   0.792   3.263  15.613
  158SBC   C0G210877   0.851   3.248  15.740
  158SBC   H01E10878   0.865   3.335  15.803
  158SBC   C0G310879   0.902   3.123  15.770
  158SBC   H01C10880   0.962   3.108  15.858
  158SBC   C0G410881   0.892   3.009  15.685
  158SBC   H01D10882   0.944   2.917  15.709
  158SBC   O00E10883   0.769   3.389  15.564
  158SBC   C0FV10884   0.814   3.010  15.571
  158SBC   C0FU10885   0.786   2.904  15.479
  158SBC   H01B10886   0.836   2.809  15.488
  158SBC   C0FT10887   0.707   2.927  15.370
  158SBC   C0FS10888   0.676   2.854  15.247
  158SBC   C0BI10889   0.589   2.940  15.171
  158SBC   C0BH10890   0.597   2.897  15.033
  158SBC   C07F10891   0.651   2.979  14.928
  158SBC   C07E10892   0.648   3.116  14.906
  158SBC   C07G10893   0.633   3.211  14.999
  158SBC   C07410894   0.659   3.337  14.939
  158SBC   C06510895   0.690   3.174  14.788
  158SBC   C06410896   0.725   3.087  14.686
  158SBC   C06310897   0.760   3.115  14.553
  158SBC   C07510898   0.800   2.985  14.493
  158SBC   C0AM10899   0.786   2.874  14.583
  158SBC   C0AN10900   0.805   2.718  14.561
  158SBC   C0AO10901   0.849   2.644  14.439
  158SBC   C0B110902   0.857   2.502  14.437
  158SBC   C0B010903   0.827   2.426  14.545
  158SBC   C0AZ10904   0.813   2.285  14.553
  158SBC   C0AY10905   0.762   2.220  14.667
  158SBC   N00710906   0.751   2.079  14.672
  158SBC   C0E210907   0.715   2.019  14.795
  158SBC   C0E110908   0.703   1.885  14.789
  158SBC   C0E410909   0.649   1.825  14.906
  158SBC   C0FF10910   0.626   1.685  14.908
  158SBC   C0FJ10911   0.557   1.594  15.000
  158SBC   C0FK10912   0.447   1.637  15.083
  158SBC   H01610913   0.428   1.737  15.119
  158SBC   C0FL10914   0.364   1.513  15.101
  158SBC   H01710915   0.267   1.490  15.143
  158SBC   C0FM10916   0.428   1.403  15.034
  158SBC   C0FH10917   0.407   1.275  14.972
  158SBC   C0FI10918   0.507   1.279  14.867
  158SBC   C0F310919   0.478   1.234  14.743
  158SBC   C0F210920   0.549   1.294  14.649
  158SBC   C0DW10921   0.625   1.412  14.655
  158SBC   C0FE10922   0.639   1.477  14.771
  158SBC   C0DV10923   0.669   1.471  14.542
  158SBC   C0DX10924   0.711   1.605  14.553
  158SBC   C0DK10925   0.738   1.674  14.433
  158SBC   C0DJ10926   0.718   1.616  14.307
  158SBC   C0DI10927   0.764   1.672  14.197
  158SBC   C0DH10928   0.816   1.800  14.203
  158SBC   C0DG10929   0.820   1.870  14.324
  158SBC   C0BV10930   0.853   2.005  14.332
  158SBC   C0BC10931   0.827   2.076  14.447
  158SBC   C0BA10932   0.906   2.067  14.221
  158SBC   C0B410933   0.927   2.202  14.221
  158SBC   C0B310934   0.891   2.279  14.330
  158SBC   C0B510935   0.969   2.264  14.103
  158SBC   C0BU10936   1.001   2.186  13.993
  158SBC   C0BT10937   0.972   2.050  13.986
  158SBC   C0BS10938   1.001   1.972  13.867
  158SBC   C0CC10939   0.943   1.843  13.858
  158SBC   C0CB10940   0.953   1.768  13.740
  158SBC   C0CH10941   0.858   1.660  13.734
  158SBC   C0DO10942   0.779   1.612  13.842
  158SBC   C0DP10943   0.696   1.500  13.827
  158SBC   C0EA10944   0.669   1.441  13.698
  158SBC   H01210945   0.695   1.487  13.604
  158SBC   O00910946   0.592   1.331  13.692
  158SBC   C0EH10947   0.526   1.283  13.807
  158SBC   C0EG10948   0.442   1.178  13.790
  158SBC   C0EJ10949   0.390   1.106  13.678
  158SBC   H01010950   0.404   1.120  13.572
  158SBC   C0EK10951   0.308   0.994  13.723
  158SBC   H00Z10952   0.254   0.915  13.674
  158SBC   C0EL10953   0.310   1.009  13.865
  158SBC   C0EM10954   0.240   0.939  13.975
  158SBC   C0EW10955   0.159   0.821  13.958
  158SBC   H01310956   0.152   0.770  13.862
  158SBC   C0EX10957   0.082   0.768  14.073
  158SBC   H01410958   0.018   0.682  14.060
  158SBC   C0F110959   0.100   0.835  14.202
  158SBC   C0EU10960   0.185   0.947  14.211
  158SBC   C0ET10961   0.227   1.014  14.327
  158SBC   C0ES10962   0.309   1.120  14.282
  158SBC   C0EE10963   0.318   1.111  14.141
  158SBC   C0ED10964   0.398   1.167  14.036
  158SBC   C0EC10965   0.489   1.280  14.046
  158SBC   C0EB10966   0.534   1.332  14.172
  158SBC   C0EN10967   0.502   1.257  14.298
  158SBC   C0ER10968   0.571   1.303  14.408
  158SBC   C0DS10969   0.619   1.443  14.180
  158SBC   C0DR10970   0.661   1.509  14.066
  158SBC   C0EY10971   0.417   1.157  14.353
  158SBC   C0EZ10972   0.417   1.154  14.493
  158SBC   C0F510973   0.330   1.104  14.607
  158SBC   C0F610974   0.220   1.020  14.584
  158SBC   N00810975   0.149   0.977  14.706
  158SBC   C0F710976   0.175   1.038  14.835
  158SBC   C0FQ10977   0.102   0.992  14.950
  158SBC   H01810978   0.126   1.033  15.047
  158SBC   C0FP10979   0.013   0.885  14.941
  158SBC   H01910980  -0.041   0.846  15.026
  158SBC   C0FO10981  -0.006   0.829  14.812
  158SBC   H01A10982  -0.075   0.749  14.790
  158SBC   C0F810983   0.284   1.131  14.836
  158SBC   C0F910984   0.059   0.872  14.695
  158SBC   C0FA10985   0.020   0.818  14.565
  158SBC   H01510986  -0.048   0.735  14.559
  158SBC   C0FB10987   0.086   0.861  14.446
  158SBC   C0FD10988   0.184   0.962  14.458
  158SBC   C0FC10989   0.045   0.790  14.330
  158SBC   O00A10990  -0.035   0.698  14.327
  158SBC   C0EV10991   0.246   1.001  14.100
  158SBC   C0EF10992   0.388   1.116  13.900
  158SBC   C0EI10993   0.547   1.342  13.934
  158SBC   C0DQ10994   0.635   1.451  13.943
  158SBC   C0CE10995   0.796   1.673  13.960
  158SBC   H00U10996   0.853   1.608  13.639
  158SBC   C0CA10997   1.050   1.808  13.642
  158SBC   C0C910998   1.093   1.948  13.643
  158SBC   C0C810999   1.168   1.988  13.528
  158SBC   C0C711000   1.170   2.119  13.457
  158SBC   C0C611001   1.250   2.131  13.341
  158SBC   C0C511002   1.261   2.217  13.221
  158SBC   C0CQ11003   1.327   2.154  13.116
  158SBC   C0D111004   1.350   2.016  13.116
  158SBC   C0D811005   1.318   1.957  12.994
  158SBC   C0D711006   1.318   2.068  12.904
  158SBC   C0D611007   1.287   2.055  12.769
  158SBC   C0D511008   1.292   2.163  12.677
  158SBC   C0D411009   1.290   2.305  12.696
  158SBC   C0D311010   1.216   2.362  12.583
  158SBC   C0CX11011   1.159   2.490  12.633
  158SBC   C0CW11012   1.149   2.481  12.782
  158SBC   C0CV11013   1.083   2.557  12.891
  158SBC   C0D211014   0.991   2.665  12.862
  158SBC   C09D11015   0.938   2.708  12.739
  158SBC   C09C11016   0.833   2.807  12.732
  158SBC   C09B11017   0.777   2.861  12.613
  158SBC   C09A11018   0.829   2.809  12.491
  158SBC   C09911019   0.910   2.704  12.489
  158SBC   C09811020   0.968   2.687  12.366
  158SBC   C08Y11021   0.936   2.811  12.292
  158SBC   C08X11022   0.985   2.850  12.166
  158SBC   C08W11023   1.098   2.784  12.101
  158SBC   C08U11024   1.184   2.683  12.160
  158SBC   C08V11025   1.201   2.627  12.294
  158SBC   C0DC11026   1.301   2.524  12.280
  158SBC   H00W11027   1.325   2.466  12.368
  158SBC   C0DB11028   1.355   2.524  12.147
  158SBC   H00X11029   1.437   2.465  12.108
  158SBC   C08T11030   1.285   2.628  12.079
  158SBC   C08S11031   1.310   2.663  11.948
  158SBC   H00N11032   1.383   2.611  11.889
  158SBC   C08R11033   1.238   2.772  11.893
  158SBC   C08Q11034   1.255   2.820  11.763
  158SBC   H00O11035   1.315   2.752  11.704
  158SBC   C08P11036   1.204   2.944  11.712
  158SBC   C08O11037   1.241   2.997  11.585
  158SBC   H00P11038   1.312   2.941  11.526
  158SBC   C08N11039   1.182   3.118  11.535
  158SBC   C08M11040   1.228   3.180  11.410
  158SBC   O00811041   1.320   3.139  11.338
  158SBC   O00711042   1.165   3.294  11.369
  158SBC   C08H11043   1.085   3.367  11.454
  158SBC   C08G11044   1.041   3.502  11.425
  158SBC   C03V11045   1.058   3.571  11.305
  158SBC   H00911046   1.096   3.512  11.223
  158SBC   C03U11047   1.027   3.711  11.289
  158SBC   C03W11048   1.057   3.788  11.172
  158SBC   H00A11049   1.111   3.745  11.089
  158SBC   C03X11050   1.036   3.920  11.177
  158SBC   H00B11051   1.074   3.980  11.096
  158SBC   O00511052   0.960   3.984  11.274
  158SBC   C03O11053   0.941   3.913  11.391
  158SBC   C03N11054   0.887   3.975  11.500
  158SBC   O00011055   0.863   4.106  11.479
  158SBC   C01911056   0.819   4.175  11.585
  158SBC   C01811057   0.784   4.108  11.713
  158SBC   C01711058   0.798   3.969  11.723
  158SBC   C01611059   0.767   3.905  11.845
  158SBC   C01511060   0.715   3.982  11.945
  158SBC   C01411061   0.673   3.919  12.060
  158SBC   C01311062   0.668   3.775  12.082
  158SBC   C01211063   0.615   3.761  12.219
  158SBC   C01111064   0.573   3.891  12.255
  158SBC   C01011065   0.497   3.913  12.363
  158SBC   C00Z11066   0.477   4.036  12.421
  158SBC   C00Y11067   0.438   3.996  12.550
  158SBC   C01O11068   0.428   3.862  12.568
  158SBC   C01P11069   0.459   3.800  12.694
  158SBC   C02L11070   0.497   3.672  12.696
  158SBC   C02K11071   0.524   3.614  12.569
  158SBC   C01M11072   0.531   3.685  12.443
  158SBC   C02J11073   0.545   3.473  12.581
  158SBC   C02I11074   0.565   3.385  12.473
  158SBC   C02H11075   0.594   3.401  12.337
  158SBC   C01Q11076   0.601   3.518  12.262
  158SBC   C02G11077   0.654   3.489  12.131
  158SBC   C08911078   0.665   3.352  12.124
  158SBC   C08811079   0.752   3.309  12.024
  158SBC   C08711080   0.771   3.431  11.946
  158SBC   C08611081   0.840   3.443  11.820
  158SBC   C03S11082   0.857   3.558  11.739
  158SBC   N00611083   0.926   3.511  11.633
  158SBC   C08F11084   0.961   3.377  11.650
  158SBC   C01J11085   0.836   3.696  11.746
  158SBC   C03R11086   0.876   3.767  11.631
  158SBC   C03Q11087   0.942   3.707  11.520
  158SBC   C08E11088   0.915   3.334  11.770
  158SBC   C08D11089   0.962   3.209  11.822
  158SBC   C08K11090   1.053   3.136  11.741
  158SBC   C08C11091   0.922   3.143  11.940
  158SBC   C09111092   0.983   3.022  11.988
  158SBC   C09211093   1.079   2.955  11.910
  158SBC   C08B11094   0.826   3.180  12.029
  158SBC   C09011095   0.839   3.077  12.139
  158SBC   C09411096   0.751   3.077  12.255
  158SBC   C09511097   0.751   2.985  12.363
  158SBC   C09R11098   0.684   3.035  12.480
  158SBC   C09711099   0.644   3.162  12.446
  158SBC   C09611100   0.669   3.180  12.309
  158SBC   C01I11101   0.718   3.548  12.011
  158SBC   C08A11102   0.642   3.299  12.254
  158SBC   C09L11103   0.581   3.259  12.528
  158SBC   C09K11104   0.555   3.267  12.673
  158SBC   C09J11105   0.582   3.161  12.762
  158SBC   C09I11106   0.603   3.175  12.905
  158SBC   C09O11107   0.594   3.281  13.004
  158SBC   C09N11108   0.557   3.416  12.974
  158SBC   C09M11109   0.533   3.476  12.843
  158SBC   C06O11110   0.534   3.500  13.088
  158SBC   C05M11111   0.556   3.450  13.221
  158SBC   C06P11112   0.608   3.326  13.244
  158SBC   C04211113   0.550   3.542  13.329
  158SBC   C04111114   0.516   3.675  13.310
  158SBC   C04011115   0.526   3.763  13.416
  158SBC   C03Z11116   0.500   3.900  13.394
  158SBC   C03Y11117   0.476   3.949  13.271
  158SBC   C02711118   0.458   4.084  13.251
  158SBC   C02611119   0.454   4.136  13.128
  158SBC   C02811120   0.424   4.269  13.107
  158SBC   C02911121   0.419   4.353  13.218
  158SBC   C02B11122   0.412   4.490  13.195
  158SBC   C02C11123   0.410   4.579  13.298
  158SBC   C02X11124   0.384   4.710  13.275
  158SBC   C03E11125   0.392   4.791  13.387
  158SBC   C03G11126   0.420   4.757  13.513
  158SBC   C04Q11127   0.436   4.622  13.534
  158SBC   C04R11128   0.463   4.578  13.663
  158SBC   C04S11129   0.477   4.442  13.686
  158SBC   C04L11130   0.464   4.349  13.578
  158SBC   C04M11131   0.439   4.396  13.450
  158SBC   C04K11132   0.483   4.210  13.596
  158SBC   C04F11133   0.513   4.168  13.721
  158SBC   C04E11134   0.517   4.255  13.829
  158SBC   C04D11135   0.543   4.206  13.959
  158SBC   C05011136   0.549   4.290  14.069
  158SBC   C05111137   0.582   4.239  14.196
  158SBC   C05Q11138   0.606   4.332  14.298
  158SBC   C05V11139   0.647   4.280  14.421
  158SBC   N00511140   0.668   4.367  14.529
  158SBC   C07V11141   0.651   4.502  14.507
  158SBC   C08211142   0.684   4.594  14.611
  158SBC   C08111143   0.729   4.550  14.738
  158SBC   C07C11144   0.748   4.415  14.760
  158SBC   C07B11145   0.805   4.367  14.879
  158SBC   C08011146   0.832   4.454  14.986
  158SBC   C07Z11147   0.881   4.404  15.107
  158SBC   H00L11148   0.906   4.463  15.194
  158SBC   C07911149   0.898   4.270  15.127
  158SBC   C07811150   0.870   4.181  15.021
  158SBC   C07711151   0.883   4.045  15.033
  158SBC   C07X11152   0.926   3.991  15.158
  158SBC   H00I11153   0.942   3.885  15.171
  158SBC   C07Y11154   0.955   4.073  15.267
  158SBC   H00H11155   0.995   4.019  15.351
  158SBC   C07611156   0.854   3.953  14.928
  158SBC   C06C11157   0.834   3.814  14.954
  158SBC   H00C11158   0.862   3.761  15.044
  158SBC   C06F11159   0.805   4.008  14.807
  158SBC   C06E11160   0.762   3.922  14.711
  158SBC   C06G11161   0.714   3.957  14.589
  158SBC   C06H11162   0.706   4.091  14.568
  158SBC   C06I11163   0.739   4.187  14.669
  158SBC   C06L11164   0.686   3.861  14.491
  158SBC   C06M11165   0.690   3.721  14.511
  158SBC   C06K11166   0.649   3.908  14.361
  158SBC   C05S11167   0.628   4.046  14.342
  158SBC   C05U11168   0.646   3.825  14.245
  158SBC   C05X11169   0.660   3.685  14.266
  158SBC   C05G11170   0.666   3.613  14.139
  158SBC   C05F11171   0.618   3.674  14.021
  158SBC   C05E11172   0.624   3.592  13.914
  158SBC   C04811173   0.604   3.633  13.789
  158SBC   C05611174   0.613   3.543  13.691
  158SBC   C04511175   0.585   3.592  13.562
  158SBC   C04711176   0.581   3.766  13.771
  158SBC   C04911177   0.586   3.851  13.879
  158SBC   C04B11178   0.565   3.987  13.865
  158SBC   C04611179   0.561   3.812  13.649
  158SBC   C04H11180   0.529   3.943  13.633
  158SBC   C05D11181   0.674   3.468  13.947
  158SBC   C04A11182   0.603   3.806  14.006
  158SBC   C05T11183   0.623   3.883  14.119
  158SBC   C05511184   0.599   4.018  14.105
  158SBC   C06D11185   0.749   3.781  14.739
  158SBC   C07W11186   0.797   4.140  14.788
  158SBC   C08511187   0.944   4.210  15.248
  158SBC   H00M11188   0.968   4.279  15.327
  158SBC   C08411189   0.804   4.591  14.961
  158SBC   H00J11190   0.819   4.660  15.042
  158SBC   C07A11191   0.829   4.230  14.896
  158SBC   C08311192   0.749   4.641  14.846
  158SBC   H00K11193   0.715   4.743  14.839
  158SBC   O00K11194   0.666   4.732  14.599
  158SBC   C0GO11195   0.627   4.776  14.478
  158SBC   C0GN11196   0.623   4.915  14.450
  158SBC   H01L11197   0.645   4.983  14.530
  158SBC   C0GM11198   0.601   4.971  14.321
  158SBC   C0GL11199   0.618   5.103  14.306
  158SBC   H01M11200   0.641   5.166  14.390
  158SBC   O00J11201   0.599   5.161  14.181
  158SBC   C0GK11202   0.577   5.067  14.073
  158SBC   H01N11203   0.581   5.120  13.979
  158SBC   C05K11204   0.552   4.936  14.096
  158SBC   C05J11205   0.514   4.855  13.984
  158SBC   C04Y11206   0.486   4.892  13.849
  158SBC   C04X11207   0.467   4.803  13.742
  158SBC   O00611208   0.475   5.024  13.815
  158SBC   C05311209   0.464   5.080  13.692
  158SBC   C04O11210   0.436   4.991  13.585
  158SBC   C03C11211   0.422   5.024  13.445
  158SBC   C03B11212   0.433   5.139  13.368
  158SBC   C05411213   0.465   5.265  13.418
  158SBC   C0GR11214   0.461   5.380  13.335
  158SBC   C03M11215   0.450   5.408  13.189
  158SBC   C03I11216   0.452   5.312  13.081
  158SBC   C03J11217   0.463   5.360  12.946
  158SBC   N00211218   0.470   5.267  12.832
  158SBC   C02U11219   0.486   5.312  12.696
  158SBC   C02T11220   0.504   5.222  12.589
  158SBC   C02Z11221   0.523   5.271  12.462
  158SBC   N00111222   0.537   5.181  12.348
  158SBC   C02R11223   0.550   5.231  12.220
  158SBC   C03211224   0.552   5.368  12.198
  158SBC   C03111225   0.547   5.458  12.310
  158SBC   H00711226   0.562   5.563  12.289
  158SBC   C03311227   0.565   5.405  12.059
  158SBC   H00311228   0.579   5.509  12.035
  158SBC   O00411229   0.572   5.320  11.961
  158SBC   C03411230   0.549   5.183  11.985
  158SBC   C03511231   0.523   5.107  11.871
  158SBC   C03611232   0.509   4.966  11.895
  158SBC   H00511233   0.488   4.900  11.812
  158SBC   C03711234   0.501   4.914  12.021
  158SBC   H00611235   0.468   4.812  12.030
  158SBC   C00D11236   0.530   4.993  12.136
  158SBC   C00C11237   0.531   4.947  12.260
  158SBC   C00B11238   0.538   4.799  12.289
  158SBC   C00A11239   0.543   4.655  12.233
  158SBC   C00911240   0.510   4.573  12.343
  158SBC   C00811241   0.525   4.434  12.361
  158SBC   C00711242   0.556   4.359  12.254
  158SBC   C00611243   0.560   4.220  12.269
  158SBC   C00511244   0.602   4.138  12.158
  158SBC   C00411245   0.652   4.196  12.040
  158SBC   C00311246   0.643   4.341  12.032
  158SBC   C00211247   0.693   4.400  11.915
  158SBC   C01C11248   0.724   4.324  11.804
  158SBC   C01B11249   0.753   4.389  11.680
  158SBC   H00011250   0.725   4.492  11.664
  158SBC   C00111251   0.719   4.535  11.912
  158SBC   C00011252   0.674   4.614  12.019
  158SBC   C01U11253   0.731   4.745  11.984
  158SBC   H00211254   0.732   4.838  12.040
  158SBC   C01T11255   0.792   4.736  11.850
  158SBC   O00211256   0.834   4.830  11.780
  158SBC   O00111257   0.791   4.604  11.819
  158SBC   C01S11258   0.599   4.421  12.139
  158SBC   C00N11259   0.495   4.387  12.488
  158SBC   C00M11260   0.473   4.468  12.596
  158SBC   C00J11261   0.472   4.600  12.588
  158SBC   C00I11262   0.454   4.690  12.680
  158SBC   C00H11263   0.465   4.824  12.658
  158SBC   C00G11264   0.488   4.873  12.532
  158SBC   C00F11265   0.510   5.001  12.503
  158SBC   C01X11266   0.456   4.906  12.762
  158SBC   C01W11267   0.431   4.861  12.892
  158SBC   C01V11268   0.417   4.726  12.911
  158SBC   C02011269   0.397   4.671  13.039
  158SBC   C01Z11270   0.418   4.948  12.998
  158SBC   C02Y11271   0.380   4.891  13.114
  158SBC   C03911272   0.384   4.972  13.226
  158SBC   C02W11273   0.429   5.086  12.985
  158SBC   C01Y11274   0.473   5.043  12.742
  158SBC   C00U11275   0.434   4.641  12.806
  158SBC   C00S11276   0.430   4.505  12.830
  158SBC   C00T11277   0.422   4.457  12.958
  158SBC   C00R11278   0.450   4.419  12.723
  158SBC   C00Q11279   0.460   4.286  12.740
  158SBC   C00V11280   0.457   4.241  12.872
  158SBC   C02411281   0.464   4.102  12.892
  158SBC   C00X11282   0.459   4.017  12.785
  158SBC   C00P11283   0.476   4.204  12.637
  158SBC   C00O11284   0.499   4.251  12.508
  158SBC   C00K11285   0.485   4.651  12.455
  158SBC   N00011286   0.596   4.570  12.128
  158SBC   C00L11287   0.507   4.780  12.427
  158SBC   H00411288   0.532   5.153  11.773
  158SBC   C02Q11289   0.544   5.132  12.118
  158SBC   C00E11290   0.527   5.037  12.366
  158SBC   C03011291   0.533   5.407  12.438
  158SBC   O00311292   0.515   5.499  12.541
  158SBC   C02S11293   0.500   5.091  12.611
  158SBC   C03811294   0.492   5.449  12.671
  158SBC   C03L11295   0.475   5.531  12.777
  158SBC   H00811296   0.475   5.636  12.753
  158SBC   C02V11297   0.452   5.127  12.849
  158SBC   C03K11298   0.463   5.491  12.915
  158SBC   C0BK11299   0.448   5.580  13.020
  158SBC   H00T11300   0.458   5.681  12.984
  158SBC   C03H11301   0.430   5.174  13.095
  158SBC   C0BL11302   0.452   5.550  13.158
  158SBC   C0GU11303   0.469   5.646  13.253
  158SBC   H01O11304   0.473   5.749  13.220
  158SBC   C0GT11305   0.489   5.619  13.392
  158SBC   H01P11306   0.507   5.695  13.466
  158SBC   C0GS11307   0.475   5.489  13.428
  158SBC   C0GV11308   0.485   5.435  13.561
  158SBC   C0GW11309   0.491   5.507  13.684
  158SBC   H01Q11310   0.497   5.614  13.692
  158SBC   C0GX11311   0.498   5.426  13.792
  158SBC   H01R11312   0.510   5.477  13.886
  158SBC   O00L11313   0.501   5.288  13.797
  158SBC   C0GQ11314   0.476   5.295  13.551
  158SBC   C03A11315   0.423   5.107  13.226
  158SBC   C05L11316   0.478   5.222  13.674
  158SBC   C04W11317   0.521   4.717  14.006
  158SBC   C05I11318   0.548   4.661  14.129
  158SBC   C05O11319   0.568   4.742  14.242
  158SBC   C05211320   0.555   4.519  14.153
  158SBC   C04V11321   0.498   4.620  13.902
  158SBC   C04U11322   0.510   4.480  13.919
  158SBC   N00911323   0.571   4.880  14.225
  158SBC   C0GP11324   0.600   4.692  14.367
  158SBC   C05W11325   0.615   4.555  14.383
  158SBC   C07D11326   0.717   4.324  14.658
  158SBC   C06J11327   0.657   4.134  14.442
  158SBC   C05P11328   0.590   4.472  14.280
  158SBC   C05R11329   0.601   4.099  14.218
  158SBC   C04Z11330   0.543   4.429  14.050
  158SBC   C04C11331   0.564   4.070  13.977
  158SBC   C04G11332   0.535   4.033  13.741
  158SBC   C04J11333   0.475   4.124  13.488
  158SBC   C04T11334   0.504   4.393  13.815
  158SBC   N00311335   0.470   4.660  13.769
  158SBC   C04P11336   0.440   4.849  13.614
  158SBC   C03D11337   0.382   4.923  13.356
  158SBC   C02111338   0.378   4.759  13.143
  158SBC   C03F11339   0.428   4.531  13.426
  158SBC   C02211340   0.410   4.538  13.064
  158SBC   C02A11341   0.434   4.308  13.346
  158SBC   C02311342   0.428   4.324  12.979
  158SBC   C02511343   0.465   4.046  13.017
  158SBC   C02D11344   0.462   3.908  13.041
  158SBC   C02E11345   0.459   3.823  12.930
  158SBC   C02N11346   0.481   3.687  12.942
  158SBC   C04N11347   0.454   4.173  13.363
  158SBC   C02P11348   0.473   3.858  13.168
  158SBC   C04I11349   0.497   3.986  13.504
  158SBC   C04411350   0.557   3.724  13.541
  158SBC   C04311351   0.491   3.720  13.183
  158SBC   C05N11352   0.500   3.636  13.069
  158SBC   C09U11353   0.629   3.237  13.138
  158SBC   C09V11354   0.693   3.113  13.167
  158SBC   C09X11355   0.725   3.027  13.067
  158SBC   C09Y11356   0.813   2.918  13.073
  158SBC   C0A111357   0.847   2.878  13.196
  158SBC   C0A211358   0.805   2.954  13.306
  158SBC   C0A411359   0.838   2.916  13.436
  158SBC   C07111360   0.802   3.000  13.541
  158SBC   C0A511361   0.842   2.960  13.666
  158SBC   C0A911362   0.910   2.838  13.684
  158SBC   C0A811363   0.943   2.762  13.577
  158SBC   C0AP11364   1.005   2.641  13.599
  158SBC   C0BY11365   1.041   2.567  13.488
  158SBC   C0BX11366   1.007   2.602  13.360
  158SBC   C0C211367   1.061   2.525  13.255
  158SBC   C0C311368   1.051   2.572  13.125
  158SBC   C0CT11369   0.966   2.683  13.101
  158SBC   C0C111370   1.110   2.397  13.282
  158SBC   C0C011371   1.068   2.341  13.407
  158SBC   C0A711372   0.949   2.722  13.341
  158SBC   C0BZ11373   1.048   2.431  13.504
  158SBC   C0BO11374   1.054   2.379  13.630
  158SBC   C0BN11375   1.034   2.452  13.752
  158SBC   C0BM11376   1.029   2.385  13.866
  158SBC   C0B911377   0.995   2.460  13.980
  158SBC   C0B811378   0.975   2.600  13.962
  158SBC   C0AD11379   0.975   2.658  13.835
  158SBC   C0AF11380   0.935   2.675  14.067
  158SBC   C0AG11381   0.916   2.619  14.197
  158SBC   C0B711382   0.930   2.484  14.209
  158SBC   C0AE11383   0.893   2.799  14.043
  158SBC   C0AB11384   0.884   2.854  13.918
  158SBC   C0AA11385   0.834   2.984  13.898
  158SBC   C0AJ11386   0.860   2.872  14.154
  158SBC   C0AK11387   0.815   2.998  14.133
  158SBC   C06W11388   0.807   3.053  14.256
  158SBC   C0AI11389   0.865   2.835  14.287
  158SBC   C0BP11390   1.064   2.244  13.621
  158SBC   C0BQ11391   1.060   2.171  13.751
  158SBC   C0BW11392   1.003   2.581  13.727
  158SBC   C0AC11393   0.924   2.784  13.810
  158SBC   C0A611394   0.913   2.801  13.449
  158SBC   C0A311395   0.921   2.761  13.215
  158SBC   C09Z11396   0.853   2.840  12.964
  158SBC   C09W11397   0.731   3.071  13.291
  158SBC   C07211398   0.702   3.155  13.397
  158SBC   C09H11399   0.668   3.053  12.946
  158SBC   C09G11400   0.704   2.980  12.843
  158SBC   C09P11401   0.649   3.033  12.727
  158SBC   C02O11402   0.541   3.403  12.707
  158SBC   C02M11403   0.502   3.611  12.824
  158SBC   C02F11404   0.453   3.879  12.804
  158SBC   C00W11405   0.470   4.072  12.662
  158SBC   C01R11406   0.511   4.170  12.397
  158SBC   C01N11407   0.475   3.813  12.454
  158SBC   C01L11408   0.585   3.648  12.311
  158SBC   C01H11409   0.722   3.689  11.976
  158SBC   C01K11410   0.621   3.994  12.168
  158SBC   C01E11411   0.708   4.119  11.939
  158SBC   C01G11412   0.770   3.760  11.853
  158SBC   C01D11413   0.734   4.184  11.819
  158SBC   C01A11414   0.808   4.320  11.573
  158SBC   H00111415   0.826   4.370  11.478
  158SBC   C01F11416   0.855   3.903  11.621
  158SBC   C03P11417   0.974   3.779  11.403
  158SBC   C03T11418   0.972   3.576  11.522
  158SBC   C08I11419   1.041   3.307  11.570
  158SBC   C08J11420   1.093   3.184  11.615
  158SBC   C08L11421   1.108   3.013  11.790
  158SBC   C09311422   1.137   2.838  11.969
  158SBC   C08Z11423   0.931   2.971  12.107
  158SBC   C09T11424   1.096   2.629  12.396
  158SBC   C09S11425   0.830   2.871  12.372
  158SBC   C09Q11426   0.696   2.978  12.606
  158SBC   C09F11427   0.796   2.870  12.845
  158SBC   C09E11428   0.984   2.671  12.607
  158SBC   C0A011429   0.939   2.731  12.972
  158SBC   C0CU11430   1.107   2.501  13.022
  158SBC   C0CR11431   1.184   2.387  13.054
  158SBC   C0CZ11432   1.239   2.314  12.950
  158SBC   C0DA11433   1.091   2.593  12.547
  158SBC   C0D911434   1.150   2.254  12.511
  158SBC   H00V11435   1.066   2.259  12.444
  158SBC   C0CY11436   1.228   2.365  12.815
  158SBC   C0DF11437   1.208   2.134  12.567
  158SBC   C0DE11438   1.176   1.995  12.577
  158SBC   C0GI11439   1.130   1.907  12.475
  158SBC   H01K11440   1.121   1.936  12.371
  158SBC   C0GJ11441   1.119   1.778  12.509
  158SBC   H01J11442   1.093   1.712  12.429
  158SBC   O00I11443   1.134   1.728  12.643
  158SBC   C0GH11444   1.181   1.814  12.739
  158SBC   C0GG11445   1.214   1.749  12.866
  158SBC   O00G11446   1.176   1.616  12.877
  158SBC   C0G811447   1.217   1.546  12.986
  158SBC   C0G911448   1.226   1.407  12.979
  158SBC   H01G11449   1.240   1.356  12.885
  158SBC   C0GA11450   1.223   1.330  13.093
  158SBC   H01H11451   1.222   1.222  13.085
  158SBC   C0GB11452   1.203   1.383  13.216
  158SBC   C0EP11453   1.197   1.526  13.225
  158SBC   C0E811454   1.162   1.583  13.357
  158SBC   C0CK11455   1.150   1.707  13.413
  158SBC   C0CL11456   1.220   1.813  13.363
  158SBC   C0E911457   1.265   1.825  13.226
  158SBC   C0GE11458   1.244   1.751  13.102
  158SBC   C0E711459   1.141   1.503  13.472
  158SBC   C0CJ11460   1.103   1.571  13.592
  158SBC   C0E611461   1.091   1.497  13.709
  158SBC   H00Y11462   1.062   1.523  13.810
  158SBC   C0EO11463   1.098   1.352  13.691
  158SBC   H01111464   1.079   1.291  13.778
  158SBC   C0G611465   1.125   1.285  13.566
  158SBC   C0G511466   1.128   1.148  13.546
  158SBC   H01F11467   1.100   1.082  13.627
  158SBC   C0GD11468   1.154   1.091  13.430
  158SBC   H01I11469   1.147   0.984  13.420
  158SBC   O00H11470   1.186   1.163  13.318
  158SBC   C0EQ11471   1.152   1.364  13.451
  158SBC   C0GC11472   1.183   1.299  13.333
  158SBC   C0G711473   1.218   1.616  13.115
  158SBC   C0DD11474   1.211   1.948  12.708
  158SBC   C0GF11475   1.261   1.821  12.977
  158SBC   C0CO11476   1.322   1.949  13.229
  158SBC   C0D011477   1.293   2.187  12.984
  158SBC   C0C411478   1.184   2.330  13.189
  158SBC   C0CN11479   1.329   2.011  13.353
  158SBC   C0CP11480   1.076   2.217  13.481
  158SBC   C0CM11481   1.267   1.923  13.445
  158SBC   C0CI11482   1.088   1.705  13.550
  158SBC   C0CD11483   0.874   1.790  13.972
  158SBC   C0BR11484   1.049   2.032  13.750
  158SBC   C0CS11485   1.037   2.246  13.870
  158SBC   C0B611486   0.971   2.402  14.100
  158SBC   C0CG11487   0.915   1.993  14.102
  158SBC   C0CF11488   0.866   1.865  14.090
  158SBC   C0E511489   0.741   1.619  14.071
  158SBC   C0DT11490   0.664   1.492  14.301
  158SBC   C0DL11491   0.780   1.806  14.442
  158SBC   C0DM11492   0.773   1.875  14.565
  158SBC   C0DY11493   0.714   1.674  14.675
  158SBC   C0DU11494   0.636   1.428  14.418
  158SBC   C0F011495   0.518   1.244  14.522
  158SBC   C0F411496   0.368   1.153  14.727
  158SBC   C0FG11497   0.590   1.399  14.879
  158SBC   O00B11498   0.300   1.194  14.954
  158SBC   C0FN11499   0.550   1.456  14.992
  158SBC   C0DZ11500   0.662   1.611  14.791
  158SBC   O00C11501   0.612   1.896  15.016
  158SBC   C0FR11502   0.634   2.027  15.029
  158SBC   O00D11503   0.623   2.074  15.140
  158SBC   C0E011504   0.735   1.810  14.682
  158SBC   C0E311505   0.678   2.094  14.910
  158SBC   C0AW11506   0.685   2.233  14.895
  158SBC   C0AV11507   0.644   2.321  14.997
  158SBC   H00Q11508   0.584   2.296  15.082
  158SBC   C0AU11509   0.667   2.459  14.987
  158SBC   H00R11510   0.624   2.529  15.058
  158SBC   C0AT11511   0.699   2.517  14.864
  158SBC   C0AS11512   0.715   2.654  14.808
  158SBC   C0AR11513   0.730   2.768  14.893
  158SBC   C0BE11514   0.736   2.431  14.764
  158SBC   C0DN11515   0.787   2.009  14.558
  158SBC   C0AX11516   0.730   2.288  14.777
  158SBC   C0BB11517   0.843   2.214  14.443
  158SBC   C0BD11518   0.777   2.498  14.657
  158SBC   C0B211519   0.894   2.422  14.329
  158SBC   C0AH11520   0.872   2.696  14.310
  158SBC   C0BF11521   0.765   2.640  14.671
  158SBC   C0AL11522   0.842   2.962  14.356
  158SBC   C07U11523   0.743   2.945  14.700
  158SBC   C0AQ11524   0.712   2.901  14.835
  158SBC   C0BG11525   0.667   2.774  15.030
  158SBC   C0FY11526   0.611   3.070  15.215
  158SBC   C0BJ11527   0.732   2.751  15.160
  158SBC   H00S11528   0.805   2.675  15.183
  158SBC   C0FZ11529   0.661   3.058  15.342
  158SBC   C07S11530   0.620   3.190  15.142
  158SBC   C0G111531   0.714   3.404  15.440
  158SBC   C07K11532   0.611   3.680  15.203
  158SBC   C07H11533   0.640   3.456  15.021
  158SBC   C06B11534   0.772   3.737  14.861
  158SBC   C06N11535   0.706   3.684  14.653
  158SBC   C06611536   0.676   3.319  14.794
  158SBC   C06211537   0.751   3.250  14.495
  158SBC   C05Y11538   0.678   3.628  14.400
  158SBC   C06111539   0.787   3.270  14.362
  158SBC   C05H11540   0.694   3.485  14.091
  158SBC   C06V11541   0.786   3.185  14.251
  158SBC   C06Y11542   0.796   3.055  14.005
  158SBC   C05C11543   0.678   3.369  13.842
  158SBC   C06Z11544   0.810   3.040  13.772
  158SBC   C07011545   0.731   3.117  13.524
  158SBC   C05B11546   0.651   3.414  13.714
  158SBC   C05711547   0.579   3.502  13.458
  158SBC   C05911548   0.644   3.282  13.372
  13.29786  11.96116  19.26220   0.00000   0.00000   0.00000   0.00000   0.00000   0.00000
