; Include forcefield parameters
#include "../oplsaa.ff/forcefield.itp"
#include "../Ion_test.ff/ffnonbonded_AMBER-IOD.itp"
; include itp files
#include "S400.atp"
#include "S400-3.atp"
#include "S400.itp"
#include "S400-3.itp"
#include "../oplsaa.ff/spc.itp"
#include "../Ion_test.ff/ions.itp"
; include name of the system
[ system ]
; Name
S400 in water

[ molecules ]
; Compound        #mols
4G12c              300
NB4               300
SOL              8449
SOL              8449
SOL             18188
SOL         17813
Mn               104
CL               208
