generated by VMD, t= 0.000000
26109
    14G12c C00D    1   3.028   1.912   7.738
    14G12c O00B    2   3.100   1.990   7.650
    14G12c C025    3   3.223   2.041   7.685
    14G12c C026    4   3.231   2.143   7.796
    14G12c H00Y    5   3.136   2.196   7.804
    14G12c H00X    6   3.302   2.221   7.768
    14G12c O00C    7   3.263   2.079   7.921
    14G12c H00W    8   3.183   2.034   7.944
    14G12c C027    9   3.330   2.028   7.607
    14G12c O00D   10   3.316   1.959   7.489
    14G12c H00Z   11   3.398   1.945   7.445
    14G12c C028   12   3.460   2.085   7.629
    14G12c C029   13   3.533   2.069   7.748
    14G12c H010   14   3.492   2.002   7.822
    14G12c C02T   15   3.662   2.123   7.768
    14G12c H01O   16   3.703   2.102   7.866
    14G12c C02S   17   3.710   2.200   7.662
    14G12c O00J   18   3.832   2.258   7.685
    14G12c H01P   19   3.873   2.285   7.604
    14G12c C02R   20   3.638   2.226   7.545
    14G12c O00I   21   3.706   2.315   7.456
    14G12c C02Q   22   3.653   2.325   7.323
    14G12c H01N   23   3.645   2.243   7.251
    14G12c H01R   24   3.701   2.390   7.250
    14G12c H01Q   25   3.552   2.364   7.333
    14G12c C02A   26   3.513   2.161   7.526
    14G12c H011   27   3.457   2.176   7.435
    14G12c C00C   28   3.098   1.823   7.823
    14G12c H012   29   3.206   1.833   7.828
    14G12c C00B   30   3.031   1.716   7.894
    14G12c C00A   31   3.087   1.606   7.967
    14G12c C009   32   3.208   1.534   7.927
    14G12c C008   33   3.312   1.545   7.831
    14G12c H013   34   3.337   1.637   7.781
    14G12c C007   35   3.395   1.433   7.815
    14G12c H014   36   3.485   1.446   7.757
    14G12c C006   37   3.358   1.303   7.867
    14G12c C005   38   3.248   1.297   7.947
    14G12c C004   39   3.194   1.175   7.986
    14G12c C003   40   3.062   1.176   8.041
    14G12c C002   41   3.009   1.043   8.056
    14G12c C001   42   2.885   0.991   8.112
    14G12c C00M   43   2.755   1.055   8.087
    14G12c C00L   44   2.739   1.192   8.101
    14G12c C00R   45   2.626   1.266   8.058
    14G12c C00Q   46   2.508   1.225   7.988
    14G12c C00V   47   2.436   1.332   7.931
    14G12c C00U   48   2.485   1.458   7.917
    14G12c C00T   49   2.606   1.494   7.971
    14G12c C016   50   2.680   1.604   7.936
    14G12c C015   51   2.611   1.698   7.858
    14G12c C010   52   2.472   1.685   7.836
    14G12c C011   53   2.405   1.793   7.772
    14G12c H005   54   2.299   1.790   7.753
    14G12c C012   55   2.469   1.910   7.738
    14G12c C017   56   2.396   2.016   7.682
    14G12c O002   57   2.264   2.038   7.721
    14G12c H004   58   2.233   2.120   7.686
    14G12c C018   59   2.450   2.089   7.577
    14G12c O001   60   2.568   2.065   7.509
    14G12c H003   61   2.630   2.014   7.558
    14G12c C019   62   2.374   2.209   7.513
    14G12c H002   63   2.430   2.269   7.442
    14G12c H001   64   2.308   2.175   7.433
    14G12c O000   65   2.318   2.302   7.609
    14G12c C01A   66   2.252   2.408   7.551
    14G12c C02K   67   2.114   2.427   7.576
    14G12c O00G   68   2.042   2.333   7.642
    14G12c C02M   69   1.946   2.264   7.563
    14G12c H01G   70   1.991   2.210   7.480
    14G12c H01F   71   1.869   2.334   7.530
    14G12c H01E   72   1.912   2.189   7.634
    14G12c C02J   73   2.052   2.543   7.531
    14G12c H01H   74   1.948   2.551   7.558
    14G12c C02I   75   2.119   2.642   7.463
    14G12c C02N   76   2.048   2.754   7.421
    14G12c H01M   77   1.952   2.748   7.373
    14G12c C02O   78   2.105   2.873   7.446
    14G12c H01L   79   2.191   2.882   7.511
    14G12c C02P   80   2.046   3.003   7.400
    14G12c H01K   81   2.118   3.035   7.324
    14G12c H01J   82   1.953   2.988   7.346
    14G12c O00H   83   2.034   3.097   7.507
    14G12c H01I   84   1.974   3.065   7.572
    14G12c C02H   85   2.254   2.625   7.427
    14G12c H01C   86   2.307   2.703   7.374
    14G12c C02L   87   2.317   2.507   7.474
    14G12c H01D   88   2.425   2.496   7.472
    14G12c C013   89   2.605   1.921   7.772
    14G12c H000   90   2.649   2.019   7.762
    14G12c C014   91   2.680   1.812   7.817
    14G12c C00F   92   2.818   1.817   7.816
    14G12c C00H   93   2.819   1.620   7.963
    14G12c C00I   94   2.875   1.533   8.054
    14G12c C00J   95   2.793   1.416   8.096
    14G12c C00Z   96   2.410   1.563   7.860
    14G12c C00Y   97   2.273   1.543   7.820
    14G12c H006   98   2.207   1.617   7.777
    14G12c C00X   99   2.219   1.418   7.836
    14G12c O003  100   2.092   1.382   7.790
    14G12c C01B  101   2.085   1.349   7.658
    14G12c H009  102   1.984   1.319   7.629
    14G12c H008  103   2.147   1.262   7.635
    14G12c H007  104   2.119   1.430   7.594
    14G12c C00W  105   2.302   1.315   7.888
    14G12c O004  106   2.235   1.198   7.890
    14G12c C01C  107   2.319   1.091   7.916
    14G12c H00A  108   2.261   1.000   7.908
    14G12c C00P  109   2.456   1.095   7.962
    14G12c C00O  110   2.540   0.980   7.948
    14G12c C01D  111   2.509   0.871   7.855
    14G12c H00S  112   2.422   0.883   7.793
    14G12c C01E  113   2.596   0.770   7.819
    14G12c O008  114   2.558   0.674   7.727
    14G12c C01V  115   2.455   0.592   7.758
    14G12c C01Z  116   2.418   0.502   7.638
    14G12c H00R  117   2.336   0.432   7.651
    14G12c H00Q  118   2.393   0.566   7.553
    14G12c O009  119   2.539   0.428   7.619
    14G12c H00P  120   2.608   0.493   7.617
    14G12c C01W  121   2.396   0.569   7.880
    14G12c H00O  122   2.437   0.635   7.955
    14G12c C01X  123   2.289   0.470   7.914
    14G12c H00N  124   2.240   0.513   8.002
    14G12c H00M  125   2.220   0.452   7.832
    14G12c C01Y  126   2.339   0.333   7.968
    14G12c C02D  127   2.241   0.236   8.004
    14G12c H019  128   2.141   0.269   7.981
    14G12c C02C  129   2.280   0.114   8.058
    14G12c H01A  130   2.200   0.042   8.073
    14G12c C02B  131   2.417   0.089   8.076
    14G12c O00E  132   2.451   6.490   8.133
    14G12c H01B  133   2.545   6.481   8.139
    14G12c C02F  134   2.517   0.182   8.041
    14G12c O00F  135   2.649   0.144   8.066
    14G12c C02G  136   2.748   0.222   8.008
    14G12c H017  137   2.841   0.175   8.040
    14G12c H016  138   2.752   0.324   8.047
    14G12c H015  139   2.741   0.223   7.900
    14G12c C02E  140   2.476   0.308   7.982
    14G12c H018  141   2.556   0.374   7.949
    14G12c C01F  142   2.726   0.765   7.881
    14G12c C01G  143   2.843   0.695   7.832
    14G12c H00L  144   2.826   0.640   7.740
    14G12c C01H  145   2.975   0.724   7.880
    14G12c H00B  146   3.057   0.688   7.820
    14G12c C01I  147   2.989   0.825   7.978
    14G12c C01U  148   2.754   0.849   7.990
    14G12c C00S  149   2.665   1.397   8.053
    14G12c C00K  150   2.853   1.287   8.103
    14G12c C00N  151   2.672   0.967   8.007
    14G12c C000  152   2.875   0.863   8.053
    14G12c C01J  153   3.082   0.931   8.002
    14G12c C01K  154   3.214   0.930   7.958
    14G12c C01P  155   3.304   0.818   7.941
    14G12c C01Q  156   3.265   0.682   7.989
    14G12c H00G  157   3.186   0.672   8.062
    14G12c C01R  158   3.330   0.573   7.957
    14G12c H00F  159   3.418   0.573   7.895
    14G12c C01S  160   3.298   0.442   8.022
    14G12c H00E  161   3.356   0.425   8.113
    14G12c H00D  162   3.195   0.430   8.058
    14G12c O005  163   3.329   0.341   7.928
    14G12c H00C  164   3.420   0.323   7.944
    14G12c C01O  165   3.431   0.834   7.888
    14G12c H00H  166   3.506   0.757   7.883
    14G12c C01N  167   3.468   0.965   7.844
    14G12c O006  168   3.589   0.992   7.788
    14G12c C01T  169   3.646   0.897   7.698
    14G12c H00K  170   3.675   0.806   7.750
    14G12c H00J  171   3.730   0.943   7.646
    14G12c H00I  172   3.571   0.862   7.627
    14G12c C01M  173   3.384   1.071   7.874
    14G12c C020  174   2.994   1.291   8.084
    14G12c C021  175   3.075   1.406   8.079
    14G12c C01L  176   3.263   1.055   7.943
    14G12c O007  177   3.432   1.192   7.852
    14G12c C022  178   3.182   1.409   7.989
    14G12c C023  179   3.014   1.532   8.056
    14G12c C00G  180   2.891   1.715   7.893
    14G12c C00E  181   2.889   1.919   7.740
    14G12c O00A  182   2.834   1.997   7.639
    14G12c C024  183   2.875   2.134   7.648
    14G12c H00V  184   2.807   2.208   7.606
    14G12c H00U  185   2.968   2.148   7.592
    14G12c H00T  186   2.875   2.160   7.754
    24G12c C00D  187   6.419   6.450   5.567
    24G12c O00B  188   0.026   6.451   5.614
    24G12c C025  189   0.091   6.327   5.639
    24G12c C026  190   0.175   6.271   5.525
    24G12c H00Y  191   0.157   6.164   5.524
    24G12c H00X  192   0.278   6.297   5.549
    24G12c O00C  193   0.144   6.343   5.409
    24G12c H00W  194   0.119   6.431   5.434
    24G12c C027  195   0.055   6.252   5.749
    24G12c O00D  196   6.491   6.301   5.837
    24G12c H00Z  197   6.470   6.389   5.809
    24G12c C028  198   0.098   6.113   5.760
    24G12c C029  199   0.236   6.068   5.742
    24G12c H010  200   0.318   6.137   5.726
    24G12c C02T  201   0.268   5.931   5.765
    24G12c H01O  202   0.372   5.907   5.751
    24G12c C02S  203   0.166   5.841   5.796
    24G12c O00J  204   0.196   5.714   5.825
    24G12c H01P  205   0.113   5.670   5.816
    24G12c C02R  206   0.032   5.882   5.800
    24G12c O00I  207   6.459   5.787   5.812
    24G12c C02Q  208   6.322   5.823   5.809
    24G12c H01N  209   6.297   5.900   5.882
    24G12c H01R  210   6.265   5.734   5.836
    24G12c H01Q  211   6.299   5.866   5.712
    24G12c C02A  212   0.004   6.015   5.787
    24G12c H011  213   6.423   6.050   5.785
    24G12c C00C  214   6.353   6.337   5.523
    24G12c H012  215   6.405   6.242   5.522
    24G12c C00B  216   6.219   6.328   5.492
    24G12c C00A  217   6.142   6.208   5.465
    24G12c C009  218   6.179   6.076   5.409
    24G12c C008  219   6.301   6.006   5.389
    24G12c H013  220   6.397   6.034   5.431
    24G12c C007  221   6.299   5.904   5.289
    24G12c H014  222   6.387   5.848   5.263
    24G12c C006  223   6.187   5.866   5.215
    24G12c C005  224   6.068   5.933   5.254
    24G12c C004  225   5.951   5.922   5.174
    24G12c C003  226   5.840   6.011   5.199
    24G12c C002  227   5.728   5.997   5.112
    24G12c C001  228   5.607   6.073   5.093
    24G12c C00M  229   5.592   6.214   5.099
    24G12c C00L  230   5.653   6.290   5.202
    24G12c C00R  231   5.674   6.432   5.206
    24G12c C00Q  232   5.619   0.011   5.124
    24G12c C00V  233   5.669   0.141   5.160
    24G12c C00U  234   5.780   0.154   5.247
    24G12c C00T  235   5.840   0.048   5.312
    24G12c C016  236   5.953   0.053   5.391
    24G12c C015  237   6.021   0.174   5.401
    24G12c C010  238   5.956   0.290   5.346
    24G12c C011  239   6.018   0.415   5.379
    24G12c H005  240   5.976   0.508   5.343
    24G12c C012  241   6.140   0.426   5.445
    24G12c C017  242   6.195   0.561   5.471
    24G12c O002  243   6.102   0.660   5.506
    24G12c H004  244   6.022   0.618   5.533
    24G12c C018  245   6.328   0.596   5.472
    24G12c O001  246   6.430   0.517   5.429
    24G12c H003  247   6.511   0.559   5.453
    24G12c C019  248   6.372   0.730   5.517
    24G12c H002  249   6.379   0.799   5.432
    24G12c H001  250   6.302   0.775   5.587
    24G12c O000  251   6.505   0.734   5.572
    24G12c C01A  252   0.015   0.655   5.677
    24G12c C02K  253   0.155   0.614   5.696
    24G12c O00G  254   0.259   0.641   5.612
    24G12c C02M  255   0.241   0.706   5.489
    24G12c H01G  256   0.166   0.651   5.433
    24G12c H01F  257   0.336   0.696   5.435
    24G12c H01E  258   0.234   0.814   5.498
    24G12c C02J  259   0.178   0.523   5.798
    24G12c H01H  260   0.278   0.484   5.800
    24G12c C02I  261   0.083   0.474   5.882
    24G12c C02N  262   0.117   0.363   5.970
    24G12c H01M  263   0.212   0.349   6.019
    24G12c C02O  264   0.029   0.263   5.986
    24G12c H01L  265   6.460   0.249   5.928
    24G12c C02P  266   0.067   0.133   6.056
    24G12c H01K  267   0.161   0.145   6.108
    24G12c H01J  268   6.504   0.103   6.119
    24G12c O00H  269   0.067   0.031   5.952
    24G12c H01I  270   0.152   0.026   5.911
    24G12c C02H  271   6.468   0.518   5.863
    24G12c H01C  272   6.385   0.480   5.919
    24G12c C02L  273   6.438   0.617   5.769
    24G12c H01D  274   6.336   0.650   5.753
    24G12c C013  275   6.200   0.303   5.488
    24G12c H000  276   6.293   0.330   5.535
    24G12c C014  277   6.143   0.177   5.465
    24G12c C00F  278   6.212   0.057   5.505
    24G12c C00H  279   6.010   6.449   5.432
    24G12c C00I  280   5.939   6.329   5.423
    24G12c C00J  281   5.809   6.339   5.363
    24G12c C00Z  282   5.838   0.281   5.268
    24G12c C00Y  283   5.784   0.395   5.207
    24G12c H006  284   5.823   0.495   5.217
    24G12c C00X  285   5.671   0.385   5.120
    24G12c O003  286   5.635   0.500   5.059
    24G12c C01B  287   5.521   0.566   5.116
    24G12c H009  288   5.546   0.589   5.219
    24G12c H008  289   5.437   0.497   5.105
    24G12c H007  290   5.495   0.668   5.084
    24G12c C00W  291   5.613   0.257   5.097
    24G12c O004  292   5.510   0.250   5.010
    24G12c C01C  293   5.474   0.126   4.962
    24G12c H00A  294   5.382   0.116   4.907
    24G12c C00P  295   5.530   0.005   5.009
    24G12c C00O  296   5.507   6.404   4.935
    24G12c C01D  297   5.459   6.410   4.800
    24G12c H00S  298   5.448   6.507   4.754
    24G12c C01E  299   5.477   6.301   4.702
    24G12c O008  300   5.458   6.321   4.564
    24G12c C01V  301   5.388   6.432   4.520
    24G12c C01Z  302   5.450   6.505   4.403
    24G12c H00R  303   5.396   0.074   4.372
    24G12c H00Q  304   5.554   0.012   4.417
    24G12c O009  305   5.435   6.397   4.310
    24G12c H00P  306   5.468   6.318   4.349
    24G12c C01W  307   5.271   6.466   4.578
    24G12c H00O  308   5.234   6.399   4.654
    24G12c C01X  309   5.179   0.065   4.546
    24G12c H00N  310   5.218   0.107   4.453
    24G12c H00M  311   5.076   0.031   4.532
    24G12c C01Y  312   5.192   0.182   4.639
    24G12c C02D  313   5.091   0.230   4.729
    24G12c H019  314   4.994   0.184   4.741
    24G12c C02C  315   5.116   0.330   4.819
    24G12c H01A  316   5.038   0.357   4.889
    24G12c C02B  317   5.240   0.397   4.820
    24G12c O00E  318   5.265   0.500   4.902
    24G12c H01B  319   5.350   0.537   4.885
    24G12c C02F  320   5.343   0.358   4.733
    24G12c O00F  321   5.453   0.433   4.742
    24G12c C02G  322   5.575   0.383   4.697
    24G12c H017  323   5.609   0.301   4.760
    24G12c H016  324   5.645   0.462   4.724
    24G12c H015  325   5.577   0.358   4.591
    24G12c C02E  326   5.321   0.246   4.645
    24G12c H018  327   5.404   0.219   4.582
    24G12c C01F  328   5.524   6.178   4.760
    24G12c C01G  329   5.594   6.080   4.689
    24G12c H00L  330   5.613   6.089   4.583
    24G12c C01H  331   5.659   5.968   4.754
    24G12c H00B  332   5.738   5.915   4.702
    24G12c C01I  333   5.644   5.950   4.897
    24G12c C01U  334   5.518   6.155   4.901
    24G12c C00S  335   5.760   6.455   5.308
    24G12c C00K  336   5.751   6.231   5.290
    24G12c C00N  337   5.529   6.268   4.982
    24G12c C000  338   5.552   6.033   4.968
    24G12c C01J  339   5.743   5.915   4.997
    24G12c C01K  340   5.847   5.826   4.964
    24G12c C01P  341   5.859   5.723   4.867
    24G12c C01Q  342   5.744   5.683   4.794
    24G12c H00G  343   5.664   5.644   4.855
    24G12c C01R  344   5.747   5.672   4.658
    24G12c H00F  345   5.841   5.694   4.608
    24G12c C01S  346   5.640   5.609   4.572
    24G12c H00E  347   5.679   5.539   4.499
    24G12c H00D  348   5.565   5.565   4.639
    24G12c O005  349   5.582   5.723   4.511
    24G12c H00C  350   5.630   5.752   4.435
    24G12c C01O  351   5.976   5.654   4.848
    24G12c H00H  352   5.984   5.581   4.769
    24G12c C01N  353   6.090   5.666   4.927
    24G12c O006  354   6.201   5.581   4.930
    24G12c C01T  355   6.214   5.463   4.850
    24G12c H00K  356   6.284   5.388   4.888
    24G12c H00J  357   6.252   5.513   4.761
    24G12c H00I  358   6.116   5.420   4.833
    24G12c C01M  359   6.079   5.758   5.037
    24G12c C020  360   5.829   6.110   5.304
    24G12c C021  361   5.943   6.098   5.391
    24G12c C01L  362   5.957   5.835   5.062
    24G12c O007  363   6.188   5.775   5.114
    24G12c C022  364   6.058   6.027   5.353
    24G12c C023  365   6.000   6.211   5.455
    24G12c C00G  366   6.145   6.448   5.481
    24G12c C00E  367   6.350   0.050   5.552
    24G12c O00A  368   6.431   0.156   5.545
    24G12c C024  369   6.473   0.205   5.668
    24G12c H00V  370   0.025   0.140   5.715
    24G12c H00U  371   6.384   0.213   5.732
    24G12c H00T  372   6.518   0.303   5.652
    34G12c C00D  373   2.672   4.106   4.180
    34G12c O00B  374   2.740   4.003   4.233
    34G12c C025  375   2.792   4.021   4.359
    34G12c C026  376   2.894   4.131   4.380
    34G12c H00Y  377   2.945   4.143   4.285
    34G12c H00X  378   2.970   4.112   4.457
    34G12c O00C  379   2.828   4.250   4.401
    34G12c H00W  380   2.806   4.240   4.492
    34G12c C027  381   2.764   3.924   4.451
    34G12c O00D  382   2.685   3.822   4.414
    34G12c H00Z  383   2.681   3.826   4.319
    34G12c C028  384   2.821   3.928   4.579
    34G12c C029  385   2.949   3.867   4.601
    34G12c H010  386   3.003   3.821   4.520
    34G12c C02T  387   3.013   3.864   4.730
    34G12c H01O  388   3.113   3.825   4.735
    34G12c C02S  389   2.948   3.919   4.840
    34G12c O00J  390   3.007   3.936   4.958
    34G12c H01P  391   2.942   3.996   4.992
    34G12c C02R  392   2.828   3.988   4.816
    34G12c O00I  393   2.776   4.050   4.929
    34G12c C02Q  394   2.653   4.116   4.919
    34G12c H01N  395   2.663   4.184   4.835
    34G12c H01R  396   2.635   4.166   5.014
    34G12c H01Q  397   2.568   4.047   4.918
    34G12c C02A  398   2.766   3.997   4.694
    34G12c H011  399   2.678   4.059   4.682
    34G12c C00C  400   2.563   4.163   4.243
    34G12c H012  401   2.528   4.128   4.339
    34G12c C00B  402   2.517   4.290   4.215
    34G12c C00A  403   2.426   4.380   4.288
    34G12c C009  404   2.317   4.350   4.379
    34G12c C008  405   2.265   4.231   4.440
    34G12c H013  406   2.326   4.143   4.451
    34G12c C007  407   2.129   4.239   4.485
    34G12c H014  408   2.071   4.151   4.509
    34G12c C006  409   2.046   4.356   4.471
    34G12c C005  410   2.107   4.465   4.413
    34G12c C004  411   2.033   4.574   4.365
    34G12c C003  412   2.091   4.673   4.280
    34G12c C002  413   2.016   4.786   4.248
    34G12c C001  414   2.042   4.899   4.162
    34G12c C00M  415   2.107   4.885   4.033
    34G12c C00L  416   2.232   4.827   4.021
    34G12c C00R  417   2.304   4.798   3.902
    34G12c C00Q  418   2.262   4.801   3.764
    34G12c C00V  419   2.360   4.738   3.682
    34G12c C00U  420   2.461   4.651   3.724
    34G12c C00T  421   2.473   4.625   3.857
    34G12c C016  422   2.539   4.513   3.916
    34G12c C015  423   2.622   4.438   3.832
    34G12c C010  424   2.636   4.481   3.695
    34G12c C011  425   2.736   4.423   3.616
    34G12c H005  426   2.751   4.457   3.515
    34G12c C012  427   2.815   4.320   3.666
    34G12c C017  428   2.916   4.255   3.591
    34G12c O002  429   3.042   4.240   3.644
    34G12c H004  430   3.089   4.179   3.588
    34G12c C018  431   2.883   4.209   3.470
    34G12c O001  432   2.750   4.194   3.428
    34G12c H003  433   2.686   4.211   3.495
    34G12c C019  434   2.972   4.150   3.364
    34G12c H002  435   2.928   4.053   3.345
    34G12c H001  436   2.961   4.220   3.281
    34G12c O000  437   3.111   4.127   3.396
    34G12c C01A  438   3.185   4.072   3.291
    34G12c C02K  439   3.315   4.027   3.317
    34G12c O00G  440   3.358   4.028   3.450
    34G12c C02M  441   3.477   3.965   3.484
    34G12c H01G  442   3.492   3.864   3.446
    34G12c H01F  443   3.478   3.963   3.593
    34G12c H01E  444   3.557   4.027   3.444
    34G12c C02J  445   3.400   3.988   3.213
    34G12c H01H  446   3.502   3.965   3.241
    34G12c C02I  447   3.354   3.971   3.079
    34G12c C02N  448   3.438   3.934   2.968
    34G12c H01M  449   3.441   3.978   2.870
    34G12c C02O  450   3.526   3.832   2.992
    34G12c H01L  451   3.522   3.772   3.082
    34G12c C02P  452   3.634   3.784   2.894
    34G12c H01K  453   3.726   3.832   2.925
    34G12c H01J  454   3.637   3.677   2.917
    34G12c O00H  455   3.613   3.816   2.758
    34G12c H01I  456   3.614   3.910   2.745
    34G12c C02H  457   3.219   4.009   3.057
    34G12c H01C  458   3.168   3.978   2.967
    34G12c C02L  459   3.139   4.052   3.154
    34G12c H01D  460   3.039   4.089   3.133
    34G12c C013  461   2.801   4.284   3.805
    34G12c H000  462   2.874   4.213   3.840
    34G12c C014  463   2.697   4.337   3.885
    34G12c C00F  464   2.663   4.283   4.011
    34G12c C00H  465   2.523   4.474   4.052
    34G12c C00I  466   2.452   4.565   4.133
    34G12c C00J  467   2.404   4.686   4.073
    34G12c C00Z  468   2.546   4.581   3.643
    34G12c C00Y  469   2.536   4.608   3.500
    34G12c H006  470   2.588   4.547   3.427
    34G12c C00X  471   2.445   4.706   3.456
    34G12c O003  472   2.426   4.731   3.318
    34G12c C01B  473   2.505   4.664   3.223
    34G12c H009  474   2.486   4.701   3.122
    34G12c H008  475   2.473   4.560   3.218
    34G12c H007  476   2.613   4.669   3.237
    34G12c C00W  477   2.352   4.763   3.544
    34G12c O004  478   2.257   4.837   3.486
    34G12c C01C  479   2.136   4.845   3.558
    34G12c H00A  480   2.055   4.795   3.508
    34G12c C00P  481   2.142   4.859   3.703
    34G12c C00O  482   2.027   4.906   3.782
    34G12c C01D  483   1.905   4.944   3.714
    34G12c H00S  484   1.902   4.960   3.608
    34G12c C01E  485   1.779   4.961   3.784
    34G12c O008  486   1.659   4.991   3.728
    34G12c C01V  487   1.664   5.047   3.601
    34G12c C01Z  488   1.687   5.200   3.603
    34G12c H00R  489   1.760   5.215   3.683
    34G12c H00Q  490   1.726   5.243   3.511
    34G12c O009  491   1.561   5.253   3.619
    34G12c H00P  492   1.494   5.187   3.605
    34G12c C01W  493   1.677   4.977   3.485
    34G12c H00O  494   1.662   4.870   3.491
    34G12c C01X  495   1.693   5.019   3.343
    34G12c H00N  496   1.623   4.964   3.279
    34G12c H00M  497   1.679   5.127   3.330
    34G12c C01Y  498   1.832   4.980   3.297
    34G12c C02D  499   1.844   4.864   3.218
    34G12c H019  500   1.755   4.804   3.213
    34G12c C02C  501   1.964   4.809   3.186
    34G12c H01A  502   1.962   4.711   3.141
    34G12c C02B  503   2.082   4.876   3.216
    34G12c O00E  504   2.199   4.815   3.177
    34G12c H01B  505   2.263   4.837   3.243
    34G12c C02F  506   2.078   4.999   3.288
    34G12c O00F  507   2.204   5.054   3.324
    34G12c C02G  508   2.198   5.167   3.409
    34G12c H017  509   2.118   5.162   3.483
    34G12c H016  510   2.185   5.263   3.360
    34G12c H015  511   2.289   5.167   3.469
    34G12c C02E  512   1.951   5.050   3.327
    34G12c H018  513   1.947   5.148   3.372
    34G12c C01F  514   1.779   4.950   3.926
    34G12c C01G  515   1.663   4.921   4.007
    34G12c H00L  516   1.558   4.911   3.983
    34G12c C01H  517   1.689   4.873   4.141
    34G12c H00B  518   1.608   4.826   4.195
    34G12c C01I  519   1.818   4.886   4.204
    34G12c C01U  520   1.903   4.960   3.996
    34G12c C00S  521   2.404   4.708   3.938
    34G12c C00K  522   2.278   4.741   4.120
    34G12c C00N  523   2.023   4.918   3.924
    34G12c C000  524   1.919   4.958   4.137
    34G12c C01J  525   1.883   4.794   4.298
    34G12c C01K  526   1.813   4.699   4.383
    34G12c C01P  527   1.687   4.707   4.447
    34G12c C01Q  528   1.607   4.828   4.451
    34G12c H00G  529   1.501   4.811   4.446
    34G12c C01R  530   1.648   4.948   4.478
    34G12c H00F  531   1.755   4.964   4.480
    34G12c C01S  532   1.566   5.072   4.500
    34G12c H00E  533   1.613   5.161   4.457
    34G12c H00D  534   1.478   5.057   4.436
    34G12c O005  535   1.528   5.098   4.634
    34G12c H00C  536   1.484   5.181   4.637
    34G12c C01O  537   1.640   4.597   4.518
    34G12c H00H  538   1.547   4.619   4.568
    34G12c C01N  539   1.714   4.475   4.532
    34G12c O006  540   1.646   4.375   4.600
    34G12c C01T  541   1.715   4.261   4.642
    34G12c H00K  542   1.806   4.291   4.695
    34G12c H00J  543   1.749   4.198   4.559
    34G12c H00I  544   1.666   4.188   4.707
    34G12c C01M  545   1.845   4.474   4.479
    34G12c C020  546   2.229   4.674   4.241
    34G12c C021  547   2.304   4.576   4.312
    34G12c C01L  548   1.895   4.583   4.401
    34G12c O007  549   1.917   4.357   4.495
    34G12c C022  550   2.243   4.470   4.381
    34G12c C023  551   2.416   4.516   4.253
    34G12c C00G  552   2.564   4.344   4.092
    34G12c C00E  553   2.720   4.165   4.059
    34G12c O00A  554   2.816   4.084   3.997
    34G12c C024  555   2.767   3.960   3.940
    34G12c H00V  556   2.709   3.967   3.848
    34G12c H00U  557   2.707   3.908   4.014
    34G12c H00T  558   2.851   3.891   3.926
    44G12c C00D  559   1.335   1.472   9.033
    44G12c O00B  560   1.352   1.418   9.160
    44G12c C025  561   1.432   1.470   9.254
    44G12c C026  562   1.398   1.615   9.291
    44G12c H00Y  563   1.470   1.686   9.249
    44G12c H00X  564   1.401   1.615   9.400
    44G12c O00C  565   1.267   1.649   9.245
    44G12c H00W  566   1.210   1.586   9.287
    44G12c C027  567   1.516   1.389   9.326
    44G12c O00D  568   1.519   1.261   9.288
    44G12c H00Z  569   1.451   1.254   9.222
    44G12c C028  570   1.596   1.431   9.442
    44G12c C029  571   1.668   1.553   9.454
    44G12c H010  572   1.655   1.620   9.371
    44G12c C02T  573   1.744   1.582   9.566
    44G12c H01O  574   1.791   1.679   9.563
    44G12c C02S  575   1.757   1.488   9.667
    44G12c O00J  576   1.825   1.527   9.777
    44G12c H01P  577   1.867   1.612   9.777
    44G12c C02R  578   1.694   1.360   9.659
    44G12c O00I  579   1.703   1.267   9.758
    44G12c C02Q  580   1.724   1.129   9.734
    44G12c H01N  581   1.787   1.110   9.647
    44G12c H01R  582   1.625   1.086   9.717
    44G12c H01Q  583   1.751   1.074   9.824
    44G12c C02A  584   1.615   1.339   9.549
    44G12c H011  585   1.558   1.247   9.540
    44G12c C00C  586   1.420   1.574   8.989
    44G12c H012  587   1.500   1.612   9.050
    44G12c C00B  588   1.394   1.641   8.867
    44G12c C00A  589   1.454   1.763   8.824
    44G12c C009  590   1.493   1.882   8.897
    44G12c C008  591   1.486   1.920   9.034
    44G12c H013  592   1.492   1.842   9.109
    44G12c C007  593   1.474   2.059   9.068
    44G12c H014  594   1.470   2.080   9.174
    44G12c C006  595   1.464   2.165   8.974
    44G12c C005  596   1.465   2.126   8.839
    44G12c C004  597   1.420   2.211   8.736
    44G12c C003  598   1.397   2.156   8.608
    44G12c C002  599   1.356   2.254   8.514
    44G12c C001  600   1.307   2.241   8.374
    44G12c C00M  601   1.218   2.133   8.327
    44G12c C00L  602   1.230   1.995   8.371
    44G12c C00R  603   1.140   1.890   8.345
    44G12c C00Q  604   1.005   1.900   8.302
    44G12c C00V  605   0.935   1.780   8.330
    44G12c C00U  606   0.986   1.673   8.411
    44G12c C00T  607   1.111   1.682   8.468
    44G12c C016  608   1.155   1.610   8.581
    44G12c C015  609   1.077   1.501   8.619
    44G12c C010  610   0.970   1.463   8.536
    44G12c C011  611   0.913   1.336   8.543
    44G12c H005  612   0.846   1.293   8.470
    44G12c C012  613   0.955   1.249   8.643
    44G12c C017  614   0.900   1.115   8.656
    44G12c O002  615   0.772   1.104   8.626
    44G12c H004  616   0.736   1.020   8.649
    44G12c C018  617   0.977   1.012   8.688
    44G12c O001  618   1.114   1.024   8.690
    44G12c H003  619   1.146   0.937   8.705
    44G12c C019  620   0.925   0.877   8.726
    44G12c H002  621   0.940   0.801   8.649
    44G12c H001  622   0.978   0.855   8.819
    44G12c O000  623   0.787   0.887   8.760
    44G12c C01A  624   0.735   0.784   8.830
    44G12c C02K  625   0.597   0.799   8.860
    44G12c O00G  626   0.533   0.918   8.832
    44G12c C02M  627   0.475   0.916   8.708
    44G12c H01G  628   0.428   1.007   8.669
    44G12c H01F  629   0.406   0.832   8.699
    44G12c H01E  630   0.553   0.888   8.638
    44G12c C02J  631   0.527   0.705   8.931
    44G12c H01H  632   0.428   0.736   8.962
    44G12c C02I  633   0.591   0.593   8.989
    44G12c C02N  634   0.528   0.502   9.087
    44G12c H01M  635   0.575   0.421   9.141
    44G12c C02O  636   0.397   0.507   9.116
    44G12c H01L  637   0.329   0.583   9.081
    44G12c C02P  638   0.329   0.425   9.224
    44G12c H01K  639   0.251   0.485   9.272
    44G12c H01J  640   0.283   0.337   9.179
    44G12c O00H  641   0.419   0.391   9.335
    44G12c H01I  642   0.421   0.466   9.392
    44G12c C02H  643   0.727   0.580   8.956
    44G12c H01C  644   0.781   0.503   9.009
    44G12c C02L  645   0.801   0.668   8.876
    44G12c H01D  646   0.903   0.639   8.854
    44G12c C013  647   1.054   1.300   8.736
    44G12c H000  648   1.076   1.233   8.818
    44G12c C014  649   1.114   1.428   8.728
    44G12c C00F  650   1.213   1.480   8.818
    44G12c C00H  651   1.269   1.651   8.654
    44G12c C00I  652   1.345   1.758   8.611
    44G12c C00J  653   1.298   1.820   8.496
    44G12c C00Z  654   0.912   1.560   8.447
    44G12c C00Y  655   0.782   1.541   8.389
    44G12c H006  656   0.718   1.457   8.411
    44G12c C00X  657   0.728   1.640   8.308
    44G12c O003  658   0.605   1.627   8.253
    44G12c C01B  659   0.510   1.534   8.306
    44G12c H009  660   0.415   1.535   8.252
    44G12c H008  661   0.488   1.560   8.409
    44G12c H007  662   0.533   1.427   8.309
    44G12c C00W  663   0.806   1.756   8.281
    44G12c O004  664   0.740   1.846   8.204
    44G12c C01C  665   0.803   1.961   8.178
    44G12c H00A  666   0.774   2.023   8.094
    44G12c C00P  667   0.925   2.004   8.241
    44G12c C00O  668   0.961   2.140   8.252
    44G12c C01D  669   0.860   2.239   8.238
    44G12c H00S  670   0.762   2.203   8.211
    44G12c C01E  671   0.870   2.375   8.287
    44G12c O008  672   0.759   2.458   8.306
    44G12c C01V  673   0.638   2.427   8.242
    44G12c C01Z  674   0.522   2.386   8.332
    44G12c H00R  675   0.557   2.382   8.435
    44G12c H00Q  676   0.438   2.453   8.317
    44G12c O009  677   0.477   2.252   8.302
    44G12c H00P  678   0.391   2.234   8.337
    44G12c C01W  679   0.625   2.440   8.110
    44G12c H00O  680   0.708   2.468   8.047
    44G12c C01X  681   0.496   2.420   8.023
    44G12c H00N  682   0.410   2.408   8.088
    44G12c H00M  683   0.477   2.505   7.958
    44G12c C01Y  684   0.525   2.299   7.932
    44G12c C02D  685   0.602   2.310   7.815
    44G12c H019  686   0.658   2.400   7.794
    44G12c C02C  687   0.601   2.207   7.723
    44G12c H01A  688   0.653   2.221   7.629
    44G12c C02B  689   0.537   2.086   7.753
    44G12c O00E  690   0.541   1.983   7.663
    44G12c H01B  691   0.519   1.896   7.694
    44G12c C02F  692   0.474   2.064   7.873
    44G12c O00F  693   0.438   1.937   7.904
    44G12c C02G  694   0.407   1.891   8.036
    44G12c H017  695   0.330   1.955   8.079
    44G12c H016  696   0.487   1.905   8.108
    44G12c H015  697   0.382   1.785   8.038
    44G12c C02E  698   0.459   2.175   7.962
    44G12c H018  699   0.410   2.166   8.058
    44G12c C01F  700   0.993   2.417   8.336
    44G12c C01G  701   1.010   2.523   8.422
    44G12c H00L  702   0.925   2.582   8.453
    44G12c C01H  703   1.132   2.535   8.494
    44G12c H00B  704   1.115   2.585   8.588
    44G12c C01I  705   1.246   2.447   8.468
    44G12c C01U  706   1.110   2.334   8.318
    44G12c C00S  707   1.187   1.788   8.428
    44G12c C00K  708   1.326   1.955   8.472
    44G12c C00N  709   1.091   2.191   8.296
    44G12c C000  710   1.244   2.364   8.353
    44G12c C01J  711   1.333   2.385   8.558
    44G12c C01K  712   1.361   2.445   8.684
    44G12c C01P  713   1.353   2.585   8.731
    44G12c C01Q  714   1.352   2.698   8.647
    44G12c H00G  715   1.283   2.778   8.669
    44G12c C01R  716   1.432   2.698   8.538
    44G12c H00F  717   1.503   2.621   8.513
    44G12c C01S  718   1.438   2.818   8.447
    44G12c H00E  719   1.394   2.900   8.503
    44G12c H00D  720   1.541   2.845   8.427
    44G12c O005  721   1.364   2.810   8.326
    44G12c H00C  722   1.415   2.749   8.274
    44G12c C01O  723   1.365   2.615   8.866
    44G12c H00H  724   1.351   2.716   8.900
    44G12c C01N  725   1.391   2.509   8.959
    44G12c O006  726   1.391   2.522   9.094
    44G12c C01T  727   1.357   2.654   9.152
    44G12c H00K  728   1.369   2.663   9.260
    44G12c H00J  729   1.252   2.679   9.134
    44G12c H00I  730   1.424   2.732   9.115
    44G12c C01M  731   1.411   2.379   8.915
    44G12c C020  732   1.406   2.019   8.572
    44G12c C021  733   1.468   1.942   8.674
    44G12c C01L  734   1.402   2.345   8.776
    44G12c O007  735   1.436   2.289   9.012
    44G12c C022  736   1.493   1.990   8.799
    44G12c C023  737   1.445   1.805   8.693
    44G12c C00G  738   1.292   1.592   8.781
    44G12c C00E  739   1.237   1.426   8.951
    44G12c O00A  740   1.160   1.329   9.013
    44G12c C024  741   1.037   1.376   9.069
    44G12c H00V  742   1.048   1.480   9.102
    44G12c H00U  743   1.009   1.323   9.160
    44G12c H00T  744   0.959   1.363   8.994
    54G12c C00D  745   3.136   3.786   7.486
    54G12c O00B  746   3.201   3.798   7.359
    54G12c C025  747   3.319   3.869   7.362
    54G12c C026  748   3.295   4.019   7.351
    54G12c H00Y  749   3.391   4.064   7.374
    54G12c H00X  750   3.230   4.050   7.434
    54G12c O00C  751   3.234   4.060   7.229
    54G12c H00W  752   3.164   4.002   7.205
    54G12c C027  753   3.442   3.813   7.363
    54G12c O00D  754   3.453   3.677   7.363
    54G12c H00Z  755   3.363   3.649   7.361
    54G12c C028  756   3.563   3.887   7.379
    54G12c C029  757   3.593   3.947   7.500
    54G12c H010  758   3.526   3.934   7.585
    54G12c C02T  759   3.713   4.022   7.513
    54G12c H01O  760   3.740   4.068   7.607
    54G12c C02S  761   3.797   4.039   7.407
    54G12c O00J  762   3.916   4.099   7.425
    54G12c H01P  763   3.962   4.102   7.342
    54G12c C02R  764   3.766   3.986   7.284
    54G12c O00I  765   3.861   4.007   7.181
    54G12c C02Q  766   3.854   3.920   7.069
    54G12c H01N  767   3.925   3.954   6.994
    54G12c H01R  768   3.754   3.915   7.026
    54G12c H01Q  769   3.881   3.816   7.088
    54G12c C02A  770   3.647   3.912   7.271
    54G12c H011  771   3.614   3.865   7.179
    54G12c C00C  772   3.208   3.804   7.603
    54G12c H012  773   3.315   3.818   7.600
    54G12c C00B  774   3.142   3.810   7.733
    54G12c C00A  775   3.200   3.831   7.863
    54G12c C009  776   3.332   3.798   7.914
    54G12c C008  777   3.453   3.738   7.861
    54G12c H013  778   3.464   3.720   7.755
    54G12c C007  779   3.538   3.675   7.954
    54G12c H014  780   3.618   3.607   7.929
    54G12c C006  781   3.517   3.679   8.093
    54G12c C005  782   3.400   3.755   8.141
    54G12c C004  783   3.340   3.723   8.266
    54G12c C003  784   3.205   3.763   8.296
    54G12c C002  785   3.161   3.740   8.430
    54G12c C001  786   3.038   3.771   8.498
    54G12c C00M  787   2.909   3.744   8.436
    54G12c C00L  788   2.871   3.800   8.313
    54G12c C00R  789   2.762   3.762   8.240
    54G12c C00Q  790   2.646   3.680   8.270
    54G12c C00V  791   2.573   3.658   8.154
    54G12c C00U  792   2.611   3.692   8.015
    54G12c C00T  793   2.727   3.754   7.989
    54G12c C016  794   2.793   3.769   7.870
    54G12c C015  795   2.725   3.715   7.761
    54G12c C010  796   2.596   3.659   7.777
    54G12c C011  797   2.528   3.603   7.664
    54G12c H005  798   2.429   3.562   7.674
    54G12c C012  799   2.590   3.606   7.539
    54G12c C017  800   2.513   3.559   7.424
    54G12c O002  801   2.507   3.629   7.305
    54G12c H004  802   2.448   3.580   7.250
    54G12c C018  803   2.448   3.440   7.431
    54G12c O001  804   2.463   3.364   7.536
    54G12c H003  805   2.525   3.414   7.587
    54G12c C019  806   2.359   3.374   7.319
    54G12c H002  807   2.398   3.282   7.275
    54G12c H001  808   2.262   3.354   7.365
    54G12c O000  809   2.345   3.448   7.204
    54G12c C01A  810   2.283   3.372   7.105
    54G12c C02K  811   2.149   3.336   7.113
    54G12c O00G  812   2.071   3.394   7.212
    54G12c C02M  813   1.935   3.345   7.240
    54G12c H01G  814   1.912   3.415   7.321
    54G12c H01F  815   1.933   3.240   7.268
    54G12c H01E  816   1.857   3.360   7.165
    54G12c C02J  817   2.107   3.235   7.024
    54G12c H01H  818   2.002   3.214   7.039
    54G12c C02I  819   2.190   3.171   6.932
    54G12c C02N  820   2.145   3.071   6.839
    54G12c H01M  821   2.210   3.026   6.766
    54G12c C02O  822   2.020   3.025   6.840
    54G12c H01L  823   1.945   3.069   6.904
    54G12c C02P  824   1.967   2.911   6.761
    54G12c H01K  825   1.862   2.888   6.781
    54G12c H01J  826   1.978   2.935   6.655
    54G12c O00H  827   2.050   2.794   6.783
    54G12c H01I  828   2.132   2.806   6.736
    54G12c C02H  829   2.324   3.203   6.934
    54G12c H01C  830   2.399   3.152   6.875
    54G12c C02L  831   2.367   3.310   7.016
    54G12c H01D  832   2.473   3.333   7.017
    54G12c C013  833   2.715   3.671   7.522
    54G12c H000  834   2.750   3.675   7.420
    54G12c C014  835   2.786   3.716   7.636
    54G12c C00F  836   2.926   3.754   7.625
    54G12c C00H  837   2.926   3.815   7.862
    54G12c C00I  838   2.988   3.847   7.978
    54G12c C00J  839   2.914   3.854   8.098
    54G12c C00Z  840   2.541   3.648   7.904
    54G12c C00Y  841   2.422   3.577   7.930
    54G12c H006  842   2.373   3.523   7.851
    54G12c C00X  843   2.367   3.556   8.061
    54G12c O003  844   2.248   3.492   8.083
    54G12c C01B  845   2.194   3.425   7.974
    54G12c H009  846   2.175   3.488   7.886
    54G12c H008  847   2.098   3.390   8.013
    54G12c H007  848   2.240   3.327   7.956
    54G12c C00W  849   2.447   3.594   8.169
    54G12c O004  850   2.402   3.565   8.292
    54G12c C01C  851   2.497   3.519   8.376
    54G12c H00A  852   2.479   3.420   8.415
    54G12c C00P  853   2.621   3.593   8.380
    54G12c C00O  854   2.708   3.586   8.493
    54G12c C01D  855   2.672   3.491   8.593
    54G12c H00S  856   2.574   3.445   8.595
    54G12c C01E  857   2.770   3.446   8.685
    54G12c O008  858   2.739   3.339   8.765
    54G12c C01V  859   2.711   3.382   8.898
    54G12c C01Z  860   2.756   3.285   9.005
    54G12c H00R  861   2.851   3.236   8.981
    54G12c H00Q  862   2.776   3.332   9.102
    54G12c O009  863   2.660   3.184   9.009
    54G12c H00P  864   2.679   3.125   8.937
    54G12c C01W  865   2.651   3.497   8.926
    54G12c H00O  866   2.624   3.576   8.858
    54G12c C01X  867   2.603   3.534   9.073
    54G12c H00N  868   2.501   3.573   9.073
    54G12c H00M  869   2.592   3.445   9.135
    54G12c C01Y  870   2.690   3.635   9.142
    54G12c C02D  871   2.659   3.675   9.274
    54G12c H019  872   2.572   3.636   9.326
    54G12c C02C  873   2.722   3.780   9.338
    54G12c H01A  874   2.686   3.819   9.432
    54G12c C02B  875   2.832   3.842   9.281
    54G12c O00E  876   2.908   3.931   9.355
    54G12c H01B  877   2.979   3.959   9.300
    54G12c C02F  878   2.880   3.794   9.158
    54G12c O00F  879   3.002   3.840   9.108
    54G12c C02G  880   3.070   3.771   9.005
    54G12c H017  881   3.014   3.760   8.912
    54G12c H016  882   3.097   3.673   9.044
    54G12c H015  883   3.165   3.820   8.982
    54G12c C02E  884   2.804   3.702   9.084
    54G12c H018  885   2.839   3.675   8.985
    54G12c C01F  886   2.901   3.499   8.682
    54G12c C01G  887   3.017   3.438   8.739
    54G12c H00L  888   3.011   3.347   8.796
    54G12c C01H  889   3.145   3.488   8.694
    54G12c H00B  890   3.219   3.410   8.704
    54G12c C01I  891   3.158   3.610   8.622
    54G12c C01U  892   2.924   3.624   8.616
    54G12c C00S  893   2.790   3.802   8.105
    54G12c C00K  894   2.977   3.845   8.224
    54G12c C00N  895   2.829   3.656   8.516
    54G12c C000  896   3.042   3.692   8.607
    54G12c C01J  897   3.240   3.653   8.514
    54G12c C01K  898   3.376   3.615   8.486
    54G12c C01P  899   3.470   3.556   8.576
    54G12c C01Q  900   3.443   3.525   8.719
    54G12c H00G  901   3.402   3.608   8.775
    54G12c C01R  902   3.458   3.410   8.792
    54G12c H00F  903   3.488   3.320   8.740
    54G12c C01S  904   3.425   3.396   8.941
    54G12c H00E  905   3.373   3.486   8.975
    54G12c H00D  906   3.365   3.307   8.959
    54G12c O005  907   3.546   3.408   9.012
    54G12c H00C  908   3.531   3.363   9.094
    54G12c C01O  909   3.594   3.508   8.531
    54G12c H00H  910   3.661   3.454   8.596
    54G12c C01N  911   3.633   3.525   8.399
    54G12c O006  912   3.747   3.470   8.340
    54G12c C01T  913   3.829   3.384   8.419
    54G12c H00K  914   3.872   3.429   8.508
    54G12c H00J  915   3.913   3.359   8.354
    54G12c H00I  916   3.781   3.289   8.442
    54G12c C01M  917   3.548   3.596   8.308
    54G12c C020  918   3.120   3.840   8.206
    54G12c C021  919   3.191   3.876   8.094
    54G12c C01L  920   3.416   3.641   8.353
    54G12c O007  921   3.590   3.599   8.178
    54G12c C022  922   3.318   3.833   8.052
    54G12c C023  923   3.123   3.880   7.969
    54G12c C00G  924   2.998   3.796   7.740
    54G12c C00E  925   2.998   3.754   7.497
    54G12c O00A  926   2.938   3.749   7.374
    54G12c C024  927   2.897   3.875   7.317
    54G12c H00V  928   2.816   3.915   7.377
    54G12c H00U  929   2.858   3.862   7.215
    54G12c H00T  930   2.968   3.958   7.315
    64G12c C00D  931   0.009   4.959   2.978
    64G12c O00B  932   0.136   4.937   3.028
    64G12c C025  933   0.194   4.814   3.019
    64G12c C026  934   0.281   4.782   2.901
    64G12c H00Y  935   0.231   4.812   2.809
    64G12c H00X  936   0.318   4.681   2.882
    64G12c O00C  937   0.397   4.854   2.904
    64G12c H00W  938   0.458   4.814   2.844
    64G12c C027  939   0.169   4.725   3.118
    64G12c O00D  940   0.094   4.758   3.231
    64G12c H00Z  941   0.028   4.817   3.199
    64G12c C028  942   0.239   4.593   3.118
    64G12c C029  943   0.161   4.476   3.142
    64G12c H010  944   0.054   4.482   3.155
    64G12c C02T  945   0.221   4.350   3.149
    64G12c H01O  946   0.157   4.264   3.164
    64G12c C02S  947   0.360   4.337   3.136
    64G12c O00J  948   0.417   4.218   3.141
    64G12c H01P  949   0.505   4.219   3.107
    64G12c C02R  950   0.439   4.451   3.107
    64G12c O00I  951   0.572   4.432   3.091
    64G12c C02Q  952   0.641   4.526   3.017
    64G12c H01N  953   0.748   4.503   3.018
    64G12c H01R  954   0.655   4.627   3.057
    64G12c H01Q  955   0.618   4.519   2.910
    64G12c C02A  956   0.375   4.578   3.102
    64G12c H011  957   0.435   4.666   3.082
    64G12c C00C  958   6.475   4.884   2.867
    64G12c H012  959   0.009   4.797   2.834
    64G12c C00B  960   6.352   4.921   2.811
    64G12c C00A  961   6.297   4.866   2.690
    64G12c C009  962   6.375   4.829   2.570
    64G12c C008  963   6.510   4.819   2.540
    64G12c H013  964   0.062   4.804   2.619
    64G12c C007  965   0.032   4.841   2.404
    64G12c H014  966   0.135   4.836   2.371
    64G12c C006  967   6.458   4.869   2.302
    64G12c C005  968   6.322   4.872   2.338
    64G12c C004  969   6.228   4.928   2.254
    64G12c C003  970   6.100   4.971   2.309
    64G12c C002  971   6.010   5.044   2.218
    64G12c C001  972   5.883   5.105   2.230
    64G12c C00M  973   5.847   5.188   2.343
    64G12c C00L  974   5.865   5.143   2.472
    64G12c C00R  975   5.857   5.225   2.586
    64G12c C00Q  976   5.802   5.361   2.604
    64G12c C00V  977   5.831   5.412   2.734
    64G12c C00U  978   5.914   5.348   2.826
    64G12c C00T  979   5.971   5.224   2.802
    64G12c C016  980   6.079   5.166   2.869
    64G12c C015  981   6.121   5.229   2.981
    64G12c C010  982   6.050   5.345   3.022
    64G12c C011  983   6.081   5.389   3.153
    64G12c H005  984   6.037   5.482   3.187
    64G12c C012  985   6.177   5.328   3.232
    64G12c C017  986   6.210   5.385   3.360
    64G12c O002  987   6.231   5.519   3.361
    64G12c H004  988   6.261   5.556   3.443
    64G12c C018  989   6.218   5.307   3.472
    64G12c O001  990   6.186   5.173   3.477
    64G12c H003  991   6.215   5.139   3.560
    64G12c C019  992   6.247   5.363   3.615
    64G12c H002  993   6.146   5.389   3.648
    64G12c H001  994   6.291   5.289   3.682
    64G12c O000  995   6.320   5.485   3.615
    64G12c C01A  996   6.292   5.578   3.714
    64G12c C02K  997   6.296   5.712   3.676
    64G12c O00G  998   6.321   5.735   3.543
    64G12c C02M  999   6.309   5.860   3.481
    64G12c H01G 1000   6.365   5.873   3.389
    64G12c H01F 1001   6.369   5.931   3.538
    64G12c H01E 1002   6.209   5.899   3.460
    64G12c C02J 1003   6.263   5.814   3.764
    64G12c H01H 1004   6.249   5.915   3.729
    64G12c C02I 1005   6.246   5.784   3.908
    64G12c C02N 1006   6.249   5.879   4.016
    64G12c H01M 1007   6.277   5.849   4.116
    64G12c C02O 1008   6.225   6.008   4.000
    64G12c H01L 1009   6.206   6.055   3.905
    64G12c C02P 1010   6.219   6.113   4.107
    64G12c H01K 1011   6.219   6.060   4.202
    64G12c H01J 1012   6.299   6.186   4.120
    64G12c O00H 1013   6.102   6.183   4.084
    64G12c H01I 1014   6.031   6.138   4.127
    64G12c C02H 1015   6.236   5.647   3.947
    64G12c H01C 1016   6.197   5.624   4.045
    64G12c C02L 1017   6.252   5.549   3.843
    64G12c H01D 1018   6.233   5.449   3.880
    64G12c C013 1019   6.254   5.222   3.181
    64G12c H000 1020   6.325   5.179   3.249
    64G12c C014 1021   6.230   5.181   3.049
    64G12c C00F 1022   6.312   5.080   2.984
    64G12c C00H 1023   6.138   5.045   2.820
    64G12c C00I 1024   6.084   4.979   2.711
    64G12c C00J 1025   5.977   5.041   2.645
    64G12c C00Z 1026   5.958   5.413   2.942
    64G12c C00Y 1027   5.901   5.540   2.980
    64G12c H006 1028   5.935   5.597   3.065
    64G12c C00X 1029   5.814   5.602   2.890
    64G12c O003 1030   5.743   5.716   2.917
    64G12c C01B 1031   5.791   5.802   3.020
    64G12c H009 1032   5.885   5.852   2.994
    64G12c H008 1033   5.788   5.764   3.122
    64G12c H007 1034   5.726   5.889   3.020
    64G12c C00W 1035   5.785   5.545   2.767
    64G12c O004 1036   5.701   5.622   2.681
    64G12c C01C 1037   5.663   5.558   2.567
    64G12c H00A 1038   5.565   5.579   2.528
    64G12c C00P 1039   5.739   5.447   2.512
    64G12c C00O 1040   5.765   5.435   2.371
    64G12c C01D 1041   5.747   5.548   2.287
    64G12c H00S 1042   5.709   5.643   2.324
    64G12c C01E 1043   5.794   5.549   2.149
    64G12c O008 1044   5.796   5.671   2.087
    64G12c C01V 1045   5.713   5.691   1.976
    64G12c C01Z 1046   5.781   5.763   1.858
    64G12c H00R 1047   5.886   5.734   1.865
    64G12c H00Q 1048   5.741   5.730   1.762
    64G12c O009 1049   5.759   5.898   1.877
    64G12c H00P 1050   5.666   5.908   1.888
    64G12c C01W 1051   5.589   5.639   1.976
    64G12c H00O 1052   5.548   5.596   2.067
    64G12c C01X 1053   5.486   5.647   1.862
    64G12c H00N 1054   5.395   5.691   1.902
    64G12c H00M 1055   5.532   5.710   1.785
    64G12c C01Y 1056   5.455   5.513   1.800
    64G12c C02D 1057   5.564   5.436   1.740
    64G12c H019 1058   5.667   5.466   1.735
    64G12c C02C 1059   5.528   5.320   1.668
    64G12c H01A 1060   5.602   5.259   1.621
    64G12c C02B 1061   5.398   5.278   1.657
    64G12c O00E 1062   5.371   5.170   1.578
    64G12c H01B 1063   5.277   5.161   1.584
    64G12c C02F 1064   5.290   5.345   1.719
    64G12c O00F 1065   5.163   5.297   1.700
    64G12c C02G 1066   5.063   5.387   1.669
    64G12c H017 1067   4.977   5.320   1.661
    64G12c H016 1068   5.078   5.445   1.578
    64G12c H015 1069   5.049   5.455   1.754
    64G12c C02E 1070   5.321   5.468   1.791
    64G12c H018 1071   5.242   5.529   1.835
    64G12c C01F 1072   5.845   5.434   2.091
    64G12c C01G 1073   5.927   5.421   1.975
    64G12c H00L 1074   5.946   5.516   1.927
    64G12c C01H 1075   6.002   5.303   1.958
    64G12c H00B 1076   6.090   5.317   1.897
    64G12c C01I 1077   5.975   5.185   2.040
    64G12c C01U 1078   5.821   5.315   2.164
    64G12c C00S 1079   5.911   5.152   2.700
    64G12c C00K 1080   5.953   5.037   2.501
    64G12c C00N 1081   5.806   5.319   2.304
    64G12c C000 1082   5.859   5.187   2.120
    64G12c C01J 1083   6.061   5.081   2.091
    64G12c C01K 1084   6.183   5.032   2.029
    64G12c C01P 1085   6.232   5.041   1.898
    64G12c C01Q 1086   6.151   5.060   1.779
    64G12c H00G 1087   6.194   5.100   1.689
    64G12c C01R 1088   6.019   5.024   1.769
    64G12c H00F 1089   5.978   4.987   1.862
    64G12c C01S 1090   5.946   5.056   1.643
    64G12c H00E 1091   6.012   5.067   1.556
    64G12c H00D 1092   5.872   4.983   1.611
    64G12c O005 1093   5.862   5.170   1.669
    64G12c H00C 1094   5.798   5.140   1.732
    64G12c C01O 1095   6.368   5.022   1.865
    64G12c H00H 1096   6.409   5.041   1.767
    64G12c C01N 1097   6.458   4.984   1.962
    64G12c O006 1098   0.074   4.985   1.945
    64G12c C01T 1099   0.133   5.044   1.819
    64G12c H00K 1100   0.235   5.017   1.846
    64G12c H00J 1101   0.134   5.153   1.817
    64G12c H00I 1102   0.118   4.998   1.721
    64G12c C01M 1103   6.405   4.941   2.089
    64G12c C020 1104   6.058   4.958   2.442
    64G12c C021 1105   6.151   4.869   2.511
    64G12c C01L 1106   6.267   4.966   2.127
    64G12c O007 1107   6.497   4.890   2.174
    64G12c C022 1108   6.276   4.838   2.465
    64G12c C023 1109   6.171   4.890   2.648
    64G12c C00G 1110   6.262   5.013   2.874
    64G12c C00E 1111   6.449   5.059   3.033
    64G12c O00A 1112   6.506   5.140   3.135
    64G12c C024 1113   0.085   5.232   3.086
    64G12c H00V 1114   0.103   5.312   3.157
    64G12c H00U 1115   0.061   5.261   2.984
    64G12c H00T 1116   0.181   5.180   3.081
    74G12c C00D 1117   5.031   3.492   8.496
    74G12c O00B 1118   4.923   3.416   8.543
    74G12c C025 1119   4.890   3.301   8.474
    74G12c C026 1120   4.803   3.310   8.350
    74G12c H00Y 1121   4.804   3.217   8.293
    74G12c H00X 1122   4.842   3.394   8.292
    74G12c O00C 1123   4.676   3.349   8.396
    74G12c H00W 1124   4.680   3.426   8.451
    74G12c C027 1125   4.947   3.183   8.516
    74G12c O00D 1126   5.041   3.170   8.609
    74G12c H00Z 1127   5.067   3.256   8.638
    74G12c C028 1128   4.922   3.059   8.441
    74G12c C029 1129   4.795   3.003   8.453
    74G12c H010 1130   4.719   3.060   8.504
    74G12c C02T 1131   4.768   2.872   8.409
    74G12c H01O 1132   4.668   2.837   8.427
    74G12c C02S 1133   4.858   2.812   8.325
    74G12c O00J 1134   4.826   2.685   8.278
    74G12c H01P 1135   4.890   2.646   8.220
    74G12c C02R 1136   4.983   2.869   8.304
    74G12c O00I 1137   5.074   2.800   8.229
    74G12c C02Q 1138   5.183   2.876   8.176
    74G12c H01N 1139   5.159   2.970   8.126
    74G12c H01R 1140   5.228   2.801   8.112
    74G12c H01Q 1141   5.247   2.899   8.262
    74G12c C02A 1142   5.022   2.990   8.359
    74G12c H011 1143   5.120   3.036   8.352
    74G12c C00C 1144   5.010   3.592   8.404
    74G12c H012 1145   4.909   3.618   8.376
    74G12c C00B 1146   5.118   3.665   8.349
    74G12c C00A 1147   5.113   3.766   8.242
    74G12c C009 1148   5.016   3.777   8.133
    74G12c C008 1149   4.902   3.705   8.092
    74G12c H013 1150   4.858   3.641   8.167
    74G12c C007 1151   4.861   3.709   7.956
    74G12c H014 1152   4.764   3.664   7.945
    74G12c C006 1153   4.937   3.773   7.854
    74G12c C005 1154   5.054   3.834   7.902
    74G12c C004 1155   5.156   3.860   7.811
    74G12c C003 1156   5.289   3.893   7.854
    74G12c C002 1157   5.389   3.892   7.749
    74G12c C001 1158   5.530   3.928   7.751
    74G12c C00M 1159   5.625   3.874   7.843
    74G12c C00L 1160   5.596   3.864   7.979
    74G12c C00R 1161   5.670   3.780   8.074
    74G12c C00Q 1162   5.785   3.701   8.065
    74G12c C00V 1163   5.817   3.623   8.181
    74G12c C00U 1164   5.729   3.603   8.287
    74G12c C00T 1165   5.609   3.669   8.287
    74G12c C016 1166   5.498   3.630   8.358
    74G12c C015 1167   5.516   3.536   8.454
    74G12c C010 1168   5.646   3.477   8.469
    74G12c C011 1169   5.666   3.400   8.586
    74G12c H005 1170   5.765   3.373   8.621
    74G12c C012 1171   5.561   3.373   8.677
    74G12c C017 1172   5.595   3.301   8.801
    74G12c O002 1173   5.513   3.198   8.832
    74G12c H004 1174   5.458   3.161   8.765
    74G12c C018 1175   5.705   3.337   8.876
    74G12c O001 1176   5.789   3.443   8.850
    74G12c H003 1177   5.845   3.454   8.925
    74G12c C019 1178   5.748   3.266   9.003
    74G12c H002 1179   5.671   3.268   9.080
    74G12c H001 1180   5.761   3.158   8.989
    74G12c O000 1181   5.872   3.326   9.054
    74G12c C01A 1182   5.865   3.434   9.140
    74G12c C02K 1183   5.991   3.479   9.191
    74G12c O00G 1184   6.100   3.403   9.162
    74G12c C02M 1185   6.232   3.448   9.205
    74G12c H01G 1186   6.311   3.401   9.147
    74G12c H01F 1187   6.259   3.407   9.302
    74G12c H01E 1188   6.256   3.553   9.187
    74G12c C02J 1189   5.996   3.597   9.271
    74G12c H01H 1190   6.090   3.630   9.313
    74G12c C02I 1191   5.884   3.677   9.302
    74G12c C02N 1192   5.908   3.791   9.388
    74G12c H01M 1193   6.009   3.819   9.414
    74G12c C02O 1194   5.809   3.873   9.409
    74G12c H01L 1195   5.708   3.858   9.374
    74G12c C02P 1196   5.833   4.014   9.470
    74G12c H01K 1197   5.775   4.081   9.406
    74G12c H01J 1198   5.781   4.015   9.566
    74G12c O00H 1199   5.967   4.063   9.475
    74G12c H01I 1200   5.971   4.150   9.438
    74G12c C02H 1201   5.760   3.631   9.242
    74G12c H01C 1202   5.667   3.682   9.264
    74G12c C02L 1203   5.749   3.508   9.168
    74G12c H01D 1204   5.659   3.469   9.123
    74G12c C013 1205   5.429   3.409   8.640
    74G12c H000 1206   5.363   3.368   8.714
    74G12c C014 1207   5.403   3.491   8.525
    74G12c C00F 1208   5.273   3.534   8.487
    74G12c C00H 1209   5.368   3.686   8.327
    74G12c C00I 1210   5.350   3.784   8.231
    74G12c C00J 1211   5.467   3.824   8.163
    74G12c C00Z 1212   5.747   3.510   8.384
    74G12c C00Y 1213   5.871   3.441   8.393
    74G12c H006 1214   5.894   3.370   8.471
    74G12c C00X 1215   5.968   3.455   8.289
    74G12c O003 1216   6.097   3.395   8.291
    74G12c C01B 1217   6.139   3.327   8.407
    74G12c H009 1218   6.165   3.396   8.488
    74G12c H008 1219   6.224   3.266   8.377
    74G12c H007 1220   6.068   3.253   8.443
    74G12c C00W 1221   5.933   3.540   8.185
    74G12c O004 1222   6.029   3.540   8.086
    74G12c C01C 1223   6.005   3.625   7.977
    74G12c H00A 1224   6.085   3.664   7.915
    74G12c C00P 1225   5.873   3.687   7.953
    74G12c C00O 1226   5.827   3.709   7.816
    74G12c C01D 1227   5.881   3.626   7.712
    74G12c H00S 1228   5.963   3.562   7.743
    74G12c C01E 1229   5.820   3.605   7.586
    74G12c O008 1230   5.843   3.501   7.501
    74G12c C01V 1231   5.953   3.419   7.520
    74G12c C01Z 1232   6.051   3.438   7.405
    74G12c H00R 1233   6.022   3.525   7.346
    74G12c H00Q 1234   6.135   3.485   7.457
    74G12c O009 1235   6.072   3.315   7.337
    74G12c H00P 1236   5.989   3.269   7.342
    74G12c C01W 1237   5.975   3.346   7.629
    74G12c H00O 1238   5.901   3.346   7.708
    74G12c C01X 1239   6.086   3.255   7.650
    74G12c H00N 1240   6.058   3.161   7.697
    74G12c H00M 1241   6.131   3.218   7.557
    74G12c C01Y 1242   6.189   3.326   7.737
    74G12c C02D 1243   6.184   3.326   7.881
    74G12c H019 1244   6.113   3.263   7.932
    74G12c C02C 1245   6.280   3.398   7.962
    74G12c H01A 1246   6.275   3.400   8.070
    74G12c C02B 1247   6.378   3.479   7.897
    74G12c O00E 1248   6.465   3.564   7.962
    74G12c H01B 1249   6.510   3.612   7.894
    74G12c C02F 1250   6.381   3.482   7.753
    74G12c O00F 1251   6.478   3.553   7.696
    74G12c C02G 1252   6.477   3.573   7.552
    74G12c H017 1253   6.508   3.486   7.494
    74G12c H016 1254   0.026   3.650   7.519
    74G12c H015 1255   6.379   3.606   7.520
    74G12c C02E 1256   6.286   3.410   7.678
    74G12c H018 1257   6.290   3.410   7.570
    74G12c C01F 1258   5.715   3.699   7.555
    74G12c C01G 1259   5.629   3.679   7.443
    74G12c H00L 1260   5.654   3.603   7.371
    74G12c C01H 1261   5.502   3.744   7.439
    74G12c H00B 1262   5.428   3.688   7.383
    74G12c C01I 1263   5.474   3.838   7.540
    74G12c C01U 1264   5.689   3.809   7.636
    74G12c C00S 1265   5.589   3.766   8.187
    74G12c C00K 1266   5.466   3.879   8.034
    74G12c C00N 1267   5.726   3.796   7.773
    74G12c C000 1268   5.577   3.895   7.620
    74G12c C01J 1269   5.356   3.856   7.617
    74G12c C01K 1270   5.221   3.842   7.566
    74G12c C01P 1271   5.172   3.847   7.430
    74G12c C01Q 1272   5.261   3.882   7.323
    74G12c H00G 1273   5.342   3.951   7.337
    74G12c C01R 1274   5.236   3.844   7.197
    74G12c H00F 1275   5.159   3.773   7.176
    74G12c C01S 1276   5.310   3.893   7.083
    74G12c H00E 1277   5.400   3.942   7.119
    74G12c H00D 1278   5.340   3.797   7.041
    74G12c O005 1279   5.219   3.970   7.011
    74G12c H00C 1280   5.182   3.925   6.937
    74G12c C01O 1281   5.033   3.837   7.405
    74G12c H00H 1282   4.994   3.842   7.304
    74G12c C01N 1283   4.945   3.815   7.509
    74G12c O006 1284   4.807   3.795   7.488
    74G12c C01T 1285   4.747   3.823   7.362
    74G12c H00K 1286   4.782   3.757   7.282
    74G12c H00J 1287   4.746   3.930   7.339
    74G12c H00I 1288   4.642   3.805   7.381
    74G12c C01M 1289   4.991   3.811   7.642
    74G12c C020 1290   5.329   3.898   7.989
    74G12c C021 1291   5.216   3.894   8.073
    74G12c C01L 1292   5.127   3.832   7.674
    74G12c O007 1293   4.893   3.784   7.734
    74G12c C022 1294   5.080   3.866   8.038
    74G12c C023 1295   5.227   3.834   8.201
    74G12c C00G 1296   5.251   3.635   8.392
    74G12c C00E 1297   5.160   3.478   8.552
    74G12c O00A 1298   5.159   3.391   8.655
    74G12c C024 1299   5.114   3.444   8.782
    74G12c H00V 1300   5.134   3.550   8.792
    74G12c H00U 1301   5.162   3.384   8.860
    74G12c H00T 1302   5.005   3.438   8.789
    84G12c C00D 1303   2.310   3.217   6.107
    84G12c O00B 1304   2.178   3.175   6.135
    84G12c C025 1305   2.149   3.042   6.122
    84G12c C026 1306   2.122   2.992   5.980
    84G12c H00Y 1307   2.084   2.891   5.964
    84G12c H00X 1308   2.224   2.998   5.943
    84G12c O00C 1309   2.040   3.082   5.907
    84G12c H00W 1310   2.020   3.155   5.964
    84G12c C027 1311   2.134   2.976   6.240
    84G12c O00D 1312   2.142   3.054   6.351
    84G12c H00Z 1313   2.138   3.147   6.332
    84G12c C028 1314   2.109   2.833   6.246
    84G12c C029 1315   2.174   2.750   6.151
    84G12c H010 1316   2.244   2.795   6.082
    84G12c C02T 1317   2.154   2.608   6.152
    84G12c H01O 1318   2.221   2.550   6.090
    84G12c C02S 1319   2.061   2.558   6.246
    84G12c O00J 1320   2.030   2.424   6.252
    84G12c H01P 1321   1.956   2.411   6.310
    84G12c C02R 1322   1.995   2.641   6.337
    84G12c O00I 1323   1.890   2.587   6.406
    84G12c C02Q 1324   1.892   2.626   6.542
    84G12c H01N 1325   1.847   2.546   6.602
    84G12c H01R 1326   1.839   2.719   6.558
    84G12c H01Q 1327   1.995   2.639   6.576
    84G12c C02A 1328   2.016   2.779   6.338
    84G12c H011 1329   1.959   2.846   6.401
    84G12c C00C 1330   2.415   3.195   6.195
    84G12c H012 1331   2.391   3.134   6.281
    84G12c C00B 1332   2.542   3.248   6.175
    84G12c C00A 1333   2.659   3.237   6.268
    84G12c C009 1334   2.653   3.226   6.411
    84G12c C008 1335   2.551   3.183   6.503
    84G12c H013 1336   2.464   3.134   6.461
    84G12c C007 1337   2.567   3.223   6.634
    84G12c H014 1338   2.490   3.196   6.705
    84G12c C006 1339   2.678   3.309   6.671
    84G12c C005 1340   2.781   3.334   6.583
    84G12c C004 1341   2.867   3.443   6.598
    84G12c C003 1342   2.946   3.489   6.485
    84G12c C002 1343   3.025   3.607   6.509
    84G12c C001 1344   3.125   3.679   6.434
    84G12c C00M 1345   3.113   3.719   6.296
    84G12c C00L 1346   3.058   3.636   6.199
    84G12c C00R 1347   3.001   3.678   6.074
    84G12c C00Q 1348   3.003   3.806   6.007
    84G12c C00V 1349   2.922   3.804   5.890
    84G12c C00U 1350   2.817   3.706   5.865
    84G12c C00T 1351   2.806   3.593   5.937
    84G12c C016 1352   2.693   3.514   5.949
    84G12c C015 1353   2.597   3.533   5.852
    84G12c C010 1354   2.612   3.638   5.759
    84G12c C011 1355   2.511   3.651   5.657
    84G12c H005 1356   2.513   3.735   5.590
    84G12c C012 1357   2.400   3.564   5.648
    84G12c C017 1358   2.305   3.568   5.543
    84G12c O002 1359   2.197   3.646   5.556
    84G12c H004 1360   2.181   3.665   5.647
    84G12c C018 1361   2.332   3.489   5.439
    84G12c O001 1362   2.445   3.409   5.418
    84G12c H003 1363   2.412   3.347   5.354
    84G12c C019 1364   2.244   3.470   5.316
    84G12c H002 1365   2.144   3.501   5.348
    84G12c H001 1366   2.279   3.535   5.236
    84G12c O000 1367   2.238   3.332   5.285
    84G12c C01A 1368   2.106   3.292   5.266
    84G12c C02K 1369   2.027   3.260   5.376
    84G12c O00G 1370   2.093   3.251   5.502
    84G12c C02M 1371   2.030   3.307   5.611
    84G12c H01G 1372   1.935   3.256   5.627
    84G12c H01F 1373   2.002   3.411   5.597
    84G12c H01E 1374   2.094   3.300   5.699
    84G12c C02J 1375   1.892   3.215   5.356
    84G12c H01H 1376   1.846   3.174   5.444
    84G12c C02I 1377   1.834   3.210   5.224
    84G12c C02N 1378   1.696   3.173   5.196
    84G12c H01M 1379   1.667   3.140   5.098
    84G12c C02O 1380   1.606   3.164   5.295
    84G12c H01L 1381   1.640   3.185   5.395
    84G12c C02P 1382   1.465   3.127   5.284
    84G12c H01K 1383   1.427   3.075   5.196
    84G12c H01J 1384   1.445   3.059   5.367
    84G12c O00H 1385   1.390   3.244   5.308
    84G12c H01I 1386   1.408   3.303   5.235
    84G12c C02H 1387   1.921   3.253   5.119
    84G12c H01C 1388   1.880   3.258   5.019
    84G12c C02L 1389   2.054   3.280   5.133
    84G12c H01D 1390   2.111   3.310   5.046
    84G12c C013 1391   2.394   3.458   5.747
    84G12c H000 1392   2.307   3.396   5.733
    84G12c C014 1393   2.484   3.448   5.857
    84G12c C00F 1394   2.466   3.362   5.970
    84G12c C00H 1395   2.689   3.411   6.047
    84G12c C00I 1396   2.799   3.393   6.133
    84G12c C00J 1397   2.905   3.486   6.129
    84G12c C00Z 1398   2.723   3.723   5.762
    84G12c C00Y 1399   2.732   3.837   5.673
    84G12c H006 1400   2.659   3.844   5.593
    84G12c C00X 1401   2.834   3.935   5.693
    84G12c O003 1402   2.857   4.045   5.603
    84G12c C01B 1403   2.744   4.101   5.545
    84G12c H009 1404   2.698   4.042   5.465
    84G12c H008 1405   2.759   4.208   5.533
    84G12c H007 1406   2.662   4.103   5.617
    84G12c C00W 1407   2.926   3.915   5.800
    84G12c O004 1408   3.022   4.019   5.817
    84G12c C01C 1409   3.068   4.032   5.945
    84G12c H00A 1410   3.141   4.107   5.969
    84G12c C00P 1411   3.058   3.929   6.046
    84G12c C00O 1412   3.085   3.955   6.184
    84G12c C01D 1413   3.084   4.093   6.225
    84G12c H00S 1414   3.073   4.174   6.156
    84G12c C01E 1415   3.079   4.131   6.356
    84G12c O008 1416   3.054   4.263   6.395
    84G12c C01V 1417   3.002   4.357   6.304
    84G12c C01Z 1418   3.102   4.476   6.270
    84G12c H00R 1419   3.160   4.489   6.361
    84G12c H00Q 1420   3.166   4.443   6.188
    84G12c O009 1421   3.048   4.601   6.246
    84G12c H00P 1422   2.973   4.603   6.302
    84G12c C01W 1423   2.885   4.332   6.242
    84G12c H00O 1424   2.828   4.244   6.266
    84G12c C01X 1425   2.838   4.406   6.123
    84G12c H00N 1426   2.929   4.450   6.080
    84G12c H00M 1427   2.788   4.336   6.055
    84G12c C01Y 1428   2.752   4.524   6.147
    84G12c C02D 1429   2.706   4.554   6.280
    84G12c H019 1430   2.706   4.490   6.368
    84G12c C02C 1431   2.645   4.682   6.309
    84G12c H01A 1432   2.617   4.706   6.410
    84G12c C02B 1433   2.617   4.766   6.199
    84G12c O00E 1434   2.544   4.876   6.213
    84G12c H01B 1435   2.518   4.899   6.125
    84G12c C02F 1436   2.649   4.732   6.065
    84G12c O00F 1437   2.607   4.826   5.972
    84G12c C02G 1438   2.603   4.784   5.840
    84G12c H017 1439   2.560   4.867   5.784
    84G12c H016 1440   2.548   4.690   5.833
    84G12c H015 1441   2.700   4.751   5.801
    84G12c C02E 1442   2.732   4.615   6.038
    84G12c H018 1443   2.765   4.597   5.937
    84G12c C01F 1444   3.098   4.035   6.459
    84G12c C01G 1445   3.062   4.046   6.596
    84G12c H00L 1446   3.035   4.143   6.635
    84G12c C01H 1447   3.029   3.925   6.673
    84G12c H00B 1448   2.961   3.941   6.755
    84G12c C01I 1449   3.068   3.801   6.625
    84G12c C01U 1450   3.135   3.903   6.427
    84G12c C00S 1451   2.904   3.583   6.036
    84G12c C00K 1452   2.987   3.513   6.237
    84G12c C00N 1453   3.114   3.861   6.292
    84G12c C000 1454   3.151   3.795   6.512
    84G12c C01J 1455   3.014   3.670   6.636
    84G12c C01K 1456   2.944   3.625   6.754
    84G12c C01P 1457   2.941   3.674   6.892
    84G12c C01Q 1458   3.035   3.781   6.940
    84G12c H00G 1459   3.004   3.867   6.997
    84G12c C01R 1460   3.168   3.755   6.920
    84G12c H00F 1461   3.195   3.670   6.860
    84G12c C01S 1462   3.288   3.834   6.981
    84G12c H00E 1463   3.353   3.872   6.902
    84G12c H00D 1464   3.241   3.921   7.029
    84G12c O005 1465   3.360   3.763   7.073
    84G12c H00C 1466   3.306   3.709   7.128
    84G12c C01O 1467   2.855   3.613   6.986
    84G12c H00H 1468   2.855   3.648   7.089
    84G12c C01N 1469   2.769   3.506   6.957
    84G12c O006 1470   2.684   3.446   7.052
    84G12c C01T 1471   2.723   3.441   7.189
    84G12c H00K 1472   2.830   3.423   7.193
    84G12c H00J 1473   2.683   3.358   7.247
    84G12c H00I 1474   2.722   3.536   7.242
    84G12c C01M 1475   2.776   3.454   6.825
    84G12c C020 1476   2.938   3.436   6.355
    84G12c C021 1477   2.863   3.314   6.348
    84G12c C01L 1478   2.870   3.504   6.727
    84G12c O007 1479   2.689   3.353   6.798
    84G12c C022 1480   2.778   3.280   6.454
    84G12c C023 1481   2.781   3.296   6.231
    84G12c C00G 1482   2.567   3.338   6.064
    84G12c C00E 1483   2.333   3.307   5.999
    84G12c O00A 1484   2.217   3.347   5.938
    84G12c C024 1485   2.152   3.447   6.008
    84G12c H00V 1486   2.089   3.398   6.082
    84G12c H00U 1487   2.083   3.495   5.939
    84G12c H00T 1488   2.205   3.504   6.084
    94G12c C00D 1489   5.451   0.863   5.468
    94G12c O00B 1490   5.419   0.998   5.442
    94G12c C025 1491   5.332   1.022   5.334
    94G12c C026 1492   5.389   1.033   5.193
    94G12c H00Y 1493   5.480   1.089   5.212
    94G12c H00X 1494   5.328   1.081   5.115
    94G12c O00C 1495   5.412   0.899   5.155
    94G12c H00W 1496   5.502   0.896   5.126
    94G12c C027 1497   5.202   1.049   5.370
    94G12c O00D 1498   5.162   1.053   5.497
    94G12c H00Z 1499   5.237   1.026   5.548
    94G12c C028 1500   5.105   1.052   5.260
    94G12c C029 1501   5.027   1.167   5.256
    94G12c H010 1502   5.046   1.244   5.329
    94G12c C02T 1503   4.923   1.179   5.162
    94G12c H01O 1504   4.867   1.270   5.151
    94G12c C02S 1505   4.901   1.075   5.071
    94G12c O00J 1506   4.797   1.081   4.982
    94G12c H01P 1507   4.814   1.004   4.930
    94G12c C02R 1508   4.978   0.958   5.074
    94G12c O00I 1509   4.938   0.860   4.988
    94G12c C02Q 1510   5.031   0.760   4.967
    94G12c H01N 1511   5.137   0.785   4.965
    94G12c H01R 1512   5.021   0.707   4.872
    94G12c H01Q 1513   5.014   0.695   5.053
    94G12c C02A 1514   5.087   0.949   5.163
    94G12c H011 1515   5.153   0.864   5.174
    94G12c C00C 1516   5.363   0.759   5.440
    94G12c H012 1517   5.270   0.786   5.394
    94G12c C00B 1518   5.410   0.628   5.441
    94G12c C00A 1519   5.337   0.515   5.400
    94G12c C009 1520   5.195   0.493   5.395
    94G12c C008 1521   5.082   0.571   5.432
    94G12c H013 1522   5.098   0.675   5.456
    94G12c C007 1523   4.962   0.502   5.469
    94G12c H014 1524   4.876   0.562   5.494
    94G12c C006 1525   4.958   0.363   5.490
    94G12c C005 1526   5.074   0.291   5.458
    94G12c C004 1527   5.093   0.152   5.499
    94G12c C003 1528   5.220   0.091   5.481
    94G12c C002 1529   5.234   6.479   5.535
    94G12c C001 1530   5.342   6.384   5.548
    94G12c C00M 1531   5.474   6.419   5.594
    94G12c C00L 1532   5.534   0.017   5.550
    94G12c C00R 1533   5.648   0.081   5.615
    94G12c C00Q 1534   5.733   0.049   5.728
    94G12c C00V 1535   5.823   0.147   5.765
    94G12c C00U 1536   5.824   0.278   5.710
    94G12c C00T 1537   5.733   0.311   5.610
    94G12c C016 1538   5.700   0.444   5.580
    94G12c C015 1539   5.773   0.547   5.632
    94G12c C010 1540   5.876   0.514   5.721
    94G12c C011 1541   5.962   0.618   5.770
    94G12c H005 1542   6.046   0.608   5.836
    94G12c C012 1543   5.929   0.748   5.744
    94G12c C017 1544   6.005   0.853   5.804
    94G12c O002 1545   6.042   0.839   5.935
    94G12c H004 1546   6.079   0.921   5.966
    94G12c C018 1547   6.041   0.966   5.739
    94G12c O001 1548   6.022   0.987   5.602
    94G12c H003 1549   6.018   0.907   5.552
    94G12c C019 1550   6.124   1.078   5.802
    94G12c H002 1551   6.232   1.065   5.800
    94G12c H001 1552   6.106   1.175   5.755
    94G12c O000 1553   6.106   1.079   5.942
    94G12c C01A 1554   6.014   1.165   5.992
    94G12c C02K 1555   6.028   1.197   6.127
    94G12c O00G 1556   6.127   1.116   6.184
    94G12c C02M 1557   6.161   1.145   6.320
    94G12c H01G 1558   6.239   1.075   6.353
    94G12c H01F 1559   6.074   1.117   6.380
    94G12c H01E 1560   6.197   1.245   6.343
    94G12c C02J 1561   5.936   1.283   6.190
    94G12c H01H 1562   5.960   1.308   6.293
    94G12c C02I 1563   5.820   1.330   6.118
    94G12c C02N 1564   5.710   1.412   6.176
    94G12c H01M 1565   5.649   1.480   6.119
    94G12c C02O 1566   5.687   1.400   6.307
    94G12c H01L 1567   5.741   1.330   6.368
    94G12c C02P 1568   5.571   1.474   6.375
    94G12c H01K 1569   5.614   1.530   6.458
    94G12c H01J 1570   5.517   1.533   6.301
    94G12c O00H 1571   5.483   1.378   6.418
    94G12c H01I 1572   5.443   1.339   6.342
    94G12c C02H 1573   5.801   1.291   5.983
    94G12c H01C 1574   5.722   1.323   5.917
    94G12c C02L 1575   5.899   1.207   5.918
    94G12c H01D 1576   5.878   1.182   5.815
    94G12c C013 1577   5.809   0.776   5.682
    94G12c H000 1578   5.765   0.873   5.694
    94G12c C014 1579   5.735   0.679   5.614
    94G12c C00F 1580   5.618   0.707   5.538
    94G12c C00H 1581   5.586   0.471   5.500
    94G12c C00I 1582   5.511   0.362   5.449
    94G12c C00J 1583   5.556   0.233   5.483
    94G12c C00Z 1584   5.902   0.380   5.762
    94G12c C00Y 1585   5.992   0.350   5.867
    94G12c H006 1586   6.056   0.428   5.905
    94G12c C00X 1587   6.001   0.223   5.916
    94G12c O003 1588   6.090   0.198   6.015
    94G12c C01B 1589   6.165   0.301   6.078
    94G12c H009 1590   6.238   0.339   6.007
    94G12c H008 1591   6.219   0.254   6.160
    94G12c H007 1592   6.107   0.386   6.115
    94G12c C00W 1593   5.911   0.120   5.873
    94G12c O004 1594   5.911   0.006   5.948
    94G12c C01C 1595   5.823   6.432   5.913
    94G12c H00A 1596   5.846   6.337   5.959
    94G12c C00P 1597   5.719   6.455   5.816
    94G12c C00O 1598   5.608   6.367   5.822
    94G12c C01D 1599   5.586   6.289   5.942
    94G12c H00S 1600   5.659   6.288   6.022
    94G12c C01E 1601   5.463   6.230   5.982
    94G12c O008 1602   5.444   6.181   6.114
    94G12c C01V 1603   5.465   6.047   6.133
    94G12c C01Z 1604   5.437   6.013   6.276
    94G12c H00R 1605   5.354   6.072   6.315
    94G12c H00Q 1606   5.399   5.913   6.297
    94G12c O009 1607   5.559   6.038   6.344
    94G12c H00P 1608   5.627   6.045   6.279
    94G12c C01W 1609   5.525   5.965   6.046
    94G12c H00O 1610   5.549   5.991   5.944
    94G12c C01X 1611   5.571   5.823   6.079
    94G12c H00N 1612   5.540   5.781   6.174
    94G12c H00M 1613   5.550   5.756   5.995
    94G12c C01Y 1614   5.728   5.826   6.085
    94G12c C02D 1615   5.809   5.835   5.970
    94G12c H019 1616   5.769   5.842   5.870
    94G12c C02C 1617   5.955   5.840   5.984
    94G12c H01A 1618   6.012   5.847   5.893
    94G12c C02B 1619   6.006   5.831   6.117
    94G12c O00E 1620   6.146   5.848   6.138
    94G12c H01B 1621   6.167   5.862   6.229
    94G12c C02F 1622   5.934   5.825   6.233
    94G12c O00F 1623   5.997   5.833   6.356
    94G12c C02G 1624   5.910   5.864   6.469
    94G12c H017 1625   5.974   5.857   6.558
    94G12c H016 1626   5.830   5.792   6.485
    94G12c H015 1627   5.870   5.965   6.473
    94G12c C02E 1628   5.796   5.825   6.215
    94G12c H018 1629   5.726   5.822   6.297
    94G12c C01F 1630   5.360   6.232   5.883
    94G12c C01G 1631   5.220   6.211   5.904
    94G12c H00L 1632   5.198   6.169   6.001
    94G12c C01H 1633   5.120   6.253   5.805
    94G12c H00B 1634   5.016   6.249   5.838
    94G12c C01I 1635   5.164   6.296   5.672
    94G12c C01U 1636   5.397   6.269   5.746
    94G12c C00S 1637   5.669   0.207   5.557
    94G12c C00K 1638   5.468   0.123   5.475
    94G12c C00N 1639   5.509   6.352   5.720
    94G12c C000 1640   5.302   6.283   5.640
    94G12c C01J 1641   5.121   6.413   5.592
    94G12c C01K 1642   4.988   6.474   5.606
    94G12c C01P 1643   4.865   6.411   5.643
    94G12c C01Q 1644   4.846   6.267   5.652
    94G12c H00G 1645   4.793   6.225   5.735
    94G12c C01R 1646   4.881   6.184   5.554
    94G12c H00F 1647   4.932   6.224   5.467
    94G12c C01S 1648   4.866   6.033   5.550
    94G12c H00E 1649   4.963   5.983   5.564
    94G12c H00D 1650   4.812   6.004   5.640
    94G12c O005 1651   4.780   5.990   5.438
    94G12c H00C 1652   4.791   6.050   5.366
    94G12c C01O 1653   4.750   6.492   5.664
    94G12c H00H 1654   4.655   6.450   5.691
    94G12c C01N 1655   4.748   0.107   5.634
    94G12c O006 1656   4.635   0.180   5.649
    94G12c C01T 1657   4.558   0.204   5.539
    94G12c H00K 1658   4.471   0.269   5.547
    94G12c H00J 1659   4.510   0.118   5.493
    94G12c H00I 1660   4.619   0.255   5.464
    94G12c C01M 1661   4.867   0.162   5.582
    94G12c C020 1662   5.331   0.164   5.435
    94G12c C021 1663   5.297   0.289   5.378
    94G12c C01L 1664   4.985   0.086   5.561
    94G12c O007 1665   4.858   0.293   5.552
    94G12c C022 1666   5.179   0.350   5.390
    94G12c C023 1667   5.392   0.392   5.381
    94G12c C00G 1668   5.534   0.605   5.497
    94G12c C00E 1669   5.578   0.846   5.517
    94G12c O00A 1670   5.659   0.965   5.520
    94G12c C024 1671   5.743   0.992   5.403
    94G12c H00V 1672   5.825   1.062   5.418
    94G12c H00U 1673   5.672   1.027   5.329
    94G12c H00T 1674   5.779   0.895   5.368
   104G12c C00D 1675   0.078   2.981   2.981
   104G12c O00B 1676   0.124   3.026   2.853
   104G12c C025 1677   0.229   2.962   2.796
   104G12c C026 1678   0.368   3.022   2.818
   104G12c H00Y 1679   0.355   3.115   2.763
   104G12c H00X 1680   0.452   2.984   2.760
   104G12c O00C 1681   0.416   3.040   2.952
   104G12c H00W 1682   0.363   3.101   3.000
   104G12c C027 1683   0.209   2.834   2.748
   104G12c O00D 1684   0.085   2.781   2.729
   104G12c H00Z 1685   0.029   2.849   2.764
   104G12c C028 1686   0.316   2.753   2.706
   104G12c C029 1687   0.314   2.691   2.579
   104G12c H010 1688   0.232   2.697   2.509
   104G12c C02T 1689   0.417   2.605   2.536
   104G12c H01O 1690   0.409   2.555   2.441
   104G12c C02S 1691   0.527   2.591   2.622
   104G12c O00J 1692   0.620   2.497   2.579
   104G12c H01P 1693   0.688   2.474   2.640
   104G12c C02R 1694   0.539   2.655   2.744
   104G12c O00I 1695   0.640   2.606   2.830
   104G12c C02Q 1696   0.681   2.709   2.922
   104G12c H01N 1697   0.709   2.803   2.874
   104G12c H01R 1698   0.763   2.673   2.984
   104G12c H01Q 1699   0.604   2.736   2.993
   104G12c C02A 1700   0.429   2.734   2.784
   104G12c H011 1701   0.430   2.772   2.885
   104G12c C00C 1702   0.152   2.892   3.056
   104G12c H012 1703   0.246   2.846   3.027
   104G12c C00B 1704   0.127   2.863   3.192
   104G12c C00A 1705   0.210   2.776   3.276
   104G12c C009 1706   0.260   2.639   3.249
   104G12c C008 1707   0.249   2.555   3.128
   104G12c H013 1708   0.217   2.598   3.034
   104G12c C007 1709   0.285   2.420   3.139
   104G12c H014 1710   0.278   2.354   3.053
   104G12c C006 1711   0.292   2.359   3.271
   104G12c C005 1712   0.281   2.446   3.386
   104G12c C004 1713   0.247   2.390   3.510
   104G12c C003 1714   0.194   2.472   3.611
   104G12c C002 1715   0.151   2.403   3.733
   104G12c C001 1716   0.088   2.451   3.851
   104G12c C00M 1717   6.507   2.548   3.859
   104G12c C00L 1718   6.498   2.661   3.780
   104G12c C00R 1719   6.385   2.738   3.746
   104G12c C00Q 1720   6.245   2.727   3.781
   104G12c C00V 1721   6.156   2.821   3.711
   104G12c C00U 1722   6.201   2.896   3.605
   104G12c C00T 1723   6.326   2.881   3.555
   104G12c C016 1724   6.372   2.922   3.430
   104G12c C015 1725   6.282   2.993   3.352
   104G12c C010 1726   6.160   3.028   3.406
   104G12c C011 1727   6.072   3.107   3.330
   104G12c H005 1728   5.970   3.125   3.361
   104G12c C012 1729   6.114   3.168   3.207
   104G12c C017 1730   6.017   3.260   3.139
   104G12c O002 1731   5.952   3.357   3.205
   104G12c H004 1732   5.973   3.347   3.297
   104G12c C018 1733   6.003   3.232   3.010
   104G12c O001 1734   6.057   3.127   2.937
   104G12c H003 1735   6.079   3.058   2.998
   104G12c C019 1736   5.908   3.321   2.924
   104G12c H002 1737   5.824   3.259   2.892
   104G12c H001 1738   5.857   3.395   2.987
   104G12c O000 1739   5.973   3.394   2.823
   104G12c C01A 1740   5.900   3.471   2.733
   104G12c C02K 1741   5.946   3.594   2.689
   104G12c O00G 1742   6.070   3.640   2.722
   104G12c C02M 1743   6.155   3.712   2.631
   104G12c H01G 1744   6.120   3.816   2.622
   104G12c H01F 1745   6.153   3.661   2.535
   104G12c H01E 1746   6.258   3.724   2.662
   104G12c C02J 1747   5.867   3.669   2.603
   104G12c H01H 1748   5.901   3.766   2.571
   104G12c C02I 1749   5.737   3.623   2.569
   104G12c C02N 1750   5.655   3.712   2.486
   104G12c H01M 1751   5.687   3.811   2.458
   104G12c C02O 1752   5.542   3.662   2.431
   104G12c H01L 1753   5.489   3.569   2.442
   104G12c C02P 1754   5.461   3.753   2.333
   104G12c H01K 1755   5.356   3.724   2.335
   104G12c H01J 1756   5.473   3.856   2.368
   104G12c O00H 1757   5.510   3.739   2.201
   104G12c H01I 1758   5.467   3.803   2.146
   104G12c C02H 1759   5.701   3.488   2.596
   104G12c H01C 1760   5.614   3.440   2.554
   104G12c C02L 1761   5.775   3.413   2.681
   104G12c H01D 1762   5.732   3.319   2.710
   104G12c C013 1763   6.234   3.126   3.158
   104G12c H000 1764   6.254   3.170   3.062
   104G12c C014 1765   6.323   3.046   3.232
   104G12c C00F 1766   6.443   2.998   3.171
   104G12c C00H 1767   6.500   2.888   3.383
   104G12c C00I 1768   0.070   2.824   3.470
   104G12c C00J 1769   0.019   2.787   3.597
   104G12c C00Z 1770   6.112   2.964   3.524
   104G12c C00Y 1771   5.975   2.969   3.564
   104G12c H006 1772   5.904   3.021   3.501
   104G12c C00X 1773   5.928   2.898   3.671
   104G12c O003 1774   5.799   2.902   3.720
   104G12c C01B 1775   5.698   2.994   3.667
   104G12c H009 1776   5.724   3.098   3.689
   104G12c H008 1777   5.601   2.966   3.709
   104G12c H007 1778   5.689   2.980   3.559
   104G12c C00W 1779   6.020   2.821   3.742
   104G12c O004 1780   5.969   2.751   3.848
   104G12c C01C 1781   6.038   2.636   3.880
   104G12c H00A 1782   5.977   2.547   3.884
   104G12c C00P 1783   6.182   2.637   3.876
   104G12c C00O 1784   6.251   2.518   3.929
   104G12c C01D 1785   6.177   2.414   3.996
   104G12c H00S 1786   6.074   2.419   4.030
   104G12c C01E 1787   6.219   2.284   4.025
   104G12c O008 1788   6.124   2.201   4.091
   104G12c C01V 1789   6.167   2.117   4.190
   104G12c C01Z 1790   6.107   1.980   4.211
   104G12c H00R 1791   6.107   1.944   4.314
   104G12c H00Q 1792   6.003   1.979   4.181
   104G12c O009 1793   6.188   1.890   4.142
   104G12c H00P 1794   6.273   1.897   4.183
   104G12c C01W 1795   6.272   2.157   4.265
   104G12c H00O 1796   6.323   2.251   4.247
   104G12c C01X 1797   6.352   2.077   4.369
   104G12c H00N 1798   6.405   2.147   4.433
   104G12c H00M 1799   6.290   2.016   4.435
   104G12c C01Y 1800   6.454   1.989   4.302
   104G12c C02D 1801   0.046   2.055   4.254
   104G12c H019 1802   0.044   2.162   4.237
   104G12c C02C 1803   0.155   1.976   4.215
   104G12c H01A 1804   0.247   2.011   4.170
   104G12c C02B 1805   0.154   1.837   4.248
   104G12c O00E 1806   0.260   1.755   4.220
   104G12c H01B 1807   0.244   1.668   4.252
   104G12c C02F 1808   0.047   1.775   4.304
   104G12c O00F 1809   0.053   1.638   4.325
   104G12c C02G 1810   6.452   1.569   4.356
   104G12c H017 1811   6.399   1.614   4.440
   104G12c H016 1812   6.469   1.467   4.391
   104G12c H015 1813   6.387   1.560   4.269
   104G12c C02E 1814   6.454   1.850   4.330
   104G12c H018 1815   6.363   1.804   4.366
   104G12c C01F 1816   6.349   2.250   3.979
   104G12c C01G 1817   6.395   2.121   3.941
   104G12c H00L 1818   6.328   2.037   3.958
   104G12c C01H 1819   6.520   2.106   3.872
   104G12c H00B 1820   0.012   2.014   3.817
   104G12c C01I 1821   0.087   2.221   3.855
   104G12c C01U 1822   6.439   2.354   3.957
   104G12c C00S 1823   6.420   2.826   3.644
   104G12c C00K 1824   0.069   2.686   3.668
   104G12c C00N 1825   6.390   2.481   3.920
   104G12c C000 1826   0.052   2.339   3.925
   104G12c C01J 1827   0.174   2.266   3.744
   104G12c C01K 1828   0.236   2.178   3.646
   104G12c C01P 1829   0.268   2.037   3.652
   104G12c C01Q 1830   0.254   1.971   3.775
   104G12c H00G 1831   0.274   2.028   3.865
   104G12c C01R 1832   0.220   1.840   3.781
   104G12c H00F 1833   0.203   1.783   3.690
   104G12c C01S 1834   0.193   1.768   3.904
   104G12c H00E 1835   0.174   1.836   3.987
   104G12c H00D 1836   0.110   1.698   3.895
   104G12c O005 1837   0.304   1.682   3.930
   104G12c H00C 1838   0.290   1.654   4.019
   104G12c C01O 1839   0.331   1.980   3.540
   104G12c H00H 1840   0.375   1.882   3.555
   104G12c C01N 1841   0.355   2.039   3.417
   104G12c O006 1842   0.421   1.987   3.305
   104G12c C01T 1843   0.462   1.855   3.302
   104G12c H00K 1844   0.503   1.821   3.397
   104G12c H00J 1845   0.530   1.838   3.219
   104G12c H00I 1846   0.375   1.794   3.279
   104G12c C01M 1847   0.312   2.177   3.410
   104G12c C020 1848   0.169   2.610   3.595
   104G12c C021 1849   0.240   2.665   3.479
   104G12c C01L 1850   0.264   2.248   3.527
   104G12c O007 1851   0.320   2.228   3.288
   104G12c C022 1852   0.279   2.585   3.379
   104G12c C023 1853   0.194   2.783   3.417
   104G12c C00G 1854   0.011   2.922   3.255
   104G12c C00E 1855   6.480   3.041   3.037
   104G12c O00A 1856   6.426   3.137   2.954
   104G12c C024 1857   6.499   3.253   2.958
   104G12c H00V 1858   6.445   3.330   2.901
   104G12c H00U 1859   0.072   3.261   2.904
   104G12c H00T 1860   6.505   3.291   3.060
   114G12c C00D 1861   2.331   5.613   6.048
   114G12c O00B 1862   2.411   5.491   6.031
   114G12c C025 1863   2.367   5.398   5.951
   114G12c C026 1864   2.270   5.303   6.024
   114G12c H00Y 1865   2.213   5.250   5.948
   114G12c H00X 1866   2.191   5.363   6.068
   114G12c O00C 1867   2.357   5.223   6.110
   114G12c H00W 1868   2.447   5.252   6.105
   114G12c C027 1869   2.415   5.396   5.821
   114G12c O00D 1870   2.508   5.491   5.788
   114G12c H00Z 1871   2.525   5.529   5.873
   114G12c C028 1872   2.386   5.293   5.709
   114G12c C029 1873   2.411   5.326   5.572
   114G12c H010 1874   2.459   5.421   5.553
   114G12c C02T 1875   2.374   5.241   5.466
   114G12c H01O 1876   2.389   5.249   5.359
   114G12c C02S 1877   2.328   5.113   5.499
   114G12c O00J 1878   2.317   5.022   5.400
   114G12c H01P 1879   2.270   4.948   5.433
   114G12c C02R 1880   2.309   5.071   5.631
   114G12c O00I 1881   2.280   4.932   5.649
   114G12c C02Q 1882   2.272   4.894   5.784
   114G12c H01N 1883   2.192   4.940   5.843
   114G12c H01R 1884   2.365   4.902   5.841
   114G12c H01Q 1885   2.242   4.789   5.782
   114G12c C02A 1886   2.342   5.161   5.734
   114G12c H011 1887   2.327   5.131   5.837
   114G12c C00C 1888   2.244   5.647   5.954
   114G12c H012 1889   2.249   5.589   5.863
   114G12c C00B 1890   2.156   5.755   5.967
   114G12c C00A 1891   2.051   5.790   5.877
   114G12c C009 1892   2.043   5.780   5.728
   114G12c C008 1893   2.119   5.726   5.623
   114G12c H013 1894   2.201   5.659   5.644
   114G12c C007 1895   2.096   5.763   5.487
   114G12c H014 1896   2.157   5.709   5.415
   114G12c C006 1897   2.015   5.872   5.459
   114G12c C005 1898   1.936   5.930   5.563
   114G12c C004 1899   1.878   6.059   5.553
   114G12c C003 1900   1.830   6.123   5.666
   114G12c C002 1901   1.780   6.259   5.646
   114G12c C001 1902   1.723   6.362   5.735
   114G12c C00M 1903   1.796   6.395   5.850
   114G12c C00L 1904   1.832   6.304   5.944
   114G12c C00R 1905   1.915   6.329   6.057
   114G12c C00Q 1906   1.983   6.445   6.105
   114G12c C00V 1907   2.072   6.421   6.215
   114G12c C00U 1908   2.127   6.295   6.242
   114G12c C00T 1909   2.075   6.188   6.178
   114G12c C016 1910   2.126   6.057   6.184
   114G12c C015 1911   2.228   6.033   6.276
   114G12c C010 1912   2.263   6.138   6.364
   114G12c C011 1913   2.350   6.110   6.475
   114G12c H005 1914   2.367   6.180   6.555
   114G12c C012 1915   2.406   5.986   6.490
   114G12c C017 1916   2.492   5.970   6.606
   114G12c O002 1917   2.570   6.072   6.646
   114G12c H004 1918   2.614   6.031   6.719
   114G12c C018 1919   2.474   5.857   6.682
   114G12c O001 1920   2.381   5.758   6.652
   114G12c H003 1921   2.311   5.794   6.600
   114G12c C019 1922   2.552   5.830   6.814
   114G12c H002 1923   2.500   5.874   6.899
   114G12c H001 1924   2.547   5.722   6.827
   114G12c O000 1925   2.692   5.874   6.809
   114G12c C01A 1926   2.751   5.891   6.931
   114G12c C02K 1927   2.830   5.998   6.951
   114G12c O00G 1928   2.843   6.087   6.843
   114G12c C02M 1929   2.903   6.214   6.863
   114G12c H01G 1930   3.001   6.208   6.912
   114G12c H01F 1931   2.841   6.272   6.931
   114G12c H01E 1932   2.894   6.266   6.768
   114G12c C02J 1933   2.882   6.031   7.075
   114G12c H01H 1934   2.948   6.114   7.094
   114G12c C02I 1935   2.851   5.949   7.186
   114G12c C02N 1936   2.895   5.989   7.319
   114G12c H01M 1937   2.998   6.005   7.346
   114G12c C02O 1938   2.810   6.025   7.414
   114G12c H01L 1939   2.704   6.027   7.396
   114G12c C02P 1940   2.853   6.064   7.556
   114G12c H01K 1941   2.958   6.091   7.561
   114G12c H01J 1942   2.789   6.147   7.587
   114G12c O00H 1943   2.830   5.941   7.618
   114G12c H01I 1944   2.899   5.879   7.597
   114G12c C02H 1945   2.779   5.828   7.161
   114G12c H01C 1946   2.763   5.766   7.248
   114G12c C02L 1947   2.733   5.797   7.030
   114G12c H01D 1948   2.681   5.703   7.025
   114G12c C013 1949   2.375   5.885   6.393
   114G12c H000 1950   2.424   5.790   6.404
   114G12c C014 1951   2.288   5.907   6.283
   114G12c C00F 1952   2.263   5.810   6.182
   114G12c C00H 1953   2.080   5.953   6.099
   114G12c C00I 1954   1.975   5.974   6.015
   114G12c C00J 1955   1.916   6.101   6.023
   114G12c C00Z 1956   2.225   6.269   6.336
   114G12c C00Y 1957   2.269   6.381   6.411
   114G12c H006 1958   2.329   6.361   6.498
   114G12c C00X 1959   2.214   6.511   6.394
   114G12c O003 1960   2.245   0.098   6.467
   114G12c C01B 1961   2.381   0.125   6.491
   114G12c H009 1962   2.378   0.201   6.569
   114G12c H008 1963   2.428   0.174   6.406
   114G12c H007 1964   2.443   0.039   6.517
   114G12c C00W 1965   2.128   0.010   6.288
   114G12c O004 1966   2.084   0.140   6.268
   114G12c C01C 1967   2.041   0.165   6.138
   114G12c H00A 1968   2.109   0.228   6.084
   114G12c C00P 1969   1.964   0.061   6.072
   114G12c C00O 1970   1.898   0.100   5.950
   114G12c C01D 1971   1.910   0.231   5.903
   114G12c H00S 1972   1.948   0.315   5.960
   114G12c C01E 1973   1.880   0.273   5.771
   114G12c O008 1974   1.915   0.404   5.722
   114G12c C01V 1975   1.916   0.510   5.808
   114G12c C01Z 1976   2.054   0.559   5.851
   114G12c H00R 1977   2.129   0.486   5.821
   114G12c H00Q 1978   2.081   0.657   5.811
   114G12c O009 1979   2.048   0.568   5.989
   114G12c H00P 1980   1.967   0.613   6.010
   114G12c C01W 1981   1.803   0.575   5.839
   114G12c H00O 1982   1.711   0.528   5.808
   114G12c C01X 1983   1.782   0.709   5.891
   114G12c H00N 1984   1.860   0.781   5.867
   114G12c H00M 1985   1.703   0.758   5.833
   114G12c C01Y 1986   1.765   0.711   6.037
   114G12c C02D 1987   1.757   0.835   6.102
   114G12c H019 1988   1.773   0.928   6.049
   114G12c C02C 1989   1.741   0.845   6.243
   114G12c H01A 1990   1.737   0.941   6.294
   114G12c C02B 1991   1.743   0.721   6.316
   114G12c O00E 1992   1.725   0.723   6.453
   114G12c H01B 1993   1.736   0.629   6.462
   114G12c C02F 1994   1.737   0.595   6.251
   114G12c O00F 1995   1.725   0.484   6.334
   114G12c C02G 1996   1.706   0.357   6.276
   114G12c H017 1997   1.702   0.279   6.352
   114G12c H016 1998   1.771   0.313   6.201
   114G12c H015 1999   1.606   0.365   6.233
   114G12c C02E 2000   1.747   0.591   6.109
   114G12c H018 2001   1.737   0.498   6.057
   114G12c C01F 2002   1.835   0.170   5.677
   114G12c C01G 2003   1.849   0.173   5.537
   114G12c H00L 2004   1.898   0.257   5.490
   114G12c C01H 2005   1.814   0.052   5.455
   114G12c H00B 2006   1.863   0.049   5.359
   114G12c C01I 2007   1.758   6.461   5.526
   114G12c C01U 2008   1.770   0.059   5.734
   114G12c C00S 2009   1.965   6.199   6.098
   114G12c C00K 2010   1.851   6.163   5.913
   114G12c C00N 2011   1.825   0.014   5.859
   114G12c C000 2012   1.701   6.479   5.657
   114G12c C01J 2013   1.783   6.320   5.510
   114G12c C01K 2014   1.828   6.253   5.391
   114G12c C01P 2015   1.823   6.289   5.254
   114G12c C01Q 2016   1.767   6.412   5.204
   114G12c H00G 2017   1.664   6.437   5.226
   114G12c C01R 2018   1.836   6.490   5.123
   114G12c H00F 2019   1.938   6.471   5.093
   114G12c C01S 2020   1.784   0.102   5.064
   114G12c H00E 2021   1.752   0.149   5.156
   114G12c H00D 2022   1.871   0.151   5.020
   114G12c O005 2023   1.692   0.067   4.963
   114G12c H00C 2024   1.730   0.018   4.891
   114G12c C01O 2025   1.870   6.200   5.158
   114G12c H00H 2026   1.858   6.234   5.056
   114G12c C01N 2027   1.943   6.090   5.191
   114G12c O006 2028   2.006   6.010   5.096
   114G12c C01T 2029   2.028   6.078   4.966
   114G12c H00K 2030   2.041   6.187   4.966
   114G12c H00J 2031   1.930   6.083   4.919
   114G12c H00I 2032   2.105   6.032   4.905
   114G12c C01M 2033   1.944   6.050   5.320
   114G12c C020 2034   1.838   6.070   5.800
   114G12c C021 2035   1.877   5.928   5.802
   114G12c C01L 2036   1.880   6.125   5.427
   114G12c O007 2037   2.019   5.938   5.335
   114G12c C022 2038   1.937   5.871   5.693
   114G12c C023 2039   1.952   5.884   5.912
   114G12c C00G 2040   2.159   5.835   6.086
   114G12c C00E 2041   2.340   5.690   6.168
   114G12c O00A 2042   2.429   5.640   6.259
   114G12c C024 2043   2.383   5.523   6.335
   114G12c H00V 2044   2.341   5.444   6.273
   114G12c H00U 2045   2.313   5.551   6.413
   114G12c H00T 2046   2.468   5.489   6.394
   124G12c C00D 2047   1.348   1.863   6.533
   124G12c O00B 2048   1.418   1.852   6.649
   124G12c C025 2049   1.443   1.725   6.688
   124G12c C026 2050   1.331   1.656   6.765
   124G12c H00Y 2051   1.342   1.548   6.764
   124G12c H00X 2052   1.234   1.677   6.719
   124G12c O00C 2053   1.325   1.696   6.896
   124G12c H00W 2054   1.314   1.790   6.898
   124G12c C027 2055   1.563   1.657   6.667
   124G12c O00D 2056   1.660   1.716   6.587
   124G12c H00Z 2057   1.609   1.763   6.522
   124G12c C028 2058   1.586   1.524   6.714
   124G12c C029 2059   1.617   1.420   6.623
   124G12c H010 2060   1.614   1.459   6.522
   124G12c C02T 2061   1.651   1.287   6.659
   124G12c H01O 2062   1.673   1.217   6.580
   124G12c C02S 2063   1.651   1.257   6.801
   124G12c O00J 2064   1.676   1.132   6.838
   124G12c H01P 2065   1.672   1.115   6.930
   124G12c C02R 2066   1.616   1.360   6.891
   124G12c O00I 2067   1.614   1.310   7.023
   124G12c C02Q 2068   1.601   1.402   7.129
   124G12c H01N 2069   1.518   1.472   7.120
   124G12c H01R 2070   1.698   1.451   7.138
   124G12c H01Q 2071   1.580   1.351   7.223
   124G12c C02A 2072   1.587   1.493   6.850
   124G12c H011 2073   1.567   1.578   6.914
   124G12c C00C 2074   1.217   1.914   6.544
   124G12c H012 2075   1.190   1.943   6.644
   124G12c C00B 2076   1.144   1.952   6.435
   124G12c C00A 2077   1.024   2.029   6.435
   124G12c C009 2078   0.921   2.055   6.534
   124G12c C008 2079   0.905   2.004   6.660
   124G12c H013 2080   0.992   1.962   6.709
   124G12c C007 2081   0.768   1.998   6.712
   124G12c H014 2082   0.763   1.945   6.806
   124G12c C006 2083   0.658   2.031   6.630
   124G12c C005 2084   0.681   2.083   6.505
   124G12c C004 2085   0.579   2.091   6.408
   124G12c C003 2086   0.613   2.113   6.271
   124G12c C002 2087   0.504   2.120   6.178
   124G12c C001 2088   0.496   2.114   6.032
   124G12c C00M 2089   0.585   2.040   5.940
   124G12c C00L 2090   0.722   2.037   5.967
   124G12c C00R 2091   0.814   1.947   5.903
   124G12c C00Q 2092   0.799   1.841   5.810
   124G12c C00V 2093   0.925   1.782   5.782
   124G12c C00U 2094   1.039   1.783   5.866
   124G12c C00T 2095   1.039   1.864   5.973
   124G12c C016 2096   1.131   1.868   6.077
   124G12c C015 2097   1.236   1.776   6.071
   124G12c C010 2098   1.245   1.694   5.952
   124G12c C011 2099   1.363   1.609   5.943
   124G12c H005 2100   1.379   1.545   5.858
   124G12c C012 2101   1.464   1.608   6.038
   124G12c C017 2102   1.574   1.517   6.020
   124G12c O002 2103   1.594   1.469   5.889
   124G12c H004 2104   1.679   1.428   5.893
   124G12c C018 2105   1.662   1.474   6.112
   124G12c O001 2106   1.643   1.485   6.247
   124G12c H003 2107   1.699   1.428   6.298
   124G12c C019 2108   1.765   1.371   6.071
   124G12c H002 2109   1.719   1.287   6.020
   124G12c H001 2110   1.828   1.411   5.992
   124G12c O000 2111   1.833   1.326   6.192
   124G12c C01A 2112   1.916   1.213   6.176
   124G12c C02K 2113   1.949   1.146   6.297
   124G12c O00G 2114   1.901   1.187   6.414
   124G12c C02M 2115   1.928   1.104   6.533
   124G12c H01G 2116   1.866   1.015   6.524
   124G12c H01F 2117   1.900   1.155   6.625
   124G12c H01E 2118   2.031   1.081   6.559
   124G12c C02J 2119   2.030   1.027   6.282
   124G12c H01H 2120   2.044   0.966   6.370
   124G12c C02I 2121   2.080   0.992   6.156
   124G12c C02N 2122   2.171   0.887   6.141
   124G12c H01M 2123   2.254   0.903   6.074
   124G12c C02O 2124   2.165   0.777   6.217
   124G12c H01L 2125   2.093   0.768   6.297
   124G12c C02P 2126   2.244   0.647   6.217
   124G12c H01K 2127   2.314   0.654   6.300
   124G12c H01J 2128   2.170   0.567   6.224
   124G12c O00H 2129   2.311   0.630   6.095
   124G12c H01I 2130   2.245   0.597   6.036
   124G12c C02H 2131   2.062   1.073   6.044
   124G12c H01C 2132   2.110   1.056   5.949
   124G12c C02L 2133   1.980   1.185   6.054
   124G12c H01D 2134   1.956   1.241   5.965
   124G12c C013 2135   1.449   1.693   6.151
   124G12c H000 2136   1.533   1.693   6.220
   124G12c C014 2137   1.338   1.779   6.168
   124G12c C00F 2138   1.310   1.842   6.288
   124G12c C00H 2139   1.108   1.936   6.192
   124G12c C00I 2140   1.006   2.031   6.193
   124G12c C00J 2141   0.917   2.038   6.082
   124G12c C00Z 2142   1.147   1.702   5.849
   124G12c C00Y 2143   1.159   1.627   5.733
   124G12c H006 2144   1.249   1.570   5.718
   124G12c C00X 2145   1.053   1.631   5.642
   124G12c O003 2146   1.055   1.549   5.532
   124G12c C01B 2147   1.172   1.473   5.498
   124G12c H009 2148   1.260   1.532   5.476
   124G12c H008 2149   1.152   1.422   5.404
   124G12c H007 2150   1.206   1.402   5.574
   124G12c C00W 2151   0.935   1.699   5.667
   124G12c O004 2152   0.837   1.693   5.576
   124G12c C01C 2153   0.714   1.696   5.637
   124G12c H00A 2154   0.628   1.663   5.580
   124G12c C00P 2155   0.686   1.784   5.749
   124G12c C00O 2156   0.557   1.809   5.806
   124G12c C01D 2157   0.455   1.713   5.786
   124G12c H00S 2158   0.469   1.619   5.735
   124G12c C01E 2159   0.324   1.727   5.842
   124G12c O008 2160   0.231   1.631   5.826
   124G12c C01V 2161   0.144   1.667   5.722
   124G12c C01Z 2162   0.178   1.612   5.586
   124G12c H00R 2163   0.275   1.563   5.600
   124G12c H00Q 2164   0.099   1.547   5.548
   124G12c O009 2165   0.195   1.717   5.492
   124G12c H00P 2166   0.244   1.788   5.529
   124G12c C01W 2167   0.032   1.741   5.753
   124G12c H00O 2168   0.024   1.785   5.851
   124G12c C01X 2169   6.441   1.788   5.660
   124G12c H00N 2170   6.452   1.897   5.666
   124G12c H00M 2171   6.458   1.761   5.556
   124G12c C01Y 2172   6.313   1.736   5.740
   124G12c C02D 2173   6.259   1.802   5.840
   124G12c H019 2174   6.300   1.894   5.879
   124G12c C02C 2175   6.149   1.753   5.917
   124G12c H01A 2176   6.093   1.811   5.988
   124G12c C02B 2177   6.091   1.630   5.887
   124G12c O00E 2178   5.979   1.586   5.950
   124G12c H01B 2179   5.960   1.512   5.895
   124G12c C02F 2180   6.139   1.556   5.779
   124G12c O00F 2181   6.080   1.439   5.742
   124G12c C02G 2182   6.089   1.410   5.603
   124G12c H017 2183   6.055   1.495   5.544
   124G12c H016 2184   6.029   1.326   5.568
   124G12c H015 2185   6.188   1.387   5.565
   124G12c C02E 2186   6.257   1.609   5.708
   124G12c H018 2187   6.292   1.550   5.625
   124G12c C01F 2188   0.299   1.836   5.929
   124G12c C01G 2189   0.204   1.832   6.039
   124G12c H00L 2190   0.136   1.749   6.045
   124G12c C01H 2191   0.207   1.934   6.132
   124G12c H00B 2192   0.161   1.922   6.229
   124G12c C01I 2193   0.295   2.044   6.121
   124G12c C01U 2194   0.383   1.945   5.923
   124G12c C00S 2195   0.934   1.955   5.974
   124G12c C00K 2196   0.784   2.076   6.092
   124G12c C00N 2197   0.517   1.932   5.873
   124G12c C000 2198   0.370   2.064   6.003
   124G12c C01J 2199   0.375   2.099   6.227
   124G12c C01K 2200   0.335   2.100   6.364
   124G12c C01P 2201   0.205   2.109   6.421
   124G12c C01Q 2202   0.092   2.154   6.345
   124G12c H00G 2203   0.099   2.233   6.272
   124G12c C01R 2204   6.500   2.092   6.372
   124G12c H00F 2205   6.504   2.007   6.439
   124G12c C01S 2206   6.363   2.137   6.317
   124G12c H00E 2207   6.371   2.158   6.211
   124G12c H00D 2208   6.294   2.053   6.325
   124G12c O005 2209   6.320   2.243   6.394
   124G12c H00C 2210   6.381   2.313   6.377
   124G12c C01O 2211   0.184   2.080   6.561
   124G12c H00H 2212   0.084   2.088   6.602
   124G12c C01N 2213   0.294   2.046   6.644
   124G12c O006 2214   0.282   2.007   6.778
   124G12c C01T 2215   0.157   2.008   6.836
   124G12c H00K 2216   0.153   1.960   6.934
   124G12c H00J 2217   0.071   1.972   6.780
   124G12c H00I 2218   0.132   2.111   6.862
   124G12c C01M 2219   0.425   2.050   6.590
   124G12c C020 2220   0.750   2.122   6.226
   124G12c C021 2221   0.844   2.133   6.333
   124G12c C01L 2222   0.448   2.078   6.449
   124G12c O007 2223   0.524   2.009   6.676
   124G12c C022 2224   0.813   2.119   6.464
   124G12c C023 2225   0.981   2.092   6.316
   124G12c C00G 2226   1.188   1.917   6.304
   124G12c C00E 2227   1.402   1.837   6.401
   124G12c O00A 2228   1.534   1.826   6.383
   124G12c C024 2229   1.598   1.947   6.410
   124G12c H00V 2230   1.554   2.039   6.371
   124G12c H00U 2231   1.700   1.947   6.371
   124G12c H00T 2232   1.612   1.965   6.517
   134G12c C00D 2233   4.888   4.422   3.363
   134G12c O00B 2234   4.880   4.488   3.237
   134G12c C025 2235   4.979   4.460   3.143
   134G12c C026 2236   4.961   4.330   3.062
   134G12c H00Y 2237   5.001   4.237   3.102
   134G12c H00X 2238   5.000   4.337   2.960
   134G12c O00C 2239   4.819   4.317   3.044
   134G12c H00W 2240   4.773   4.358   3.115
   134G12c C027 2241   5.079   4.547   3.120
   134G12c O00D 2242   5.071   4.675   3.174
   134G12c H00Z 2243   5.151   4.716   3.144
   134G12c C028 2244   5.197   4.518   3.044
   134G12c C029 2245   5.258   4.614   2.964
   134G12c H010 2246   5.215   4.713   2.962
   134G12c C02T 2247   5.376   4.594   2.897
   134G12c H01O 2248   5.416   4.663   2.824
   134G12c C02S 2249   5.445   4.475   2.913
   134G12c O00J 2250   5.556   4.446   2.836
   134G12c H01P 2251   5.576   4.354   2.830
   134G12c C02R 2252   5.393   4.378   2.992
   134G12c O00I 2253   5.458   4.252   3.006
   134G12c C02Q 2254   5.385   4.142   3.050
   134G12c H01N 2255   5.357   4.149   3.156
   134G12c H01R 2256   5.439   4.049   3.038
   134G12c H01Q 2257   5.287   4.118   3.008
   134G12c C02A 2258   5.272   4.398   3.063
   134G12c H011 2259   5.222   4.323   3.124
   134G12c C00C 2260   5.007   4.383   3.417
   134G12c H012 2261   5.098   4.401   3.363
   134G12c C00B 2262   5.016   4.333   3.548
   134G12c C00A 2263   5.131   4.279   3.617
   134G12c C009 2264   5.256   4.216   3.574
   134G12c C008 2265   5.309   4.180   3.457
   134G12c H013 2266   5.259   4.204   3.364
   134G12c C007 2267   5.419   4.085   3.447
   134G12c H014 2268   5.463   4.047   3.356
   134G12c C006 2269   5.462   4.020   3.567
   134G12c C005 2270   5.403   4.059   3.688
   134G12c C004 2271   5.409   3.980   3.804
   134G12c C003 2272   5.322   4.006   3.912
   134G12c C002 2273   5.329   3.918   4.025
   134G12c C001 2274   5.267   3.917   4.153
   134G12c C00M 2275   5.125   3.933   4.170
   134G12c C00L 2276   5.055   4.035   4.106
   134G12c C00R 2277   4.911   4.042   4.096
   134G12c C00Q 2278   4.805   3.966   4.150
   134G12c C00V 2279   4.676   4.000   4.097
   134G12c C00U 2280   4.660   4.089   3.990
   134G12c C00T 2281   4.770   4.155   3.938
   134G12c C016 2282   4.775   4.234   3.821
   134G12c C015 2283   4.653   4.253   3.761
   134G12c C010 2284   4.536   4.206   3.822
   134G12c C011 2285   4.410   4.249   3.773
   134G12c H005 2286   4.320   4.218   3.824
   134G12c C012 2287   4.402   4.330   3.659
   134G12c C017 2288   4.271   4.381   3.623
   134G12c O002 2289   4.170   4.288   3.621
   134G12c H004 2290   4.086   4.332   3.626
   134G12c C018 2291   4.255   4.515   3.590
   134G12c O001 2292   4.359   4.611   3.595
   134G12c H003 2293   4.401   4.597   3.679
   134G12c C019 2294   4.118   4.566   3.549
   134G12c H002 2295   4.115   4.673   3.567
   134G12c H001 2296   4.105   4.544   3.443
   134G12c O000 2297   4.020   4.494   3.622
   134G12c C01A 2298   3.908   4.557   3.672
   134G12c C02K 2299   3.845   4.483   3.782
   134G12c O00G 2300   3.875   4.351   3.809
   134G12c C02M 2301   3.988   4.331   3.896
   134G12c H01G 2302   4.075   4.381   3.854
   134G12c H01F 2303   4.014   4.225   3.896
   134G12c H01E 2304   3.958   4.353   3.998
   134G12c C02J 2305   3.738   4.537   3.852
   134G12c H01H 2306   3.701   4.481   3.937
   134G12c C02I 2307   3.685   4.658   3.807
   134G12c C02N 2308   3.577   4.722   3.877
   134G12c H01M 2309   3.507   4.794   3.837
   134G12c C02O 2310   3.548   4.692   4.000
   134G12c H01L 2311   3.607   4.614   4.047
   134G12c C02P 2312   3.440   4.753   4.084
   134G12c H01K 2313   3.477   4.784   4.181
   134G12c H01J 2314   3.383   4.838   4.048
   134G12c O00H 2315   3.344   4.654   4.108
   134G12c H01I 2316   3.284   4.697   4.168
   134G12c C02H 2317   3.740   4.725   3.696
   134G12c H01C 2318   3.692   4.814   3.659
   134G12c C02L 2319   3.857   4.683   3.635
   134G12c H01D 2320   3.896   4.743   3.554
   134G12c C013 2321   4.519   4.373   3.594
   134G12c H000 2322   4.496   4.428   3.504
   134G12c C014 2323   4.650   4.329   3.644
   134G12c C00F 2324   4.766   4.358   3.575
   134G12c C00H 2325   4.894   4.280   3.760
   134G12c C00I 2326   5.012   4.252   3.826
   134G12c C00J 2327   5.004   4.190   3.954
   134G12c C00Z 2328   4.537   4.113   3.929
   134G12c C00Y 2329   4.427   4.047   3.977
   134G12c H006 2330   4.329   4.050   3.932
   134G12c C00X 2331   4.435   3.965   4.095
   134G12c O003 2332   4.326   3.898   4.121
   134G12c C01B 2333   4.239   3.959   4.214
   134G12c H009 2334   4.143   3.908   4.218
   134G12c H008 2335   4.212   4.051   4.162
   134G12c H007 2336   4.274   3.993   4.312
   134G12c C00W 2337   4.562   3.930   4.146
   134G12c O004 2338   4.569   3.852   4.256
   134G12c C01C 2339   4.687   3.810   4.300
   134G12c H00A 2340   4.693   3.759   4.395
   134G12c C00P 2341   4.810   3.849   4.239
   134G12c C00O 2342   4.929   3.770   4.252
   134G12c C01D 2343   4.915   3.632   4.285
   134G12c H00S 2344   4.819   3.584   4.298
   134G12c C01E 2345   5.020   3.541   4.276
   134G12c O008 2346   5.005   3.407   4.304
   134G12c C01V 2347   4.925   3.379   4.414
   134G12c C01Z 2348   4.994   3.388   4.548
   134G12c H00R 2349   5.060   3.474   4.548
   134G12c H00Q 2350   4.931   3.394   4.637
   134G12c O009 2351   5.069   3.266   4.567
   134G12c H00P 2352   5.005   3.200   4.587
   134G12c C01W 2353   4.794   3.344   4.398
   134G12c H00O 2354   4.765   3.320   4.297
   134G12c C01X 2355   4.685   3.299   4.497
   134G12c H00N 2356   4.647   3.198   4.486
   134G12c H00M 2357   4.738   3.314   4.592
   134G12c C01Y 2358   4.575   3.403   4.489
   134G12c C02D 2359   4.532   3.463   4.366
   134G12c H019 2360   4.564   3.418   4.273
   134G12c C02C 2361   4.456   3.580   4.370
   134G12c H01A 2362   4.420   3.626   4.280
   134G12c C02B 2363   4.400   3.624   4.495
   134G12c O00E 2364   4.324   3.737   4.507
   134G12c H01B 2365   4.322   3.754   4.600
   134G12c C02F 2366   4.442   3.571   4.616
   134G12c O00F 2367   4.392   3.631   4.730
   134G12c C02G 2368   4.432   3.582   4.854
   134G12c H017 2369   4.390   3.648   4.930
   134G12c H016 2370   4.537   3.585   4.882
   134G12c H015 2371   4.382   3.488   4.876
   134G12c C02E 2372   4.530   3.460   4.614
   134G12c H018 2373   4.562   3.418   4.708
   134G12c C01F 2374   5.149   3.587   4.236
   134G12c C01G 2375   5.247   3.506   4.177
   134G12c H00L 2376   5.236   3.402   4.150
   134G12c C01H 2377   5.355   3.575   4.112
   134G12c H00B 2378   5.400   3.518   4.033
   134G12c C01I 2379   5.378   3.715   4.126
   134G12c C01U 2380   5.175   3.725   4.254
   134G12c C00S 2381   4.886   4.143   4.010
   134G12c C00K 2382   5.112   4.114   3.999
   134G12c C00N 2383   5.065   3.814   4.231
   134G12c C000 2384   5.293   3.789   4.215
   134G12c C01J 2385   5.414   3.801   4.019
   134G12c C01K 2386   5.509   3.778   3.909
   134G12c C01P 2387   5.613   3.682   3.895
   134G12c C01Q 2388   5.651   3.594   4.001
   134G12c H00G 2389   5.708   3.626   4.087
   134G12c C01R 2390   5.630   3.464   3.974
   134G12c H00F 2391   5.593   3.432   3.878
   134G12c C01S 2392   5.669   3.357   4.068
   134G12c H00E 2393   5.677   3.399   4.169
   134G12c H00D 2394   5.598   3.275   4.069
   134G12c O005 2395   5.793   3.307   4.015
   134G12c H00C 2396   5.865   3.328   4.072
   134G12c C01O 2397   5.695   3.676   3.779
   134G12c H00H 2398   5.782   3.612   3.784
   134G12c C01N 2399   5.664   3.740   3.666
   134G12c O006 2400   5.722   3.718   3.543
   134G12c C01T 2401   5.816   3.611   3.534
   134G12c H00K 2402   5.912   3.654   3.561
   134G12c H00J 2403   5.848   3.607   3.430
   134G12c H00I 2404   5.774   3.517   3.569
   134G12c C01M 2405   5.571   3.844   3.682
   134G12c C020 2406   5.231   4.115   3.914
   134G12c C021 2407   5.243   4.204   3.806
   134G12c C01L 2408   5.497   3.872   3.804
   134G12c O007 2409   5.543   3.912   3.563
   134G12c C022 2410   5.316   4.168   3.693
   134G12c C023 2411   5.133   4.276   3.754
   134G12c C00G 2412   4.894   4.326   3.627
   134G12c C00E 2413   4.770   4.417   3.442
   134G12c O00A 2414   4.661   4.443   3.366
   134G12c C024 2415   4.635   4.583   3.374
   134G12c H00V 2416   4.631   4.625   3.475
   134G12c H00U 2417   4.534   4.603   3.338
   134G12c H00T 2418   4.703   4.649   3.319
   144G12c C00D 2419   3.405   3.137   3.778
   144G12c O00B 2420   3.282   3.185   3.823
   144G12c C025 2421   3.228   3.306   3.781
   144G12c C026 2422   3.124   3.287   3.676
   144G12c H00Y 2423   3.164   3.209   3.610
   144G12c H00X 2424   3.110   3.381   3.623
   144G12c O00C 2425   3.015   3.245   3.760
   144G12c H00W 2426   3.051   3.222   3.844
   144G12c C027 2427   3.265   3.426   3.836
   144G12c O00D 2428   3.338   3.433   3.948
   144G12c H00Z 2429   3.331   3.345   3.981
   144G12c C028 2430   3.235   3.548   3.767
   144G12c C029 2431   3.153   3.644   3.833
   144G12c H010 2432   3.111   3.632   3.932
   144G12c C02T 2433   3.129   3.767   3.771
   144G12c H01O 2434   3.075   3.843   3.825
   144G12c C02S 2435   3.156   3.792   3.636
   144G12c O00J 2436   3.112   3.910   3.581
   144G12c H01P 2437   3.124   3.902   3.487
   144G12c C02R 2438   3.228   3.697   3.565
   144G12c O00I 2439   3.241   3.718   3.432
   144G12c C02Q 2440   3.333   3.639   3.359
   144G12c H01N 2441   3.334   3.695   3.266
   144G12c H01R 2442   3.286   3.541   3.357
   144G12c H01Q 2443   3.433   3.639   3.402
   144G12c C02A 2444   3.284   3.582   3.634
   144G12c H011 2445   3.360   3.512   3.602
   144G12c C00C 2446   3.474   3.205   3.675
   144G12c H012 2447   3.446   3.299   3.630
   144G12c C00B 2448   3.597   3.155   3.623
   144G12c C00A 2449   3.682   3.216   3.518
   144G12c C009 2450   3.657   3.303   3.407
   144G12c C008 2451   3.537   3.362   3.354
   144G12c H013 2452   3.451   3.371   3.419
   144G12c C007 2453   3.540   3.396   3.216
   144G12c H014 2454   3.473   3.472   3.176
   144G12c C006 2455   3.646   3.365   3.131
   144G12c C005 2456   3.759   3.306   3.191
   144G12c C004 2457   3.861   3.248   3.115
   144G12c C003 2458   3.955   3.160   3.171
   144G12c C002 2459   4.050   3.099   3.084
   144G12c C001 2460   4.149   3.002   3.104
   144G12c C00M 2461   4.125   2.881   3.179
   144G12c C00L 2462   4.070   2.878   3.309
   144G12c C00R 2463   4.033   2.766   3.385
   144G12c C00Q 2464   4.034   2.626   3.358
   144G12c C00V 2465   3.969   2.559   3.467
   144G12c C00U 2466   3.895   2.623   3.566
   144G12c C00T 2467   3.882   2.756   3.573
   144G12c C016 2468   3.781   2.831   3.641
   144G12c C015 2469   3.705   2.757   3.726
   144G12c C010 2470   3.735   2.620   3.751
   144G12c C011 2471   3.693   2.562   3.871
   144G12c H005 2472   3.730   2.465   3.901
   144G12c C012 2473   3.622   2.637   3.960
   144G12c C017 2474   3.580   2.574   4.082
   144G12c O002 2475   3.678   2.511   4.153
   144G12c H004 2476   3.762   2.541   4.123
   144G12c C018 2477   3.450   2.589   4.125
   144G12c O001 2478   3.356   2.669   4.067
   144G12c H003 2479   3.274   2.631   4.093
   144G12c C019 2480   3.404   2.513   4.248
   144G12c H002 2481   3.419   2.407   4.227
   144G12c H001 2482   3.479   2.541   4.322
   144G12c O000 2483   3.273   2.548   4.279
   144G12c C01A 2484   3.180   2.450   4.276
   144G12c C02K 2485   3.084   2.448   4.175
   144G12c O00G 2486   3.100   2.542   4.077
   144G12c C02M 2487   3.017   2.529   3.964
   144G12c H01G 2488   2.912   2.531   3.992
   144G12c H01F 2489   3.035   2.443   3.899
   144G12c H01E 2490   3.021   2.626   3.914
   144G12c C02J 2491   2.977   2.350   4.176
   144G12c H01H 2492   2.908   2.347   4.093
   144G12c C02I 2493   2.980   2.254   4.279
   144G12c C02N 2494   2.885   2.149   4.272
   144G12c H01M 2495   2.781   2.167   4.247
   144G12c C02O 2496   2.933   2.022   4.289
   144G12c H01L 2497   3.040   2.013   4.297
   144G12c C02P 2498   2.851   1.899   4.271
   144G12c H01K 2499   2.744   1.919   4.273
   144G12c H01J 2500   2.865   1.851   4.174
   144G12c O00H 2501   2.886   1.817   4.382
   144G12c H01I 2502   2.808   1.811   4.435
   144G12c C02H 2503   3.072   2.258   4.380
   144G12c H01C 2504   3.082   2.170   4.441
   144G12c C02L 2505   3.180   2.349   4.376
   144G12c H01D 2506   3.267   2.343   4.440
   144G12c C013 2507   3.590   2.769   3.928
   144G12c H000 2508   3.531   2.825   3.999
   144G12c C014 2509   3.623   2.828   3.807
   144G12c C00F 2510   3.580   2.962   3.771
   144G12c C00H 2511   3.763   2.969   3.623
   144G12c C00I 2512   3.852   3.037   3.540
   144G12c C00J 2513   3.964   2.962   3.489
   144G12c C00Z 2514   3.823   2.552   3.663
   144G12c C00Y 2515   3.830   2.407   3.658
   144G12c H006 2516   3.762   2.362   3.729
   144G12c C00X 2517   3.903   2.338   3.557
   144G12c O003 2518   3.908   2.199   3.543
   144G12c C01B 2519   3.829   2.111   3.628
   144G12c H009 2520   3.841   2.013   3.582
   144G12c H008 2521   3.723   2.132   3.614
   144G12c H007 2522   3.865   2.122   3.730
   144G12c C00W 2523   3.973   2.415   3.464
   144G12c O004 2524   4.041   2.354   3.365
   144G12c C01C 2525   4.055   2.415   3.246
   144G12c H00A 2526   4.076   2.349   3.162
   144G12c C00P 2527   4.071   2.556   3.236
   144G12c C00O 2528   4.110   2.620   3.113
   144G12c C01D 2529   4.119   2.539   2.992
   144G12c H00S 2530   4.114   2.431   2.991
   144G12c C01E 2531   4.130   2.599   2.864
   144G12c O008 2532   4.161   2.528   2.753
   144G12c C01V 2533   4.248   2.422   2.758
   144G12c C01Z 2534   4.183   2.291   2.719
   144G12c H00R 2535   4.252   2.209   2.740
   144G12c H00Q 2536   4.093   2.279   2.779
   144G12c O009 2537   4.162   2.285   2.578
   144G12c H00P 2538   4.226   2.344   2.540
   144G12c C01W 2539   4.373   2.444   2.797
   144G12c H00O 2540   4.407   2.546   2.808
   144G12c C01X 2541   4.482   2.337   2.826
   144G12c H00N 2542   4.469   2.242   2.774
   144G12c H00M 2543   4.573   2.391   2.801
   144G12c C01Y 2544   4.473   2.321   2.972
   144G12c C02D 2545   4.395   2.218   3.028
   144G12c H019 2546   4.352   2.140   2.968
   144G12c C02C 2547   4.374   2.214   3.164
   144G12c H01A 2548   4.316   2.137   3.212
   144G12c C02B 2549   4.425   2.313   3.247
   144G12c O00E 2550   4.398   2.313   3.381
   144G12c H01B 2551   4.452   2.375   3.428
   144G12c C02F 2552   4.498   2.421   3.192
   144G12c O00F 2553   4.540   2.522   3.272
   144G12c C02G 2554   4.448   2.628   3.287
   144G12c H017 2555   4.371   2.611   3.362
   144G12c H016 2556   4.389   2.655   3.200
   144G12c H015 2557   4.507   2.714   3.318
   144G12c C02E 2558   4.524   2.425   3.055
   144G12c H018 2559   4.577   2.508   3.010
   144G12c C01F 2560   4.133   2.742   2.852
   144G12c C01G 2561   4.096   2.821   2.737
   144G12c H00L 2562   4.064   2.776   2.645
   144G12c C01H 2563   4.078   2.966   2.746
   144G12c H00B 2564   4.025   3.010   2.664
   144G12c C01I 2565   4.109   3.028   2.870
   144G12c C01U 2566   4.162   2.820   2.965
   144G12c C00S 2567   3.973   2.827   3.495
   144G12c C00K 2568   4.009   2.999   3.360
   144G12c C00N 2569   4.133   2.761   3.095
   144G12c C000 2570   4.181   2.959   2.972
   144G12c C01J 2571   4.043   3.134   2.943
   144G12c C01K 2572   3.955   3.234   2.885
   144G12c C01P 2573   3.966   3.290   2.755
   144G12c C01Q 2574   4.090   3.275   2.678
   144G12c H00G 2575   4.188   3.267   2.724
   144G12c C01R 2576   4.083   3.270   2.544
   144G12c H00F 2577   3.991   3.282   2.489
   144G12c C01S 2578   4.198   3.257   2.447
   144G12c H00E 2579   4.280   3.235   2.515
   144G12c H00D 2580   4.201   3.183   2.367
   144G12c O005 2581   4.227   3.388   2.391
   144G12c H00C 2582   4.169   3.404   2.317
   144G12c C01O 2583   3.861   3.374   2.708
   144G12c H00H 2584   3.873   3.415   2.609
   144G12c C01N 2585   3.749   3.393   2.788
   144G12c O006 2586   3.636   3.452   2.742
   144G12c C01T 2587   3.631   3.490   2.607
   144G12c H00K 2588   3.639   3.394   2.555
   144G12c H00J 2589   3.706   3.568   2.600
   144G12c H00I 2590   3.530   3.525   2.587
   144G12c C01M 2591   3.750   3.354   2.922
   144G12c C020 2592   3.957   3.121   3.306
   144G12c C021 2593   3.867   3.207   3.381
   144G12c C01L 2594   3.859   3.278   2.976
   144G12c O007 2595   3.641   3.389   2.996
   144G12c C022 2596   3.773   3.295   3.328
   144G12c C023 2597   3.810   3.159   3.498
   144G12c C00G 2598   3.646   3.031   3.674
   144G12c C00E 2599   3.459   3.019   3.825
   144G12c O00A 2600   3.368   2.952   3.905
   144G12c C024 2601   3.264   2.884   3.843
   144G12c H00V 2602   3.217   2.830   3.925
   144G12c H00U 2603   3.309   2.811   3.775
   144G12c H00T 2604   3.191   2.948   3.793
   154G12c C00D 2605   3.512   2.099   3.408
   154G12c O00B 2606   3.470   1.968   3.421
   154G12c C025 2607   3.394   1.938   3.534
   154G12c C026 2608   3.245   1.951   3.518
   154G12c H00Y 2609   3.175   1.909   3.590
   154G12c H00X 2610   3.225   1.905   3.421
   154G12c O00C 2611   3.206   2.084   3.514
   154G12c H00W 2612   3.121   2.091   3.472
   154G12c C027 2613   3.458   1.885   3.651
   154G12c O00D 2614   3.593   1.855   3.658
   154G12c H00Z 2615   3.637   1.846   3.574
   154G12c C028 2616   3.381   1.865   3.774
   154G12c C029 2617   3.385   1.748   3.850
   154G12c H010 2618   3.447   1.665   3.822
   154G12c C02T 2619   3.322   1.726   3.971
   154G12c H01O 2620   3.339   1.633   4.024
   154G12c C02S 2621   3.255   1.830   4.024
   154G12c O00J 2622   3.189   1.818   4.142
   154G12c H01P 2623   3.144   1.901   4.142
   154G12c C02R 2624   3.240   1.954   3.957
   154G12c O00I 2625   3.165   2.054   4.009
   154G12c C02Q 2626   3.093   2.139   3.913
   154G12c H01N 2627   3.018   2.187   3.975
   154G12c H01R 2628   3.045   2.078   3.836
   154G12c H01Q 2629   3.156   2.216   3.869
   154G12c C02A 2630   3.301   1.973   3.831
   154G12c H011 2631   3.278   2.061   3.773
   154G12c C00C 2632   3.478   2.204   3.492
   154G12c H012 2633   3.403   2.196   3.568
   154G12c C00B 2634   3.516   2.341   3.464
   154G12c C00A 2635   3.454   2.458   3.523
   154G12c C009 2636   3.320   2.473   3.572
   154G12c C008 2637   3.206   2.393   3.616
   154G12c H013 2638   3.218   2.287   3.630
   154G12c C007 2639   3.079   2.462   3.632
   154G12c H014 2640   3.006   2.393   3.672
   154G12c C006 2641   3.067   2.602   3.605
   154G12c C005 2642   3.181   2.670   3.565
   154G12c C004 2643   3.174   2.803   3.516
   154G12c C003 2644   3.290   2.863   3.468
   154G12c C002 2645   3.275   2.991   3.402
   154G12c C001 2646   3.367   3.085   3.341
   154G12c C00M 2647   3.462   3.038   3.245
   154G12c C00L 2648   3.557   2.937   3.269
   154G12c C00R 2649   3.631   2.874   3.163
   154G12c C00Q 2650   3.655   2.900   3.024
   154G12c C00V 2651   3.720   2.790   2.948
   154G12c C00U 2652   3.745   2.663   3.008
   154G12c C00T 2653   3.708   2.640   3.137
   154G12c C016 2654   3.710   2.515   3.199
   154G12c C015 2655   3.749   2.410   3.120
   154G12c C010 2656   3.797   2.433   2.991
   154G12c C011 2657   3.854   2.319   2.917
   154G12c H005 2658   3.908   2.337   2.825
   154G12c C012 2659   3.868   2.193   2.978
   154G12c C017 2660   3.936   2.081   2.923
   154G12c O002 2661   3.918   2.054   2.789
   154G12c H004 2662   3.854   2.115   2.756
   154G12c C018 2663   4.013   1.998   2.995
   154G12c O001 2664   4.053   2.028   3.127
   154G12c H003 2665   4.083   1.947   3.166
   154G12c C019 2666   4.063   1.865   2.955
   154G12c H002 2667   4.015   1.827   2.864
   154G12c H001 2668   4.169   1.874   2.930
   154G12c O000 2669   4.054   1.770   3.060
   154G12c C01A 2670   3.928   1.729   3.096
   154G12c C02K 2671   3.921   1.635   3.200
   154G12c O00G 2672   4.037   1.603   3.265
   154G12c C02M 2673   4.065   1.476   3.328
   154G12c H01G 2674   3.985   1.439   3.393
   154G12c H01F 2675   4.147   1.480   3.399
   154G12c H01E 2676   4.095   1.392   3.266
   154G12c C02J 2677   3.796   1.583   3.248
   154G12c H01H 2678   3.784   1.510   3.327
   154G12c C02I 2679   3.677   1.620   3.183
   154G12c C02N 2680   3.557   1.570   3.235
   154G12c H01M 2681   3.551   1.464   3.256
   154G12c C02O 2682   3.454   1.652   3.259
   154G12c H01L 2683   3.457   1.757   3.234
   154G12c C02P 2684   3.324   1.617   3.326
   154G12c H01K 2685   3.255   1.701   3.331
   154G12c H01J 2686   3.261   1.533   3.296
   154G12c O00H 2687   3.354   1.591   3.463
   154G12c H01I 2688   3.280   1.618   3.514
   154G12c C02H 2689   3.688   1.719   3.082
   154G12c H01C 2690   3.598   1.756   3.035
   154G12c C02L 2691   3.809   1.771   3.035
   154G12c H01D 2692   3.807   1.854   2.967
   154G12c C013 2693   3.813   2.174   3.102
   154G12c H000 2694   3.822   2.078   3.151
   154G12c C014 2695   3.740   2.280   3.169
   154G12c C00F 2696   3.659   2.251   3.279
   154G12c C00H 2697   3.647   2.488   3.322
   154G12c C00I 2698   3.600   2.600   3.393
   154G12c C00J 2699   3.614   2.728   3.334
   154G12c C00Z 2700   3.781   2.557   2.928
   154G12c C00Y 2701   3.813   2.580   2.792
   154G12c H006 2702   3.858   2.500   2.734
   154G12c C00X 2703   3.797   2.702   2.730
   154G12c O003 2704   3.812   2.730   2.594
   154G12c C01B 2705   3.846   2.616   2.510
   154G12c H009 2706   3.796   2.521   2.528
   154G12c H008 2707   3.955   2.603   2.506
   154G12c H007 2708   3.809   2.638   2.410
   154G12c C00W 2709   3.751   2.805   2.810
   154G12c O004 2710   3.717   2.920   2.747
   154G12c C01C 2711   3.656   3.023   2.813
   154G12c H00A 2712   3.653   3.119   2.763
   154G12c C00P 2713   3.601   3.007   2.944
   154G12c C00O 2714   3.495   3.094   2.984
   154G12c C01D 2715   3.416   3.158   2.888
   154G12c H00S 2716   3.448   3.154   2.786
   154G12c C01E 2717   3.295   3.225   2.908
   154G12c O008 2718   3.224   3.252   2.793
   154G12c C01V 2719   3.208   3.382   2.750
   154G12c C01Z 2720   3.137   3.375   2.615
   154G12c H00R 2721   3.096   3.277   2.590
   154G12c H00Q 2722   3.052   3.443   2.625
   154G12c O009 2723   3.231   3.413   2.516
   154G12c H00P 2724   3.300   3.351   2.498
   154G12c C01W 2725   3.242   3.496   2.812
   154G12c H00O 2726   3.289   3.488   2.909
   154G12c C01X 2727   3.223   3.640   2.756
   154G12c H00N 2728   3.307   3.697   2.797
   154G12c H00M 2729   3.239   3.650   2.649
   154G12c C01Y 2730   3.084   3.696   2.793
   154G12c C02D 2731   2.992   3.736   2.693
   154G12c H019 2732   3.004   3.714   2.588
   154G12c C02C 2733   2.871   3.796   2.738
   154G12c H01A 2734   2.789   3.805   2.667
   154G12c C02B 2735   2.844   3.812   2.870
   154G12c O00E 2736   2.724   3.854   2.914
   154G12c H01B 2737   2.720   3.889   3.002
   154G12c C02F 2738   2.941   3.778   2.971
   154G12c O00F 2739   2.907   3.787   3.101
   154G12c C02G 2740   2.996   3.726   3.195
   154G12c H017 2741   2.990   3.619   3.178
   154G12c H016 2742   2.961   3.744   3.297
   154G12c H015 2743   3.098   3.764   3.193
   154G12c C02E 2744   3.062   3.719   2.930
   154G12c H018 2745   3.146   3.693   2.993
   154G12c C01F 2746   3.244   3.226   3.037
   154G12c C01G 2747   3.105   3.251   3.070
   154G12c H00L 2748   3.038   3.296   2.998
   154G12c C01H 2749   3.053   3.212   3.199
   154G12c H00B 2750   2.946   3.223   3.211
   154G12c C01I 2751   3.143   3.162   3.302
   154G12c C01U 2752   3.326   3.186   3.140
   154G12c C00S 2753   3.679   2.750   3.215
   154G12c C00K 2754   3.525   2.837   3.362
   154G12c C00N 2755   3.437   3.101   3.113
   154G12c C000 2756   3.283   3.180   3.276
   154G12c C01J 2757   3.145   3.048   3.392
   154G12c C01K 2758   3.025   2.991   3.455
   154G12c C01P 2759   2.896   3.047   3.472
   154G12c C01Q 2760   2.870   3.185   3.441
   154G12c H00G 2761   2.941   3.262   3.466
   154G12c C01R 2762   2.757   3.234   3.382
   154G12c H00F 2763   2.688   3.164   3.338
   154G12c C01S 2764   2.718   3.378   3.347
   154G12c H00E 2765   2.799   3.447   3.367
   154G12c H00D 2766   2.701   3.379   3.240
   154G12c O005 2767   2.594   3.414   3.405
   154G12c H00C 2768   2.580   3.367   3.486
   154G12c C01O 2769   2.795   2.973   3.531
   154G12c H00H 2770   2.703   3.025   3.554
   154G12c C01N 2771   2.810   2.843   3.569
   154G12c O006 2772   2.715   2.767   3.626
   154G12c C01T 2773   2.588   2.796   3.589
   154G12c H00K 2774   2.516   2.716   3.605
   154G12c H00J 2775   2.586   2.804   3.480
   154G12c H00I 2776   2.548   2.889   3.630
   154G12c C01M 2777   2.938   2.791   3.563
   154G12c C020 2778   3.422   2.801   3.462
   154G12c C021 2779   3.424   2.679   3.535
   154G12c C01L 2780   3.049   2.863   3.509
   154G12c O007 2781   2.945   2.661   3.605
   154G12c C022 2782   3.305   2.611   3.566
   154G12c C023 2783   3.517   2.579   3.502
   154G12c C00G 2784   3.614   2.361   3.362
   154G12c C00E 2785   3.595   2.123   3.297
   154G12c O00A 2786   3.602   2.019   3.206
   154G12c C024 2787   3.511   2.025   3.104
   154G12c H00V 2788   3.441   2.104   3.129
   154G12c H00U 2789   3.454   1.932   3.099
   154G12c H00T 2790   3.558   2.058   3.012
   164G12c C00D 2791   4.337   2.409   7.841
   164G12c O00B 2792   4.381   2.466   7.958
   164G12c C025 2793   4.406   2.607   7.961
   164G12c C026 2794   4.297   2.701   7.997
   164G12c H00Y 2795   4.331   2.797   7.960
   164G12c H00X 2796   4.288   2.704   8.106
   164G12c O00C 2797   4.173   2.666   7.941
   164G12c H00W 2798   4.180   2.572   7.946
   164G12c C027 2799   4.532   2.654   7.932
   164G12c O00D 2800   4.631   2.570   7.899
   164G12c H00Z 2801   4.696   2.610   7.843
   164G12c C028 2802   4.573   2.794   7.940
   164G12c C029 2803   4.605   2.850   8.067
   164G12c H010 2804   4.597   2.799   8.161
   164G12c C02T 2805   4.659   2.985   8.073
   164G12c H01O 2806   4.694   3.024   8.168
   164G12c C02S 2807   4.671   3.056   7.956
   164G12c O00J 2808   4.726   3.182   7.950
   164G12c H01P 2809   4.714   3.219   7.864
   164G12c C02R 2810   4.637   3.001   7.830
   164G12c O00I 2811   4.642   3.090   7.723
   164G12c C02Q 2812   4.578   3.066   7.598
   164G12c H01N 2813   4.482   3.015   7.605
   164G12c H01R 2814   4.646   3.005   7.537
   164G12c H01Q 2815   4.554   3.157   7.542
   164G12c C02A 2816   4.597   2.868   7.821
   164G12c H011 2817   4.565   2.818   7.730
   164G12c C00C 2818   4.350   2.465   7.715
   164G12c H012 2819   4.412   2.552   7.696
   164G12c C00B 2820   4.320   2.402   7.594
   164G12c C00A 2821   4.338   2.455   7.455
   164G12c C009 2822   4.335   2.594   7.406
   164G12c C008 2823   4.341   2.722   7.468
   164G12c H013 2824   4.361   2.734   7.573
   164G12c C007 2825   4.286   2.834   7.398
   164G12c H014 2826   4.281   2.930   7.447
   164G12c C006 2827   4.243   2.824   7.259
   164G12c C005 2828   4.238   2.696   7.206
   164G12c C004 2829   4.157   2.663   7.094
   164G12c C003 2830   4.140   2.525   7.059
   164G12c C002 2831   4.050   2.506   6.944
   164G12c C001 2832   3.995   2.386   6.886
   164G12c C00M 2833   3.945   2.275   6.968
   164G12c C00L 2834   4.020   2.210   7.066
   164G12c C00R 2835   3.958   2.116   7.162
   164G12c C00Q 2836   3.832   2.053   7.175
   164G12c C00V 2837   3.814   1.984   7.297
   164G12c C00U 2838   3.906   1.995   7.404
   164G12c C00T 2839   4.022   2.066   7.398
   164G12c C016 2840   4.099   2.117   7.503
   164G12c C015 2841   4.074   2.057   7.624
   164G12c C010 2842   3.964   1.967   7.637
   164G12c C011 2843   3.944   1.900   7.760
   164G12c H005 2844   3.864   1.829   7.774
   164G12c C012 2845   4.028   1.925   7.868
   164G12c C017 2846   4.002   1.852   7.994
   164G12c O002 2847   3.935   1.738   7.990
   164G12c H004 2848   3.976   1.670   8.042
   164G12c C018 2849   4.046   1.900   8.120
   164G12c O001 2850   4.085   2.029   8.141
   164G12c H003 2851   4.081   2.038   8.235
   164G12c C019 2852   4.023   1.824   8.249
   164G12c H002 2853   3.917   1.799   8.248
   164G12c H001 2854   4.090   1.738   8.258
   164G12c O000 2855   4.057   1.907   8.369
   164G12c C01A 2856   4.031   1.853   8.487
   164G12c C02K 2857   4.085   1.914   8.597
   164G12c O00G 2858   4.141   2.038   8.574
   164G12c C02M 2859   4.185   2.106   8.686
   164G12c H01G 2860   4.240   2.189   8.642
   164G12c H01F 2861   4.251   2.054   8.755
   164G12c H01E 2862   4.096   2.133   8.744
   164G12c C02J 2863   4.077   1.851   8.728
   164G12c H01H 2864   4.120   1.890   8.819
   164G12c C02I 2865   4.016   1.727   8.745
   164G12c C02N 2866   4.027   1.655   8.867
   164G12c H01M 2867   4.003   1.699   8.963
   164G12c C02O 2868   4.059   1.522   8.863
   164G12c H01L 2869   4.087   1.476   8.770
   164G12c C02P 2870   4.079   1.448   8.991
   164G12c H01K 2871   4.102   1.518   9.071
   164G12c H01J 2872   3.990   1.391   9.018
   164G12c O00H 2873   4.192   1.362   8.973
   164G12c H01I 2874   4.266   1.416   8.953
   164G12c C02H 2875   3.952   1.667   8.632
   164G12c H01C 2876   3.902   1.573   8.650
   164G12c C02L 2877   3.966   1.720   8.502
   164G12c H01D 2878   3.916   1.664   8.424
   164G12c C013 2879   4.131   2.017   7.852
   164G12c H000 2880   4.193   2.030   7.940
   164G12c C014 2881   4.149   2.097   7.736
   164G12c C00F 2882   4.230   2.215   7.724
   164G12c C00H 2883   4.193   2.215   7.487
   164G12c C00I 2884   4.225   2.265   7.358
   164G12c C00J 2885   4.146   2.214   7.251
   164G12c C00Z 2886   3.878   1.942   7.531
   164G12c C00Y 2887   3.755   1.878   7.543
   164G12c H006 2888   3.724   1.830   7.635
   164G12c C00X 2889   3.658   1.867   7.445
   164G12c O003 2890   3.539   1.808   7.458
   164G12c C01B 2891   3.553   1.682   7.520
   164G12c H009 2892   3.561   1.684   7.629
   164G12c H008 2893   3.634   1.621   7.482
   164G12c H007 2894   3.467   1.617   7.503
   164G12c C00W 2895   3.686   1.925   7.321
   164G12c O004 2896   3.583   1.923   7.229
   164G12c C01C 2897   3.616   1.966   7.106
   164G12c H00A 2898   3.559   1.925   7.025
   164G12c C00P 2899   3.721   2.060   7.085
   164G12c C00O 2900   3.705   2.165   6.986
   164G12c C01D 2901   3.577   2.183   6.923
   164G12c H00S 2902   3.497   2.111   6.930
   164G12c C01E 2903   3.543   2.300   6.850
   164G12c O008 2904   3.410   2.322   6.814
   164G12c C01V 2905   3.313   2.311   6.904
   164G12c C01Z 2906   3.243   2.174   6.903
   164G12c H00R 2907   3.136   2.195   6.898
   164G12c H00Q 2908   3.274   2.117   6.815
   164G12c O009 2909   3.256   2.096   7.019
   164G12c H00P 2910   3.198   2.129   7.086
   164G12c C01W 2911   3.276   2.421   6.978
   164G12c H00O 2912   3.331   2.511   6.954
   164G12c C01X 2913   3.161   2.425   7.077
   164G12c H00N 2914   3.087   2.492   7.035
   164G12c H00M 2915   3.124   2.323   7.080
   164G12c C01Y 2916   3.210   2.469   7.214
   164G12c C02D 2917   3.157   2.416   7.335
   164G12c H019 2918   3.067   2.356   7.332
   164G12c C02C 2919   3.213   2.448   7.458
   164G12c H01A 2920   3.160   2.400   7.539
   164G12c C02B 2921   3.323   2.533   7.462
   164G12c O00E 2922   3.397   2.545   7.573
   164G12c H01B 2923   3.473   2.601   7.569
   164G12c C02F 2924   3.380   2.589   7.348
   164G12c O00F 2925   3.492   2.670   7.366
   164G12c C02G 2926   3.569   2.701   7.249
   164G12c H017 2927   3.608   2.610   7.203
   164G12c H016 2928   3.653   2.767   7.271
   164G12c H015 2929   3.511   2.756   7.175
   164G12c C02E 2930   3.319   2.566   7.226
   164G12c H018 2931   3.357   2.616   7.139
   164G12c C01F 2932   3.642   2.398   6.830
   164G12c C01G 2933   3.619   2.537   6.794
   164G12c H00L 2934   3.522   2.578   6.771
   164G12c C01H 2935   3.735   2.625   6.791
   164G12c H00B 2936   3.710   2.730   6.796
   164G12c C01I 2937   3.865   2.572   6.810
   164G12c C01U 2938   3.777   2.362   6.850
   164G12c C00S 2939   4.049   2.115   7.271
   164G12c C00K 2940   4.121   2.284   7.135
   164G12c C00N 2941   3.805   2.254   6.941
   164G12c C000 2942   3.890   2.429   6.804
   164G12c C01J 2943   3.984   2.616   6.883
   164G12c C01K 2944   4.016   2.757   6.905
   164G12c C01P 2945   3.984   2.875   6.833
   164G12c C01Q 2946   3.910   2.868   6.708
   164G12c H00G 2947   3.811   2.910   6.696
   164G12c C01R 2948   3.964   2.807   6.605
   164G12c H00F 2949   4.067   2.774   6.604
   164G12c C01S 2950   3.893   2.767   6.476
   164G12c H00E 2951   3.874   2.850   6.408
   164G12c H00D 2952   3.937   2.686   6.418
   164G12c O005 2953   3.758   2.734   6.509
   164G12c H00C 2954   3.690   2.751   6.445
   164G12c C01O 2955   4.017   3.003   6.879
   164G12c H00H 2956   3.971   3.084   6.824
   164G12c C01N 2957   4.088   3.027   7.000
   164G12c O006 2958   4.117   3.154   7.058
   164G12c C01T 2959   4.081   3.266   6.985
   164G12c H00K 2960   3.977   3.295   7.000
   164G12c H00J 2961   4.110   3.268   6.880
   164G12c H00I 2962   4.131   3.352   7.030
   164G12c C01M 2963   4.128   2.910   7.067
   164G12c C020 2964   4.191   2.414   7.131
   164G12c C021 2965   4.295   2.453   7.227
   164G12c C01L 2966   4.099   2.772   7.019
   164G12c O007 2967   4.205   2.932   7.183
   164G12c C022 2968   4.309   2.586   7.269
   164G12c C023 2969   4.308   2.373   7.345
   164G12c C00G 2970   4.251   2.275   7.600
   164G12c C00E 2971   4.272   2.282   7.849
   164G12c O00A 2972   4.274   2.223   7.974
   164G12c C024 2973   4.395   2.159   8.002
   164G12c H00V 2974   4.394   2.112   8.100
   164G12c H00U 2975   4.474   2.234   8.004
   164G12c H00T 2976   4.416   2.082   7.927
   174G12c C00D 2977   0.328   6.001   8.921
   174G12c O00B 2978   0.424   5.977   8.826
   174G12c C025 2979   0.559   5.981   8.853
   174G12c C026 2980   0.606   5.865   8.931
   174G12c H00Y 2981   0.546   5.867   9.023
   174G12c H00X 2982   0.708   5.877   8.969
   174G12c O00C 2983   0.590   5.751   8.845
   174G12c H00W 2984   0.502   5.756   8.810
   174G12c C027 2985   0.623   6.094   8.823
   174G12c O00D 2986   0.548   6.188   8.766
   174G12c H00Z 2987   0.474   6.139   8.735
   174G12c C028 2988   0.756   6.123   8.854
   174G12c C029 2989   0.860   6.026   8.825
   174G12c H010 2990   0.826   5.927   8.800
   174G12c C02T 2991   0.997   6.047   8.862
   174G12c H01O 2992   1.075   5.974   8.847
   174G12c C02S 2993   1.023   6.176   8.920
   174G12c O00J 2994   1.153   6.208   8.954
   174G12c H01P 2995   1.159   6.285   9.009
   174G12c C02R 2996   0.923   6.277   8.932
   174G12c O00I 2997   0.968   6.404   8.959
   174G12c C02Q 2998   0.880   6.521   8.943
   174G12c H01N 2999   0.782   6.515   8.989
   174G12c H01R 3000   0.862   0.019   8.837
   174G12c H01Q 3001   0.944   0.083   8.973
   174G12c C02A 3002   0.789   6.249   8.897
   174G12c H011 3003   0.722   6.332   8.917
   174G12c C00C 3004   0.202   5.979   8.873
   174G12c H012 3005   0.192   5.933   8.776
   174G12c C00B 3006   0.090   6.003   8.948
   174G12c C00A 3007   6.476   5.991   8.903
   174G12c C009 3008   6.418   6.037   8.774
   174G12c C008 3009   6.471   6.085   8.648
   174G12c H013 3010   0.054   6.072   8.621
   174G12c C007 3011   6.376   6.157   8.563
   174G12c H014 3012   6.407   6.209   8.474
   174G12c C006 3013   6.247   6.189   8.601
   174G12c C005 3014   6.204   6.143   8.722
   174G12c C004 3015   6.089   6.190   8.780
   174G12c C003 3016   6.060   6.163   8.916
   174G12c C002 3017   5.944   6.226   8.972
   174G12c C001 3018   5.879   6.225   9.106
   174G12c C00M 3019   5.965   6.254   9.223
   174G12c C00L 3020   6.092   6.195   9.241
   174G12c C00R 3021   6.191   6.222   9.339
   174G12c C00Q 3022   6.192   6.322   9.446
   174G12c C00V 3023   6.317   6.322   9.514
   174G12c C00U 3024   6.429   6.251   9.474
   174G12c C00T 3025   6.424   6.165   9.367
   174G12c C016 3026   0.011   6.114   9.294
   174G12c C015 3027   0.134   6.137   9.352
   174G12c C010 3028   0.146   6.198   9.475
   174G12c C011 3029   0.274   6.204   9.534
   174G12c H005 3030   0.292   6.250   9.631
   174G12c C012 3031   0.385   6.140   9.479
   174G12c C017 3032   0.517   6.139   9.543
   174G12c O002 3033   0.626   6.197   9.484
   174G12c H004 3034   0.700   6.199   9.543
   174G12c C018 3035   0.533   6.079   9.664
   174G12c O001 3036   0.427   6.007   9.715
   174G12c H003 3037   0.422   6.020   9.809
   174G12c C019 3038   0.667   6.067   9.738
   174G12c H002 3039   0.645   6.084   9.843
   174G12c H001 3040   0.713   5.971   9.717
   174G12c O000 3041   0.764   6.161   9.699
   174G12c C01A 3042   0.896   6.147   9.746
   174G12c C02K 3043   0.999   6.219   9.682
   174G12c O00G 3044   0.970   6.297   9.569
   174G12c C02M 3045   1.070   6.365   9.495
   174G12c H01G 3046   1.120   6.436   9.561
   174G12c H01F 3047   1.029   6.409   9.404
   174G12c H01E 3048   1.142   6.294   9.454
   174G12c C02J 3049   1.136   6.196   9.729
   174G12c H01H 3050   1.217   6.253   9.685
   174G12c C02I 3051   1.171   6.112   9.832
   174G12c C02N 3052   1.309   6.069   9.851
   174G12c H01M 3053   1.390   6.079   9.780
   174G12c C02O 3054   1.351   6.012   9.969
   174G12c H01L 3055   1.291   5.983  10.054
   174G12c C02P 3056   1.494   5.980  10.001
   174G12c H01K 3057   1.483   5.881  10.046
   174G12c H01J 3058   1.554   5.966   9.911
   174G12c O00H 3059   1.531   6.082  10.090
   174G12c H01I 3060   1.622   6.069  10.111
   174G12c C02H 3061   1.063   6.049   9.896
   174G12c H01C 3062   1.074   5.976   9.974
   174G12c C02L 3063   0.930   6.063   9.850
   174G12c H01D 3064   0.857   6.015   9.913
   174G12c C013 3065   0.370   6.082   9.350
   174G12c H000 3066   0.449   6.028   9.301
   174G12c C014 3067   0.245   6.092   9.278
   174G12c C00F 3068   0.232   6.061   9.142
   174G12c C00H 3069   6.516   6.059   9.167
   174G12c C00I 3070   6.388   6.030   9.126
   174G12c C00J 3071   6.280   6.063   9.206
   174G12c C00Z 3072   0.029   6.256   9.533
   174G12c C00Y 3073   0.046   6.346   9.642
   174G12c H006 3074   0.136   6.354   9.701
   174G12c C00X 3075   6.456   6.424   9.687
   174G12c O003 3076   6.462   6.514   9.795
   174G12c C01B 3077   0.069   0.012   9.855
   174G12c H009 3078   0.110   6.437   9.887
   174G12c H008 3079   0.052   0.068   9.948
   174G12c H007 3080   0.140   0.066   9.792
   174G12c C00W 3081   6.334   6.411   9.622
   174G12c O004 3082   6.236   6.492   9.667
   174G12c C01C 3083   6.123   6.512   9.590
   174G12c H00A 3084   6.038   0.041   9.633
   174G12c C00P 3085   6.103   6.426   9.472
   174G12c C00O 3086   5.992   6.464   9.380
   174G12c C01D 3087   5.946   0.076   9.380
   174G12c H00S 3088   5.993   0.147   9.446
   174G12c C01E 3089   5.852   0.131   9.291
   174G12c O008 3090   5.811   0.261   9.290
   174G12c C01V 3091   5.854   0.342   9.395
   174G12c C01Z 3092   5.943   0.455   9.348
   174G12c H00R 3093   6.037   0.458   9.402
   174G12c H00Q 3094   5.970   0.428   9.246
   174G12c O009 3095   5.866   0.575   9.353
   174G12c H00P 3096   5.918   0.629   9.410
   174G12c C01W 3097   5.816   0.323   9.523
   174G12c H00O 3098   5.752   0.239   9.547
   174G12c C01X 3099   5.855   0.416   9.634
   174G12c H00N 3100   5.865   0.518   9.598
   174G12c H00M 3101   5.764   0.420   9.694
   174G12c C01Y 3102   5.965   0.350   9.718
   174G12c C02D 3103   5.944   0.270   9.829
   174G12c H019 3104   5.843   0.243   9.856
   174G12c C02C 3105   6.046   0.210   9.893
   174G12c H01A 3106   6.017   0.142   9.972
   174G12c C02B 3107   6.180   0.232   9.857
   174G12c O00E 3108   6.285   0.175   9.920
   174G12c H01B 3109   6.352   0.159   9.855
   174G12c C02F 3110   6.210   0.324   9.752
   174G12c O00F 3111   6.345   0.349   9.730
   174G12c C02G 3112   6.387   0.420   9.614
   174G12c H017 3113   6.496   0.429   9.614
   174G12c H016 3114   6.339   0.516   9.596
   174G12c H015 3115   6.358   0.368   9.523
   174G12c C02E 3116   6.101   0.388   9.692
   174G12c H018 3117   6.127   0.462   9.618
   174G12c C01F 3118   5.801   0.043   9.190
   174G12c C01G 3119   5.752   0.091   9.071
   174G12c H00L 3120   5.732   0.196   9.053
   174G12c C01H 3121   5.736   0.004   8.957
   174G12c H00B 3122   5.722   0.054   8.862
   174G12c C01I 3123   5.783   6.393   8.972
   174G12c C01U 3124   5.819   6.425   9.198
   174G12c C00S 3125   6.295   6.140   9.318
   174G12c C00K 3126   6.152   6.106   9.146
   174G12c C00N 3127   5.928   6.383   9.279
   174G12c C000 3128   5.780   6.334   9.100
   174G12c C01J 3129   5.867   6.312   8.887
   174G12c C01K 3130   5.884   6.321   8.745
   174G12c C01P 3131   5.795   6.386   8.651
   174G12c C01Q 3132   5.657   6.413   8.684
   174G12c H00G 3133   5.605   6.340   8.743
   174G12c C01R 3134   5.589   6.521   8.643
   174G12c H00F 3135   5.630   0.079   8.582
   174G12c C01S 3136   5.441   0.010   8.659
   174G12c H00E 3137   5.419   6.451   8.729
   174G12c H00D 3138   5.431   0.110   8.702
   174G12c O005 3139   5.375   6.519   8.537
   174G12c H00C 3140   5.346   0.081   8.503
   174G12c C01O 3141   5.841   6.408   8.515
   174G12c H00H 3142   5.777   6.463   8.447
   174G12c C01N 3143   5.965   6.362   8.465
   174G12c O006 3144   6.021   6.388   8.339
   174G12c C01T 3145   5.938   6.445   8.236
   174G12c H00K 3146   5.865   6.368   8.211
   174G12c H00J 3147   6.007   6.464   8.153
   174G12c H00I 3148   5.900   0.023   8.264
   174G12c C01M 3149   6.042   6.296   8.558
   174G12c C020 3150   6.150   6.096   9.001
   174G12c C021 3151   6.249   6.020   8.931
   174G12c C01L 3152   6.005   6.267   8.695
   174G12c O007 3153   6.169   6.262   8.519
   174G12c C022 3154   6.276   6.051   8.803
   174G12c C023 3155   6.371   5.988   8.995
   174G12c C00G 3156   0.105   6.042   9.087
   174G12c C00E 3157   0.340   6.053   9.049
   174G12c O00A 3158   0.457   6.097   9.092
   174G12c C024 3159   0.465   6.240   9.096
   174G12c H00V 3160   0.454   6.277   8.994
   174G12c H00U 3161   0.561   6.281   9.128
   174G12c H00T 3162   0.393   6.287   9.163
   184G12c C00D 3163   2.387   1.441   6.434
   184G12c O00B 3164   2.385   1.467   6.570
   184G12c C025 3165   2.453   1.390   6.665
   184G12c C026 3166   2.357   1.342   6.770
   184G12c H00Y 3167   2.408   1.274   6.838
   184G12c H00X 3168   2.273   1.288   6.727
   184G12c O00C 3169   2.324   1.461   6.835
   184G12c H00W 3170   2.293   1.517   6.765
   184G12c C027 3171   2.591   1.370   6.664
   184G12c O00D 3172   2.667   1.417   6.557
   184G12c H00Z 3173   2.613   1.460   6.492
   184G12c C028 3174   2.651   1.303   6.776
   184G12c C029 3175   2.736   1.191   6.745
   184G12c H010 3176   2.750   1.154   6.645
   184G12c C02T 3177   2.794   1.117   6.854
   184G12c H01O 3178   2.856   1.032   6.832
   184G12c C02S 3179   2.778   1.160   6.989
   184G12c O00J 3180   2.828   1.086   7.090
   184G12c H01P 3181   2.779   1.114   7.166
   184G12c C02R 3182   2.702   1.274   7.016
   184G12c O00I 3183   2.688   1.310   7.145
   184G12c C02Q 3184   2.636   1.438   7.178
   184G12c H01N 3185   2.650   1.457   7.284
   184G12c H01R 3186   2.528   1.446   7.165
   184G12c H01Q 3187   2.679   1.520   7.120
   184G12c C02A 3188   2.641   1.346   6.913
   184G12c H011 3189   2.579   1.433   6.929
   184G12c C00C 3190   2.322   1.539   6.354
   184G12c H012 3191   2.296   1.630   6.406
   184G12c C00B 3192   2.318   1.534   6.214
   184G12c C00A 3193   2.263   1.628   6.124
   184G12c C009 3194   2.154   1.719   6.154
   184G12c C008 3195   2.083   1.762   6.266
   184G12c H013 3196   2.128   1.763   6.364
   184G12c C007 3197   1.953   1.821   6.238
   184G12c H014 3198   1.887   1.860   6.314
   184G12c C006 3199   1.897   1.826   6.111
   184G12c C005 3200   1.970   1.775   6.005
   184G12c C004 3201   1.915   1.761   5.878
   184G12c C003 3202   1.982   1.680   5.780
   184G12c C002 3203   1.918   1.658   5.656
   184G12c C001 3204   1.960   1.585   5.537
   184G12c C00M 3205   2.031   1.459   5.535
   184G12c C00L 3206   2.146   1.433   5.610
   184G12c C00R 3207   2.204   1.302   5.647
   184G12c C00Q 3208   2.171   1.167   5.607
   184G12c C00V 3209   2.254   1.070   5.671
   184G12c C00U 3210   2.325   1.093   5.789
   184G12c C00T 3211   2.334   1.219   5.839
   184G12c C016 3212   2.371   1.257   5.970
   184G12c C015 3213   2.425   1.159   6.049
   184G12c C010 3214   2.442   1.032   5.991
   184G12c C011 3215   2.515   0.939   6.069
   184G12c H005 3216   2.538   0.842   6.027
   184G12c C012 3217   2.573   0.972   6.193
   184G12c C017 3218   2.656   0.886   6.267
   184G12c O002 3219   2.784   0.870   6.226
   184G12c H004 3220   2.831   0.840   6.302
   184G12c C018 3221   2.606   0.836   6.379
   184G12c O001 3222   2.472   0.855   6.408
   184G12c H003 3223   2.424   0.883   6.331
   184G12c C019 3224   2.689   0.765   6.489
   184G12c H002 3225   2.648   0.820   6.574
   184G12c H001 3226   2.647   0.665   6.502
   184G12c O000 3227   2.826   0.776   6.463
   184G12c C01A 3228   2.910   0.740   6.574
   184G12c C02K 3229   3.039   0.692   6.537
   184G12c O00G 3230   3.077   0.697   6.402
   184G12c C02M 3231   3.205   0.654   6.374
   184G12c H01G 3232   3.221   0.681   6.270
   184G12c H01F 3233   3.235   0.549   6.376
   184G12c H01E 3234   3.283   0.715   6.419
   184G12c C02J 3235   3.119   0.639   6.640
   184G12c H01H 3236   3.219   0.605   6.619
   184G12c C02I 3237   3.078   0.630   6.777
   184G12c C02N 3238   3.176   0.584   6.876
   184G12c H01M 3239   3.253   0.511   6.854
   184G12c C02O 3240   3.168   0.623   7.006
   184G12c H01L 3241   3.089   0.684   7.046
   184G12c C02P 3242   3.263   0.567   7.114
   184G12c H01K 3243   3.200   0.500   7.173
   184G12c H01J 3244   3.345   0.507   7.074
   184G12c O00H 3245   3.314   0.676   7.195
   184G12c H01I 3246   3.250   0.744   7.184
   184G12c C02H 3247   2.952   0.673   6.808
   184G12c H01C 3248   2.914   0.683   6.908
   184G12c C02L 3249   2.866   0.730   6.713
   184G12c H01D 3250   2.770   0.761   6.752
   184G12c C013 3251   2.550   1.103   6.246
   184G12c H000 3252   2.606   1.126   6.336
   184G12c C014 3253   2.462   1.190   6.181
   184G12c C00F 3254   2.419   1.312   6.235
   184G12c C00H 3255   2.352   1.388   6.016
   184G12c C00I 3256   2.303   1.486   5.931
   184G12c C00J 3257   2.274   1.446   5.803
   184G12c C00Z 3258   2.386   0.996   5.870
   184G12c C00Y 3259   2.381   0.861   5.817
   184G12c H006 3260   2.424   0.775   5.866
   184G12c C00X 3261   2.318   0.833   5.697
   184G12c O003 3262   2.308   0.708   5.645
   184G12c C01B 3263   2.432   0.656   5.600
   184G12c H009 3264   2.496   0.626   5.683
   184G12c H008 3265   2.493   0.727   5.544
   184G12c H007 3266   2.422   0.561   5.548
   184G12c C00W 3267   2.246   0.936   5.628
   184G12c O004 3268   2.168   0.899   5.522
   184G12c C01C 3269   2.066   0.982   5.487
   184G12c H00A 3270   2.001   0.937   5.413
   184G12c C00P 3271   2.065   1.122   5.525
   184G12c C00O 3272   1.955   1.206   5.483
   184G12c C01D 3273   1.841   1.143   5.421
   184G12c H00S 3274   1.841   1.036   5.404
   184G12c C01E 3275   1.718   1.212   5.410
   184G12c O008 3276   1.612   1.123   5.400
   184G12c C01V 3277   1.504   1.154   5.314
   184G12c C01Z 3278   1.375   1.085   5.360
   184G12c H00R 3279   1.352   1.033   5.268
   184G12c H00Q 3280   1.403   1.021   5.443
   184G12c O009 3281   1.286   1.182   5.395
   184G12c H00P 3282   1.267   1.171   5.487
   184G12c C01W 3283   1.517   1.220   5.196
   184G12c H00O 3284   1.602   1.279   5.165
   184G12c C01X 3285   1.411   1.221   5.090
   184G12c H00N 3286   1.314   1.235   5.137
   184G12c H00M 3287   1.423   1.307   5.024
   184G12c C01Y 3288   1.422   1.099   5.004
   184G12c C02D 3289   1.542   1.029   4.973
   184G12c H019 3290   1.638   1.064   5.008
   184G12c C02C 3291   1.536   0.907   4.894
   184G12c H01A 3292   1.627   0.854   4.870
   184G12c C02B 3293   1.413   0.853   4.859
   184G12c O00E 3294   1.415   0.731   4.800
   184G12c H01B 3295   1.331   0.691   4.782
   184G12c C02F 3296   1.292   0.916   4.895
   184G12c O00F 3297   1.173   0.854   4.859
   184G12c C02G 3298   1.046   0.908   4.881
   184G12c H017 3299   0.979   0.861   4.809
   184G12c H016 3300   1.031   1.016   4.882
   184G12c H015 3301   1.011   0.860   4.972
   184G12c C02E 3302   1.300   1.040   4.961
   184G12c H018 3303   1.211   1.095   4.986
   184G12c C01F 3304   1.711   1.353   5.430
   184G12c C01G 3305   1.592   1.421   5.458
   184G12c H00L 3306   1.493   1.378   5.466
   184G12c C01H 3307   1.598   1.555   5.515
   184G12c H00B 3308   1.508   1.601   5.553
   184G12c C01I 3309   1.727   1.614   5.537
   184G12c C01U 3310   1.833   1.420   5.441
   184G12c C00S 3311   2.287   1.319   5.757
   184G12c C00K 3312   2.180   1.519   5.727
   184G12c C00N 3313   1.947   1.350   5.484
   184G12c C000 3314   1.837   1.557   5.470
   184G12c C01J 3315   1.782   1.695   5.641
   184G12c C01K 3316   1.708   1.777   5.734
   184G12c C01P 3317   1.581   1.846   5.721
   184G12c C01Q 3318   1.507   1.840   5.600
   184G12c H00G 3319   1.563   1.838   5.508
   184G12c C01R 3320   1.373   1.853   5.602
   184G12c H00F 3321   1.319   1.855   5.696
   184G12c C01S 3322   1.284   1.859   5.482
   184G12c H00E 3323   1.344   1.833   5.395
   184G12c H00D 3324   1.195   1.797   5.488
   184G12c O005 3325   1.243   1.992   5.485
   184G12c H00C 3326   1.316   2.049   5.506
   184G12c C01O 3327   1.533   1.929   5.823
   184G12c H00H 3328   1.438   1.978   5.808
   184G12c C01N 3329   1.601   1.942   5.946
   184G12c O006 3330   1.557   2.011   6.056
   184G12c C01T 3331   1.443   2.094   6.045
   184G12c H00K 3332   1.460   2.183   5.985
   184G12c H00J 3333   1.407   2.128   6.142
   184G12c H00I 3334   1.364   2.038   5.993
   184G12c C01M 3335   1.722   1.869   5.958
   184G12c C020 3336   2.120   1.632   5.796
   184G12c C021 3337   2.174   1.683   5.914
   184G12c C01L 3338   1.783   1.801   5.854
   184G12c O007 3339   1.768   1.871   6.089
   184G12c C022 3340   2.102   1.738   6.021
   184G12c C023 3341   2.271   1.610   5.984
   184G12c C00G 3342   2.368   1.415   6.154
   184G12c C00E 3343   2.428   1.321   6.380
   184G12c O00A 3344   2.449   1.213   6.459
   184G12c C024 3345   2.334   1.140   6.501
   184G12c H00V 3346   2.292   1.089   6.414
   184G12c H00U 3347   2.259   1.208   6.543
   184G12c H00T 3348   2.365   1.078   6.585
   194G12c C00D 3349   2.912   5.866   5.089
   194G12c O00B 3350   2.962   5.776   5.005
   194G12c C025 3351   2.942   5.791   4.870
   194G12c C026 3352   2.794   5.768   4.823
   194G12c H00Y 3353   2.784   5.779   4.715
   194G12c H00X 3354   2.729   5.844   4.867
   194G12c O00C 3355   2.751   5.638   4.852
   194G12c H00W 3356   2.794   5.608   4.931
   194G12c C027 3357   3.046   5.818   4.793
   194G12c O00D 3358   3.170   5.811   4.849
   194G12c H00Z 3359   3.150   5.761   4.927
   194G12c C028 3360   3.033   5.856   4.653
   194G12c C029 3361   2.952   5.959   4.605
   194G12c H010 3362   2.891   6.010   4.678
   194G12c C02T 3363   2.955   5.990   4.469
   194G12c H01O 3364   2.895   6.068   4.424
   194G12c C02S 3365   3.043   5.927   4.382
   194G12c O00J 3366   3.047   5.954   4.256
   194G12c H01P 3367   3.127   5.922   4.218
   194G12c C02R 3368   3.132   5.836   4.428
   194G12c O00I 3369   3.214   5.779   4.336
   194G12c C02Q 3370   3.289   5.665   4.372
   194G12c H01N 3371   3.347   5.645   4.282
   194G12c H01R 3372   3.226   5.583   4.406
   194G12c H01Q 3373   3.360   5.689   4.450
   194G12c C02A 3374   3.130   5.793   4.562
   194G12c H011 3375   3.197   5.721   4.606
   194G12c C00C 3376   2.864   5.988   5.048
   194G12c H012 3377   2.866   6.017   4.944
   194G12c C00B 3378   2.798   6.073   5.142
   194G12c C00A 3379   2.721   6.195   5.114
   194G12c C009 3380   2.716   6.285   4.997
   194G12c C008 3381   2.787   6.299   4.877
   194G12c H013 3382   2.847   6.216   4.843
   194G12c C007 3383   2.785   6.432   4.819
   194G12c H014 3384   2.838   6.429   4.725
   194G12c C006 3385   2.738   0.029   4.884
   194G12c C005 3386   2.671   0.006   5.002
   194G12c C004 3387   2.623   0.108   5.086
   194G12c C003 3388   2.574   0.081   5.217
   194G12c C002 3389   2.560   0.197   5.302
   194G12c C001 3390   2.509   0.207   5.440
   194G12c C00M 3391   2.571   0.127   5.546
   194G12c C00L 3392   2.566   6.506   5.549
   194G12c C00R 3393   2.647   6.425   5.637
   194G12c C00Q 3394   2.732   6.455   5.747
   194G12c C00V 3395   2.800   6.345   5.795
   194G12c C00U 3396   2.812   6.221   5.729
   194G12c C00T 3397   2.745   6.203   5.606
   194G12c C016 3398   2.777   6.106   5.512
   194G12c C015 3399   2.868   6.004   5.557
   194G12c C010 3400   2.919   6.012   5.686
   194G12c C011 3401   2.991   5.900   5.731
   194G12c H005 3402   3.022   5.889   5.834
   194G12c C012 3403   3.039   5.804   5.641
   194G12c C017 3404   3.124   5.698   5.694
   194G12c O002 3405   3.077   5.569   5.665
   194G12c H004 3406   3.136   5.515   5.716
   194G12c C018 3407   3.230   5.717   5.776
   194G12c O001 3408   3.276   5.849   5.795
   194G12c H003 3409   3.255   5.893   5.714
   194G12c C019 3410   3.319   5.612   5.838
   194G12c H002 3411   3.421   5.649   5.835
   194G12c H001 3412   3.299   5.601   5.945
   194G12c O000 3413   3.302   5.488   5.763
   194G12c C01A 3414   3.402   5.400   5.778
   194G12c C02K 3415   3.458   5.352   5.897
   194G12c O00G 3416   3.412   5.405   6.015
   194G12c C02M 3417   3.511   5.415   6.124
   194G12c H01G 3418   3.512   5.313   6.162
   194G12c H01F 3419   3.473   5.487   6.197
   194G12c H01E 3420   3.609   5.437   6.082
   194G12c C02J 3421   3.565   5.260   5.889
   194G12c H01H 3422   3.621   5.236   5.978
   194G12c C02I 3423   3.603   5.196   5.771
   194G12c C02N 3424   3.708   5.098   5.768
   194G12c H01M 3425   3.765   5.088   5.677
   194G12c C02O 3426   3.728   5.007   5.864
   194G12c H01L 3427   3.668   5.006   5.954
   194G12c C02P 3428   3.843   4.910   5.868
   194G12c H01K 3429   3.801   4.810   5.877
   194G12c H01J 3430   3.883   4.918   5.767
   194G12c O00H 3431   3.934   4.948   5.970
   194G12c H01I 3432   4.005   4.886   5.966
   194G12c C02H 3433   3.542   5.238   5.649
   194G12c H01C 3434   3.584   5.197   5.559
   194G12c C02L 3435   3.446   5.345   5.653
   194G12c H01D 3436   3.411   5.384   5.559
   194G12c C013 3437   2.997   5.810   5.507
   194G12c H000 3438   3.038   5.734   5.442
   194G12c C014 3439   2.908   5.909   5.460
   194G12c C00F 3440   2.877   5.929   5.324
   194G12c C00H 3441   2.744   6.121   5.379
   194G12c C00I 3442   2.652   6.221   5.345
   194G12c C00J 3443   2.603   6.303   5.445
   194G12c C00Z 3444   2.898   6.121   5.766
   194G12c C00Y 3445   2.967   6.134   5.893
   194G12c H006 3446   3.045   6.070   5.931
   194G12c C00X 3447   2.952   6.251   5.970
   194G12c O003 3448   3.046   6.257   6.069
   194G12c C01B 3449   3.054   6.370   6.156
   194G12c H009 3450   2.960   6.379   6.210
   194G12c H008 3451   3.078   6.454   6.090
   194G12c H007 3452   3.135   6.364   6.229
   194G12c C00W 3453   2.868   6.357   5.921
   194G12c O004 3454   2.875   6.476   5.987
   194G12c C01C 3455   2.877   0.062   5.905
   194G12c H00A 3456   2.960   0.131   5.908
   194G12c C00P 3457   2.773   0.063   5.802
   194G12c C00O 3458   2.738   0.191   5.751
   194G12c C01D 3459   2.786   0.311   5.814
   194G12c H00S 3460   2.837   0.314   5.910
   194G12c C01E 3461   2.783   0.436   5.747
   194G12c O008 3462   2.825   0.556   5.799
   194G12c C01V 3463   2.842   0.563   5.931
   194G12c C01Z 3464   2.718   0.618   6.000
   194G12c H00R 3465   2.729   0.640   6.106
   194G12c H00Q 3466   2.697   0.718   5.961
   194G12c O009 3467   2.602   0.537   5.974
   194G12c H00P 3468   2.614   0.447   6.001
   194G12c C01W 3469   2.956   0.524   5.990
   194G12c H00O 3470   3.034   0.482   5.928
   194G12c C01X 3471   2.998   0.546   6.128
   194G12c H00N 3472   3.098   0.588   6.120
   194G12c H00M 3473   2.929   0.611   6.182
   194G12c C01Y 3474   3.007   0.409   6.202
   194G12c C02D 3475   3.085   0.307   6.148
   194G12c H019 3476   3.135   0.315   6.053
   194G12c C02C 3477   3.112   0.189   6.220
   194G12c H01A 3478   3.166   0.113   6.165
   194G12c C02B 3479   3.061   0.169   6.348
   194G12c O00E 3480   3.079   0.052   6.412
   194G12c H01B 3481   3.027   0.068   6.490
   194G12c C02F 3482   2.988   0.273   6.410
   194G12c O00F 3483   2.955   0.255   6.544
   194G12c C02G 3484   2.841   0.332   6.592
   194G12c H017 3485   2.820   0.315   6.698
   194G12c H016 3486   2.753   0.290   6.545
   194G12c H015 3487   2.873   0.434   6.571
   194G12c C02E 3488   2.963   0.398   6.337
   194G12c H018 3489   2.911   0.482   6.380
   194G12c C01F 3490   2.717   0.446   5.621
   194G12c C01G 3491   2.734   0.551   5.530
   194G12c H00L 3492   2.806   0.631   5.540
   194G12c C01H 3493   2.687   0.530   5.399
   194G12c H00B 3494   2.718   0.589   5.314
   194G12c C01I 3495   2.608   0.413   5.363
   194G12c C01U 3496   2.628   0.342   5.587
   194G12c C00S 3497   2.644   6.298   5.577
   194G12c C00K 3498   2.570   6.439   5.417
   194G12c C00N 3499   2.652   0.207   5.639
   194G12c C000 3500   2.546   0.342   5.473
   194G12c C01J 3501   2.597   0.329   5.250
   194G12c C01K 3502   2.639   0.360   5.120
   194G12c C01P 3503   2.641   0.488   5.050
   194G12c C01Q 3504   2.580   0.600   5.112
   194G12c H00G 3505   2.499   0.584   5.181
   194G12c C01R 3506   2.606   0.725   5.077
   194G12c H00F 3507   2.683   0.751   5.006
   194G12c C01S 3508   2.533   0.848   5.135
   194G12c H00E 3509   2.488   0.910   5.057
   194G12c H00D 3510   2.457   0.825   5.210
   194G12c O005 3511   2.626   0.928   5.200
   194G12c H00C 3512   2.617   1.009   5.152
   194G12c C01O 3513   2.678   0.493   4.916
   194G12c H00H 3514   2.672   0.586   4.862
   194G12c C01N 3515   2.705   0.381   4.843
   194G12c O006 3516   2.740   0.394   4.712
   194G12c C01T 3517   2.636   0.348   4.623
   194G12c H00K 3518   2.655   0.378   4.520
   194G12c H00J 3519   2.537   0.384   4.650
   194G12c H00I 3520   2.623   0.240   4.633
   194G12c C01M 3521   2.697   0.259   4.908
   194G12c C020 3522   2.572   6.471   5.273
   194G12c C021 3523   2.588   6.374   5.171
   194G12c C01L 3524   2.648   0.244   5.041
   194G12c O007 3525   2.740   0.153   4.830
   194G12c C022 3526   2.648   6.397   5.053
   194G12c C023 3527   2.634   6.242   5.207
   194G12c C00G 3528   2.804   6.040   5.278
   194G12c C00E 3529   2.904   5.831   5.225
   194G12c O00A 3530   2.934   5.702   5.261
   194G12c C024 3531   2.819   5.621   5.262
   194G12c H00V 3532   2.841   5.515   5.269
   194G12c H00U 3533   2.762   5.647   5.173
   194G12c H00T 3534   2.755   5.654   5.344
   204G12c C00D 3535   1.086   0.797   4.200
   204G12c O00B 3536   1.061   0.901   4.287
   204G12c C025 3537   0.950   0.977   4.262
   204G12c C026 3538   0.982   1.113   4.214
   204G12c H00Y 3539   1.089   1.129   4.218
   204G12c H00X 3540   0.944   1.182   4.290
   204G12c O00C 3541   0.943   1.131   4.085
   204G12c H00W 3542   0.867   1.081   4.060
   204G12c C027 3543   0.826   0.929   4.287
   204G12c O00D 3544   0.811   0.797   4.324
   204G12c H00Z 3545   0.899   0.764   4.323
   204G12c C028 3546   0.708   1.003   4.260
   204G12c C029 3547   0.682   1.118   4.326
   204G12c H010 3548   0.761   1.149   4.393
   204G12c C02T 3549   0.563   1.192   4.309
   204G12c H01O 3550   0.551   1.280   4.370
   204G12c C02S 3551   0.467   1.146   4.220
   204G12c O00J 3552   0.340   1.204   4.206
   204G12c H01P 3553   0.308   1.141   4.143
   204G12c C02R 3554   0.491   1.024   4.149
   204G12c O00I 3555   0.392   0.989   4.064
   204G12c C02Q 3556   0.399   0.867   3.994
   204G12c H01N 3557   0.343   0.783   4.037
   204G12c H01R 3558   0.493   0.828   3.956
   204G12c H01Q 3559   0.348   0.886   3.899
   204G12c C02A 3560   0.607   0.952   4.177
   204G12c H011 3561   0.620   0.858   4.125
   204G12c C00C 3562   1.113   0.824   4.067
   204G12c H012 3563   1.109   0.926   4.031
   204G12c C00B 3564   1.167   0.725   3.979
   204G12c C00A 3565   1.209   0.739   3.843
   204G12c C009 3566   1.146   0.824   3.745
   204G12c C008 3567   1.044   0.921   3.747
   204G12c H013 3568   1.016   0.972   3.838
   204G12c C007 3569   0.974   0.944   3.627
   204G12c H014 3570   0.905   1.026   3.624
   204G12c C006 3571   0.987   0.866   3.512
   204G12c C005 3572   1.090   0.767   3.517
   204G12c C004 3573   1.117   0.680   3.408
   204G12c C003 3574   1.208   0.571   3.428
   204G12c C002 3575   1.213   0.476   3.320
   204G12c C001 3576   1.275   0.345   3.311
   204G12c C00M 3577   1.257   0.249   3.422
   204G12c C00L 3578   1.302   0.274   3.551
   204G12c C00R 3579   1.270   0.189   3.664
   204G12c C00Q 3580   1.215   0.057   3.677
   204G12c C00V 3581   1.179   0.022   3.807
   204G12c C00U 3582   1.180   0.111   3.916
   204G12c C00T 3583   1.227   0.238   3.896
   204G12c C016 3584   1.210   0.345   3.983
   204G12c C015 3585   1.152   0.319   4.106
   204G12c C010 3586   1.120   0.185   4.132
   204G12c C011 3587   1.055   0.153   4.260
   204G12c H005 3588   1.045   0.049   4.288
   204G12c C012 3589   1.015   0.254   4.352
   204G12c C017 3590   0.950   0.221   4.476
   204G12c O002 3591   0.969   0.308   4.584
   204G12c H004 3592   0.888   0.301   4.633
   204G12c C018 3593   0.857   0.126   4.492
   204G12c O001 3594   0.812   0.048   4.391
   204G12c H003 3595   0.801   0.100   4.313
   204G12c C019 3596   0.776   0.099   4.619
   204G12c H002 3597   0.759   6.513   4.631
   204G12c H001 3598   0.836   0.119   4.708
   204G12c O000 3599   0.655   0.176   4.616
   204G12c C01A 3600   0.678   0.314   4.642
   204G12c C02K 3601   0.674   0.411   4.535
   204G12c O00G 3602   0.664   0.371   4.405
   204G12c C02M 3603   0.695   0.461   4.300
   204G12c H01G 3604   0.699   0.405   4.207
   204G12c H01F 3605   0.792   0.510   4.305
   204G12c H01E 3606   0.619   0.538   4.283
   204G12c C02J 3607   0.702   0.546   4.567
   204G12c H01H 3608   0.709   0.623   4.492
   204G12c C02I 3609   0.719   0.591   4.700
   204G12c C02N 3610   0.734   0.728   4.741
   204G12c H01M 3611   0.754   0.764   4.841
   204G12c C02O 3612   0.705   0.838   4.660
   204G12c H01L 3613   0.676   0.829   4.556
   204G12c C02P 3614   0.720   0.976   4.713
   204G12c H01K 3615   0.624   1.027   4.711
   204G12c H01J 3616   0.752   0.984   4.817
   204G12c O00H 3617   0.808   1.039   4.624
   204G12c H01I 3618   0.808   1.009   4.535
   204G12c C02H 3619   0.707   0.496   4.802
   204G12c H01C 3620   0.715   0.520   4.907
   204G12c C02L 3621   0.702   0.360   4.768
   204G12c H01D 3622   0.721   0.287   4.845
   204G12c C013 3623   1.045   0.386   4.313
   204G12c H000 3624   1.007   0.448   4.393
   204G12c C014 3625   1.117   0.421   4.194
   204G12c C00F 3626   1.137   0.559   4.157
   204G12c C00H 3627   1.236   0.480   3.951
   204G12c C00I 3628   1.279   0.504   3.821
   204G12c C00J 3629   1.310   0.396   3.737
   204G12c C00Z 3630   1.122   0.082   4.037
   204G12c C00Y 3631   1.071   6.473   4.059
   204G12c H006 3632   1.033   6.450   4.157
   204G12c C00X 3633   1.081   6.372   3.958
   204G12c O003 3634   1.020   6.247   3.969
   204G12c C01B 3635   0.946   6.211   4.082
   204G12c H009 3636   0.897   6.114   4.081
   204G12c H008 3637   0.868   6.283   4.108
   204G12c H007 3638   1.015   6.213   4.166
   204G12c C00W 3639   1.125   6.412   3.831
   204G12c O004 3640   1.106   6.323   3.731
   204G12c C01C 3641   1.149   6.350   3.605
   204G12c H00A 3642   1.165   6.269   3.536
   204G12c C00P 3643   1.170   6.489   3.574
   204G12c C00O 3644   1.132   0.013   3.439
   204G12c C01D 3645   1.033   6.459   3.368
   204G12c H00S 3646   0.994   6.368   3.412
   204G12c C01E 3647   0.978   6.504   3.245
   204G12c O008 3648   0.879   6.439   3.173
   204G12c C01V 3649   0.778   6.378   3.242
   204G12c C01Z 3650   0.737   6.243   3.190
   204G12c H00R 3651   0.632   6.225   3.213
   204G12c H00Q 3652   0.744   6.234   3.082
   204G12c O009 3653   0.831   6.143   3.233
   204G12c H00P 3654   0.888   6.177   3.300
   204G12c C01W 3655   0.728   6.448   3.347
   204G12c H00O 3656   0.759   0.030   3.350
   204G12c C01X 3657   0.614   6.415   3.438
   204G12c H00N 3658   0.541   6.495   3.423
   204G12c H00M 3659   0.574   6.319   3.403
   204G12c C01Y 3660   0.644   6.426   3.587
   204G12c C02D 3661   0.766   6.477   3.631
   204G12c H019 3662   0.845   6.500   3.562
   204G12c C02C 3663   0.790   6.487   3.768
   204G12c H01A 3664   0.883   0.010   3.801
   204G12c C02B 3665   0.695   6.441   3.864
   204G12c O00E 3666   0.718   6.461   3.996
   204G12c H01B 3667   0.646   6.417   4.039
   204G12c C02F 3668   0.572   6.388   3.821
   204G12c O00F 3669   0.489   6.348   3.923
   204G12c C02G 3670   0.362   6.291   3.896
   204G12c H017 3671   0.375   6.194   3.849
   204G12c H016 3672   0.302   6.350   3.826
   204G12c H015 3673   0.301   6.284   3.986
   204G12c C02E 3674   0.543   6.380   3.683
   204G12c H018 3675   0.451   6.341   3.642
   204G12c C01F 3676   1.029   0.100   3.197
   204G12c C01G 3677   0.960   0.178   3.099
   204G12c H00L 3678   0.874   0.141   3.045
   204G12c C01H 3679   0.994   0.317   3.081
   204G12c H00B 3680   0.924   0.383   3.032
   204G12c C01I 3681   1.108   0.365   3.147
   204G12c C01U 3682   1.149   0.158   3.245
   204G12c C00S 3683   1.297   0.269   3.779
   204G12c C00K 3684   1.314   0.411   3.597
   204G12c C00N 3685   1.185   0.132   3.376
   204G12c C000 3686   1.207   0.279   3.205
   204G12c C01J 3687   1.129   0.493   3.205
   204G12c C01K 3688   1.054   0.612   3.177
   204G12c C01P 3689   0.997   0.660   3.052
   204G12c C01Q 3690   1.029   0.606   2.926
   204G12c H00G 3691   0.950   0.573   2.860
   204G12c C01R 3692   1.156   0.573   2.894
   204G12c H00F 3693   1.234   0.608   2.961
   204G12c C01S 3694   1.212   0.490   2.780
   204G12c H00E 3695   1.312   0.523   2.752
   204G12c H00D 3696   1.217   0.389   2.823
   204G12c O005 3697   1.122   0.471   2.675
   204G12c H00C 3698   1.059   0.412   2.714
   204G12c C01O 3699   0.907   0.766   3.050
   204G12c H00H 3700   0.851   0.802   2.965
   204G12c C01N 3701   0.886   0.834   3.168
   204G12c O006 3702   0.794   0.938   3.162
   204G12c C01T 3703   0.658   0.896   3.193
   204G12c H00K 3704   0.625   0.823   3.118
   204G12c H00J 3705   0.585   0.977   3.185
   204G12c H00I 3706   0.654   0.851   3.292
   204G12c C01M 3707   0.947   0.801   3.289
   204G12c C020 3708   1.280   0.545   3.550
   204G12c C021 3709   1.278   0.660   3.639
   204G12c C01L 3710   1.041   0.689   3.291
   204G12c O007 3711   0.915   0.881   3.394
   204G12c C022 3712   1.186   0.762   3.619
   204G12c C023 3713   1.284   0.640   3.781
   204G12c C00G 3714   1.189   0.591   4.029
   204G12c C00E 3715   1.099   0.661   4.245
   204G12c O00A 3716   1.066   0.656   4.379
   204G12c C024 3717   1.168   0.699   4.469
   204G12c H00V 3718   1.219   0.785   4.425
   204G12c H00U 3719   1.242   0.621   4.484
   204G12c H00T 3720   1.136   0.734   4.568
   214G12c C00D 3721   2.013   3.820   4.834
   214G12c O00B 3722   2.135   3.839   4.893
   214G12c C025 3723   2.181   3.968   4.917
   214G12c C026 3724   2.193   3.996   5.070
   214G12c H00Y 3725   2.254   4.081   5.101
   214G12c H00X 3726   2.256   3.918   5.111
   214G12c O00C 3727   2.074   3.997   5.141
   214G12c H00W 3728   2.047   3.907   5.150
   214G12c C027 3729   2.225   4.051   4.820
   214G12c O00D 3730   2.240   3.995   4.695
   214G12c H00Z 3731   2.222   3.903   4.703
   214G12c C028 3732   2.268   4.182   4.840
   214G12c C029 3733   2.184   4.268   4.913
   214G12c H010 3734   2.099   4.228   4.968
   214G12c C02T 3735   2.206   4.403   4.913
   214G12c H01O 3736   2.134   4.464   4.967
   214G12c C02S 3737   2.319   4.456   4.847
   214G12c O00J 3738   2.331   4.590   4.851
   214G12c H01P 3739   2.420   4.601   4.822
   214G12c C02R 3740   2.402   4.372   4.768
   214G12c O00I 3741   2.507   4.444   4.705
   214G12c C02Q 3742   2.583   4.376   4.606
   214G12c H01N 3743   2.666   4.433   4.566
   214G12c H01R 3744   2.514   4.352   4.525
   214G12c H01Q 3745   2.630   4.280   4.631
   214G12c C02A 3746   2.384   4.231   4.773
   214G12c H011 3747   2.447   4.159   4.722
   214G12c C00C 3748   1.900   3.864   4.900
   214G12c H012 3749   1.909   3.916   4.995
   214G12c C00B 3750   1.769   3.835   4.856
   214G12c C00A 3751   1.648   3.880   4.923
   214G12c C009 3752   1.618   3.899   5.063
   214G12c C008 3753   1.689   3.907   5.181
   214G12c H013 3754   1.797   3.914   5.184
   214G12c C007 3755   1.624   3.877   5.304
   214G12c H014 3756   1.677   3.864   5.396
   214G12c C006 3757   1.486   3.840   5.305
   214G12c C005 3758   1.422   3.843   5.184
   214G12c C004 3759   1.292   3.777   5.174
   214G12c C003 3760   1.242   3.753   5.044
   214G12c C002 3761   1.122   3.675   5.045
   214G12c C001 3762   1.031   3.637   4.941
   214G12c C00M 3763   1.067   3.578   4.813
   214G12c C00L 3764   1.185   3.617   4.751
   214G12c C00R 3765   1.264   3.534   4.659
   214G12c C00Q 3766   1.245   3.404   4.598
   214G12c C00V 3767   1.351   3.373   4.506
   214G12c C00U 3768   1.476   3.442   4.507
   214G12c C00T 3769   1.498   3.562   4.571
   214G12c C016 3770   1.614   3.627   4.596
   214G12c C015 3771   1.728   3.576   4.528
   214G12c C010 3772   1.707   3.467   4.438
   214G12c C011 3773   1.819   3.424   4.360
   214G12c H005 3774   1.814   3.338   4.294
   214G12c C012 3775   1.951   3.488   4.378
   214G12c C017 3776   2.066   3.462   4.298
   214G12c O002 3777   2.178   3.432   4.360
   214G12c H004 3778   2.161   3.432   4.453
   214G12c C018 3779   2.060   3.454   4.163
   214G12c O001 3780   1.947   3.475   4.087
   214G12c H003 3781   1.979   3.429   4.011
   214G12c C019 3782   2.173   3.424   4.066
   214G12c H002 3783   2.219   3.512   4.021
   214G12c H001 3784   2.260   3.383   4.118
   214G12c O000 3785   2.121   3.338   3.965
   214G12c C01A 3786   2.153   3.202   3.979
   214G12c C02K 3787   2.165   3.121   3.860
   214G12c O00G 3788   2.129   3.189   3.748
   214G12c C02M 3789   2.162   3.127   3.618
   214G12c H01G 3790   2.271   3.121   3.614
   214G12c H01F 3791   2.123   3.187   3.536
   214G12c H01E 3792   2.114   3.029   3.611
   214G12c C02J 3793   2.222   2.991   3.864
   214G12c H01H 3794   2.231   2.942   3.768
   214G12c C02I 3795   2.262   2.932   3.987
   214G12c C02N 3796   2.334   2.805   4.002
   214G12c H01M 3797   2.343   2.748   4.093
   214G12c C02O 3798   2.384   2.743   3.890
   214G12c H01L 3799   2.390   2.784   3.790
   214G12c C02P 3800   2.462   2.612   3.892
   214G12c H01K 3801   2.452   2.550   3.803
   214G12c H01J 3802   2.566   2.644   3.887
   214G12c O00H 3803   2.460   2.531   4.008
   214G12c H01I 3804   2.373   2.504   4.031
   214G12c C02H 3805   2.244   3.012   4.104
   214G12c H01C 3806   2.264   2.968   4.200
   214G12c C02L 3807   2.198   3.140   4.097
   214G12c H01D 3808   2.199   3.193   4.191
   214G12c C013 3809   1.957   3.587   4.479
   214G12c H000 3810   2.053   3.636   4.473
   214G12c C014 3811   1.850   3.630   4.554
   214G12c C00F 3812   1.869   3.713   4.668
   214G12c C00H 3813   1.621   3.724   4.694
   214G12c C00I 3814   1.506   3.772   4.752
   214G12c C00J 3815   1.385   3.722   4.710
   214G12c C00Z 3816   1.581   3.399   4.429
   214G12c C00Y 3817   1.565   3.288   4.344
   214G12c H006 3818   1.640   3.238   4.285
   214G12c C00X 3819   1.448   3.223   4.338
   214G12c O003 3820   1.449   3.120   4.248
   214G12c C01B 3821   1.322   3.080   4.191
   214G12c H009 3822   1.344   3.053   4.088
   214G12c H008 3823   1.238   3.149   4.183
   214G12c H007 3824   1.286   2.982   4.224
   214G12c C00W 3825   1.346   3.255   4.426
   214G12c O004 3826   1.244   3.167   4.436
   214G12c C01C 3827   1.137   3.197   4.520
   214G12c H00A 3828   1.042   3.152   4.492
   214G12c C00P 3829   1.136   3.312   4.609
   214G12c C00O 3830   1.033   3.331   4.714
   214G12c C01D 3831   0.966   3.207   4.751
   214G12c H00S 3832   0.981   3.116   4.695
   214G12c C01E 3833   0.896   3.193   4.872
   214G12c O008 3834   0.849   3.070   4.903
   214G12c C01V 3835   0.795   2.993   4.801
   214G12c C01Z 3836   0.807   2.845   4.828
   214G12c H00R 3837   0.858   2.829   4.923
   214G12c H00Q 3838   0.707   2.801   4.827
   214G12c O009 3839   0.888   2.791   4.723
   214G12c H00P 3840   0.912   2.705   4.754
   214G12c C01W 3841   0.715   3.043   4.702
   214G12c H00O 3842   0.689   3.148   4.705
   214G12c C01X 3843   0.641   2.979   4.588
   214G12c H00N 3844   0.646   2.870   4.596
   214G12c H00M 3845   0.541   3.020   4.577
   214G12c C01Y 3846   0.721   3.016   4.468
   214G12c C02D 3847   0.684   3.126   4.399
   214G12c H019 3848   0.597   3.184   4.424
   214G12c C02C 3849   0.761   3.167   4.289
   214G12c H01A 3850   0.733   3.260   4.241
   214G12c C02B 3851   0.872   3.099   4.252
   214G12c O00E 3852   0.955   3.137   4.151
   214G12c H01B 3853   1.010   3.065   4.125
   214G12c C02F 3854   0.913   2.987   4.325
   214G12c O00F 3855   1.023   2.915   4.284
   214G12c C02G 3856   1.087   2.827   4.381
   214G12c H017 3857   1.050   2.725   4.366
   214G12c H016 3858   1.085   2.851   4.487
   214G12c H015 3859   1.189   2.804   4.348
   214G12c C02E 3860   0.838   2.947   4.436
   214G12c H018 3861   0.851   2.850   4.482
   214G12c C01F 3862   0.894   3.305   4.957
   214G12c C01G 3863   0.876   3.300   5.104
   214G12c H00L 3864   0.849   3.208   5.154
   214G12c C01H 3865   0.911   3.410   5.190
   214G12c H00B 3866   0.914   3.399   5.298
   214G12c C01I 3867   0.957   3.531   5.137
   214G12c C01U 3868   0.928   3.433   4.911
   214G12c C00S 3869   1.382   3.611   4.631
   214G12c C00K 3870   1.276   3.718   4.798
   214G12c C00N 3871   1.006   3.446   4.794
   214G12c C000 3872   0.944   3.546   4.996
   214G12c C01J 3873   1.068   3.619   5.169
   214G12c C01K 3874   1.110   3.654   5.298
   214G12c C01P 3875   1.053   3.644   5.431
   214G12c C01Q 3876   0.911   3.596   5.452
   214G12c H00G 3877   0.881   3.522   5.525
   214G12c C01R 3878   0.815   3.651   5.372
   214G12c H00F 3879   0.836   3.729   5.301
   214G12c C01S 3880   0.674   3.605   5.374
   214G12c H00E 3881   0.640   3.599   5.271
   214G12c H00D 3882   0.659   3.508   5.422
   214G12c O005 3883   0.585   3.691   5.436
   214G12c H00C 3884   0.611   3.708   5.526
   214G12c C01O 3885   1.119   3.677   5.550
   214G12c H00H 3886   1.078   3.653   5.647
   214G12c C01N 3887   1.236   3.752   5.541
   214G12c O006 3888   1.315   3.797   5.644
   214G12c C01T 3889   1.245   3.835   5.764
   214G12c H00K 3890   1.313   3.867   5.843
   214G12c H00J 3891   1.191   3.752   5.808
   214G12c H00I 3892   1.169   3.907   5.732
   214G12c C01M 3893   1.294   3.765   5.416
   214G12c C020 3894   1.303   3.789   4.920
   214G12c C021 3895   1.417   3.873   4.941
   214G12c C01L 3896   1.232   3.730   5.293
   214G12c O007 3897   1.425   3.805   5.422
   214G12c C022 3898   1.480   3.881   5.063
   214G12c C023 3899   1.528   3.864   4.854
   214G12c C00G 3900   1.751   3.762   4.738
   214G12c C00E 3901   2.000   3.746   4.717
   214G12c O00A 3902   2.120   3.695   4.672
   214G12c C024 3903   2.157   3.573   4.726
   214G12c H00V 3904   2.196   3.572   4.828
   214G12c H00U 3905   2.243   3.540   4.668
   214G12c H00T 3906   2.077   3.500   4.718
   224G12c C00D 3907   5.908   1.644   4.729
   224G12c O00B 3908   5.803   1.557   4.729
   224G12c C025 3909   5.682   1.603   4.685
   224G12c C026 3910   5.669   1.593   4.532
   224G12c H00Y 3911   5.759   1.607   4.474
   224G12c H00X 3912   5.589   1.657   4.494
   224G12c O00C 3913   5.627   1.460   4.508
   224G12c H00W 3914   5.668   1.412   4.578
   224G12c C027 3915   5.584   1.639   4.772
   224G12c O00D 3916   5.600   1.650   4.908
   224G12c H00Z 3917   5.604   1.570   4.957
   224G12c C028 3918   5.458   1.678   4.716
   224G12c C029 3919   5.341   1.596   4.732
   224G12c H010 3920   5.351   1.494   4.767
   224G12c C02T 3921   5.214   1.648   4.696
   224G12c H01O 3922   5.133   1.580   4.714
   224G12c C02S 3923   5.203   1.777   4.643
   224G12c O00J 3924   5.077   1.831   4.619
   224G12c H01P 3925   5.085   1.925   4.631
   224G12c C02R 3926   5.315   1.858   4.631
   224G12c O00I 3927   5.290   1.986   4.590
   224G12c C02Q 3928   5.400   2.064   4.547
   224G12c H01N 3929   5.470   2.083   4.628
   224G12c H01R 3930   5.352   2.152   4.504
   224G12c H01Q 3931   5.459   2.020   4.466
   224G12c C02A 3932   5.442   1.806   4.658
   224G12c H011 3933   5.533   1.863   4.645
   224G12c C00C 3934   5.902   1.780   4.725
   224G12c H012 3935   5.804   1.825   4.733
   224G12c C00B 3936   6.022   1.858   4.733
   224G12c C00A 3937   6.035   2.004   4.725
   224G12c C009 3938   5.949   2.096   4.652
   224G12c C008 3939   5.841   2.078   4.561
   224G12c H013 3940   5.768   1.999   4.569
   224G12c C007 3941   5.825   2.168   4.459
   224G12c H014 3942   5.738   2.165   4.396
   224G12c C006 3943   5.915   2.273   4.443
   224G12c C005 3944   6.022   2.282   4.526
   224G12c C004 3945   6.126   2.375   4.516
   224G12c C003 3946   6.242   2.366   4.590
   224G12c C002 3947   6.350   2.450   4.549
   224G12c C001 3948   6.486   2.465   4.585
   224G12c C00M 3949   0.054   2.348   4.594
   224G12c C00L 3950   0.011   2.235   4.670
   224G12c C00R 3951   0.074   2.105   4.653
   224G12c C00Q 3952   0.194   2.061   4.586
   224G12c C00V 3953   0.207   1.917   4.597
   224G12c C00U 3954   0.103   1.828   4.635
   224G12c C00T 3955   6.508   1.878   4.686
   224G12c C016 3956   6.395   1.807   4.711
   224G12c C015 3957   6.401   1.673   4.701
   224G12c C010 3958   0.002   1.615   4.670
   224G12c C011 3959   0.020   1.473   4.684
   224G12c H005 3960   0.114   1.420   4.681
   224G12c C012 3961   6.433   1.390   4.708
   224G12c C017 3962   6.453   1.242   4.727
   224G12c O002 3963   0.036   1.178   4.653
   224G12c H004 3964   0.038   1.094   4.696
   224G12c C018 3965   6.387   1.176   4.826
   224G12c O001 3966   6.293   1.238   4.901
   224G12c H003 3967   6.294   1.216   4.993
   224G12c C019 3968   6.399   1.024   4.848
   224G12c H002 3969   6.379   1.005   4.953
   224G12c H001 3970   6.310   0.984   4.799
   224G12c O000 3971   0.001   0.967   4.808
   224G12c C01A 3972   0.025   0.848   4.875
   224G12c C02K 3973   0.061   0.849   5.009
   224G12c O00G 3974   0.067   0.971   5.067
   224G12c C02M 3975   0.065   0.991   5.213
   224G12c H01G 3976   6.492   0.955   5.254
   224G12c H01F 3977   0.064   1.098   5.228
   224G12c H01E 3978   0.147   0.941   5.266
   224G12c C02J 3979   0.080   0.722   5.077
   224G12c H01H 3980   0.097   0.716   5.183
   224G12c C02I 3981   0.067   0.600   5.003
   224G12c C02N 3982   0.069   0.466   5.062
   224G12c H01M 3983   0.026   0.385   5.006
   224G12c C02O 3984   0.130   0.451   5.179
   224G12c H01L 3985   0.191   0.531   5.218
   224G12c C02P 3986   0.123   0.320   5.256
   224G12c H01K 3987   0.158   0.339   5.358
   224G12c H01J 3988   0.019   0.289   5.261
   224G12c O00H 3989   0.217   0.226   5.207
   224G12c H01I 3990   0.271   0.277   5.147
   224G12c C02H 3991   0.031   0.607   4.868
   224G12c H01C 3992   0.029   0.517   4.809
   224G12c C02L 3993   0.020   0.728   4.800
   224G12c H01D 3994   0.007   0.729   4.693
   224G12c C013 3995   6.306   1.447   4.714
   224G12c H000 3996   6.230   1.373   4.729
   224G12c C014 3997   6.288   1.588   4.718
   224G12c C00F 3998   6.157   1.652   4.737
   224G12c C00H 3999   6.271   1.866   4.743
   224G12c C00I 4000   6.269   2.008   4.766
   224G12c C00J 4001   6.392   2.077   4.753
   224G12c C00Z 4002   0.109   1.690   4.623
   224G12c C00Y 4003   0.235   1.636   4.587
   224G12c H006 4004   0.244   1.528   4.590
   224G12c C00X 4005   0.345   1.725   4.553
   224G12c O003 4006   0.475   1.687   4.520
   224G12c C01B 4007   0.520   1.558   4.528
   224G12c H009 4008   0.625   1.561   4.499
   224G12c H008 4009   0.457   1.491   4.470
   224G12c H007 4010   0.508   1.518   4.629
   224G12c C00W 4011   0.328   1.862   4.553
   224G12c O004 4012   0.438   1.938   4.520
   224G12c C01C 4013   0.414   2.068   4.487
   224G12c H00A 4014   0.501   2.131   4.482
   224G12c C00P 4015   0.290   2.140   4.516
   224G12c C00O 4016   0.258   2.270   4.454
   224G12c C01D 4017   0.336   2.315   4.343
   224G12c H00S 4018   0.427   2.265   4.316
   224G12c C01E 4019   0.292   2.432   4.261
   224G12c O008 4020   0.353   2.473   4.146
   224G12c C01V 4021   0.448   2.393   4.093
   224G12c C01Z 4022   0.590   2.457   4.093
   224G12c H00R 4023   0.647   2.444   4.185
   224G12c H00Q 4024   0.665   2.428   4.019
   224G12c O009 4025   0.556   2.591   4.073
   224G12c H00P 4026   0.474   2.603   4.117
   224G12c C01W 4027   0.425   2.264   4.056
   224G12c H00O 4028   0.321   2.237   4.047
   224G12c C01X 4029   0.531   2.165   4.017
   224G12c H00N 4030   0.494   2.103   3.935
   224G12c H00M 4031   0.612   2.220   3.969
   224G12c C01Y 4032   0.574   2.075   4.139
   224G12c C02D 4033   0.671   2.127   4.234
   224G12c H019 4034   0.710   2.224   4.209
   224G12c C02C 4035   0.723   2.043   4.334
   224G12c H01A 4036   0.802   2.090   4.391
   224G12c C02B 4037   0.676   1.914   4.350
   224G12c O00E 4038   0.728   1.825   4.440
   224G12c H01B 4039   0.686   1.742   4.425
   224G12c C02F 4040   0.591   1.861   4.251
   224G12c O00F 4041   0.571   1.728   4.250
   224G12c C02G 4042   0.595   1.672   4.124
   224G12c H017 4043   0.585   1.564   4.134
   224G12c H016 4044   0.690   1.701   4.080
   224G12c H015 4045   0.523   1.699   4.046
   224G12c C02E 4046   0.529   1.939   4.152
   224G12c H018 4047   0.454   1.907   4.082
   224G12c C01F 4048   0.174   2.501   4.301
   224G12c C01G 4049   0.097   2.586   4.211
   224G12c H00L 4050   0.130   2.603   4.110
   224G12c C01H 4051   6.490   2.633   4.260
   224G12c H00B 4052   6.419   2.659   4.183
   224G12c C01I 4053   6.449   2.603   4.393
   224G12c C01U 4054   0.125   2.482   4.431
   224G12c C00S 4055   6.509   2.015   4.716
   224G12c C00K 4056   6.400   2.213   4.713
   224G12c C00N 4057   0.155   2.359   4.491
   224G12c C000 4058   0.019   2.553   4.490
   224G12c C01J 4059   6.321   2.556   4.450
   224G12c C01K 4060   6.192   2.577   4.386
   224G12c C01P 4061   6.151   2.688   4.307
   224G12c C01Q 4062   6.231   2.811   4.291
   224G12c H00G 4063   6.269   2.867   4.376
   224G12c C01R 4064   6.231   2.876   4.172
   224G12c H00F 4065   6.186   2.833   4.084
   224G12c C01S 4066   6.292   3.016   4.145
   224G12c H00E 4067   6.227   3.059   4.069
   224G12c H00D 4068   6.289   3.069   4.239
   224G12c O005 4069   6.416   3.010   4.085
   224G12c H00C 4070   6.482   2.976   4.144
   224G12c C01O 4071   6.031   2.682   4.237
   224G12c H00H 4072   6.002   2.765   4.174
   224G12c C01N 4073   5.958   2.565   4.239
   224G12c O006 4074   5.856   2.549   4.151
   224G12c C01T 4075   5.727   2.573   4.209
   224G12c H00K 4076   5.713   2.673   4.250
   224G12c H00J 4077   5.720   2.498   4.288
   224G12c H00I 4078   5.648   2.548   4.139
   224G12c C01M 4079   5.997   2.457   4.325
   224G12c C020 4080   6.267   2.263   4.684
   224G12c C021 4081   6.146   2.203   4.726
   224G12c C01L 4082   6.108   2.470   4.415
   224G12c O007 4083   5.913   2.355   4.333
   224G12c C022 4084   6.033   2.207   4.646
   224G12c C023 4085   6.147   2.072   4.772
   224G12c C00G 4086   6.149   1.793   4.741
   224G12c C00E 4087   6.034   1.579   4.729
   224G12c O00A 4088   6.025   1.440   4.716
   224G12c C024 4089   6.009   1.389   4.845
   224G12c H00V 4090   6.081   1.436   4.913
   224G12c H00U 4091   6.015   1.280   4.837
   224G12c H00T 4092   5.910   1.411   4.883
   234G12c C00D 4093   6.519   1.789   8.240
   234G12c O00B 4094   0.134   1.777   8.241
   234G12c C025 4095   0.182   1.748   8.368
   234G12c C026 4096   0.145   1.609   8.426
   234G12c H00Y 4097   0.045   1.607   8.471
   234G12c H00X 4098   0.216   1.587   8.506
   234G12c O00C 4099   0.156   1.513   8.321
   234G12c H00W 4100   0.166   1.567   8.243
   234G12c C027 4101   0.266   1.836   8.421
   234G12c O00D 4102   0.297   1.953   8.356
   234G12c H00Z 4103   0.273   1.940   8.265
   234G12c C028 4104   0.331   1.806   8.548
   234G12c C029 4105   0.470   1.788   8.565
   234G12c H010 4106   0.539   1.781   8.482
   234G12c C02T 4107   0.525   1.763   8.692
   234G12c H01O 4108   0.629   1.738   8.708
   234G12c C02S 4109   0.438   1.767   8.802
   234G12c O00J 4110   0.493   1.749   8.924
   234G12c H01P 4111   0.423   1.760   8.986
   234G12c C02R 4112   0.300   1.799   8.793
   234G12c O00I 4113   0.229   1.805   8.915
   234G12c C02Q 4114   0.107   1.880   8.905
   234G12c H01N 4115   0.121   1.977   8.858
   234G12c H01R 4116   0.066   1.901   9.004
   234G12c H01Q 4117   0.032   1.829   8.844
   234G12c C02A 4118   0.245   1.811   8.662
   234G12c H011 4119   0.139   1.827   8.650
   234G12c C00C 4120   6.458   1.905   8.293
   234G12c H012 4121   0.001   1.983   8.332
   234G12c C00B 4122   6.316   1.922   8.285
   234G12c C00A 4123   6.250   2.038   8.336
   234G12c C009 4124   6.294   2.127   8.439
   234G12c C008 4125   6.410   2.157   8.510
   234G12c H013 4126   6.504   2.156   8.457
   234G12c C007 4127   6.413   2.194   8.646
   234G12c H014 4128   6.506   2.209   8.697
   234G12c C006 4129   6.290   2.209   8.720
   234G12c C005 4130   6.174   2.190   8.641
   234G12c C004 4131   6.043   2.196   8.695
   234G12c C003 4132   5.928   2.157   8.615
   234G12c C002 4133   5.800   2.162   8.681
   234G12c C001 4134   5.668   2.121   8.647
   234G12c C00M 4135   5.630   2.006   8.562
   234G12c C00L 4136   5.704   1.971   8.447
   234G12c C00R 4137   5.700   1.840   8.391
   234G12c C00Q 4138   5.620   1.720   8.414
   234G12c C00V 4139   5.666   1.616   8.332
   234G12c C00U 4140   5.792   1.608   8.271
   234G12c C00T 4141   5.877   1.713   8.270
   234G12c C016 4142   6.013   1.709   8.231
   234G12c C015 4143   6.066   1.591   8.198
   234G12c C010 4144   5.977   1.484   8.182
   234G12c C011 4145   6.030   1.363   8.133
   234G12c H005 4146   5.970   1.275   8.114
   234G12c C012 4147   6.171   1.344   8.107
   234G12c C017 4148   6.236   1.223   8.053
   234G12c O002 4149   6.256   1.216   7.915
   234G12c H004 4150   6.254   1.128   7.880
   234G12c C018 4151   6.264   1.114   8.128
   234G12c O001 4152   6.261   1.131   8.261
   234G12c H003 4153   6.239   1.223   8.262
   234G12c C019 4154   6.313   0.980   8.079
   234G12c H002 4155   6.419   0.987   8.056
   234G12c H001 4156   6.299   0.907   8.159
   234G12c O000 4157   6.224   0.946   7.974
   234G12c C01A 4158   6.272   0.853   7.887
   234G12c C02K 4159   6.279   0.891   7.753
   234G12c O00G 4160   6.244   1.018   7.720
   234G12c C02M 4161   6.245   1.058   7.585
   234G12c H01G 4162   6.155   1.028   7.531
   234G12c H01F 4163   6.338   1.037   7.532
   234G12c H01E 4164   6.229   1.166   7.585
   234G12c C02J 4165   6.337   0.796   7.665
   234G12c H01H 4166   6.336   0.815   7.559
   234G12c C02I 4167   6.390   0.670   7.713
   234G12c C02N 4168   6.435   0.567   7.624
   234G12c H01M 4169   6.428   0.461   7.646
   234G12c C02O 4170   6.501   0.598   7.508
   234G12c H01L 4171   0.006   0.699   7.480
   234G12c C02P 4172   0.024   0.497   7.402
   234G12c H01K 4173   0.127   0.517   7.371
   234G12c H01J 4174   0.017   0.394   7.435
   234G12c O00H 4175   6.451   0.510   7.302
   234G12c H01I 4176   6.366   0.489   7.337
   234G12c C02H 4177   6.368   0.635   7.848
   234G12c H01C 4178   6.410   0.545   7.892
   234G12c C02L 4179   6.314   0.728   7.939
   234G12c H01D 4180   6.323   0.683   8.037
   234G12c C013 4181   6.251   1.459   8.128
   234G12c H000 4182   6.353   1.439   8.098
   234G12c C014 4183   6.201   1.584   8.170
   234G12c C00F 4184   6.289   1.694   8.194
   234G12c C00H 4185   6.092   1.821   8.253
   234G12c C00I 4186   6.032   1.946   8.284
   234G12c C00J 4187   5.892   1.946   8.316
   234G12c C00Z 4188   5.843   1.493   8.219
   234G12c C00Y 4189   5.755   1.387   8.195
   234G12c H006 4190   5.785   1.305   8.131
   234G12c C00X 4191   5.621   1.391   8.238
   234G12c O003 4192   5.534   1.284   8.215
   234G12c C01B 4193   5.500   1.256   8.078
   234G12c H009 4194   5.598   1.243   8.032
   234G12c H008 4195   5.464   1.342   8.021
   234G12c H007 4196   5.446   1.162   8.063
   234G12c C00W 4197   5.580   1.502   8.317
   234G12c O004 4198   5.457   1.499   8.375
   234G12c C01C 4199   5.444   1.565   8.498
   234G12c H00A 4200   5.345   1.550   8.539
   234G12c C00P 4201   5.520   1.692   8.511
   234G12c C00O 4202   5.504   1.779   8.625
   234G12c C01D 4203   5.452   1.719   8.741
   234G12c H00S 4204   5.407   1.622   8.730
   234G12c C01E 4205   5.464   1.771   8.876
   234G12c O008 4206   5.439   1.697   8.992
   234G12c C01V 4207   5.365   1.586   8.991
   234G12c C01Z 4208   5.440   1.458   8.969
   234G12c H00R 4209   5.383   1.388   8.908
   234G12c H00Q 4210   5.529   1.472   8.908
   234G12c O009 4211   5.470   1.384   9.084
   234G12c H00P 4212   5.444   1.447   9.150
   234G12c C01W 4213   5.229   1.593   8.988
   234G12c H00O 4214   5.178   1.687   9.002
   234G12c C01X 4215   5.132   1.475   8.961
   234G12c H00N 4216   5.175   1.378   8.986
   234G12c H00M 4217   5.047   1.489   9.028
   234G12c C01Y 4218   5.090   1.464   8.816
   234G12c C02D 4219   5.039   1.584   8.760
   234G12c H019 4220   5.042   1.673   8.822
   234G12c C02C 4221   4.993   1.584   8.632
   234G12c H01A 4222   4.964   1.677   8.587
   234G12c C02B 4223   4.980   1.463   8.554
   234G12c O00E 4224   4.929   1.472   8.429
   234G12c H01B 4225   4.912   1.387   8.391
   234G12c C02F 4226   5.033   1.343   8.610
   234G12c O00F 4227   5.021   1.236   8.524
   234G12c C02G 4228   5.075   1.113   8.575
   234G12c H017 4229   5.010   1.096   8.662
   234G12c H016 4230   5.180   1.134   8.596
   234G12c H015 4231   5.071   1.026   8.509
   234G12c C02E 4232   5.085   1.339   8.743
   234G12c H018 4233   5.119   1.251   8.796
   234G12c C01F 4234   5.525   1.903   8.889
   234G12c C01G 4235   5.592   1.949   9.010
   234G12c H00L 4236   5.582   1.882   9.094
   234G12c C01H 4237   5.675   2.064   9.005
   234G12c H00B 4238   5.743   2.074   9.089
   234G12c C01I 4239   5.689   2.138   8.880
   234G12c C01U 4240   5.537   1.981   8.771
   234G12c C00S 4241   5.816   1.830   8.311
   234G12c C00K 4242   5.834   2.030   8.417
   234G12c C00N 4243   5.555   1.916   8.647
   234G12c C000 4244   5.603   2.105   8.773
   234G12c C01J 4245   5.797   2.204   8.819
   234G12c C01K 4246   5.911   2.245   8.898
   234G12c C01P 4247   5.915   2.295   9.029
   234G12c C01Q 4248   5.798   2.333   9.103
   234G12c H00G 4249   5.763   2.264   9.178
   234G12c C01R 4250   5.727   2.449   9.074
   234G12c H00F 4251   5.765   2.517   8.999
   234G12c C01S 4252   5.589   2.473   9.135
   234G12c H00E 4253   5.583   2.435   9.237
   234G12c H00D 4254   5.580   2.582   9.136
   234G12c O005 4255   5.486   2.420   9.054
   234G12c H00C 4256   5.534   2.361   8.998
   234G12c C01O 4257   6.033   2.324   9.103
   234G12c H00H 4258   6.019   2.366   9.201
   234G12c C01N 4259   6.153   2.306   9.040
   234G12c O006 4260   6.272   2.323   9.100
   234G12c C01T 4261   6.268   2.369   9.235
   234G12c H00K 4262   6.221   2.464   9.261
   234G12c H00J 4263   6.372   2.391   9.260
   234G12c H00I 4264   6.225   2.295   9.303
   234G12c C01M 4265   6.160   2.261   8.904
   234G12c C020 4266   5.932   2.120   8.479
   234G12c C021 4267   6.064   2.142   8.419
   234G12c C01L 4268   6.032   2.235   8.830
   234G12c O007 4269   6.281   2.239   8.847
   234G12c C022 4270   6.177   2.172   8.496
   234G12c C023 4271   6.116   2.055   8.316
   234G12c C00G 4272   6.232   1.814   8.237
   234G12c C00E 4273   6.435   1.688   8.185
   234G12c O00A 4274   6.496   1.582   8.122
   234G12c C024 4275   0.043   1.614   7.999
   234G12c H00V 4276   0.007   1.545   7.923
   234G12c H00U 4277   0.150   1.599   8.016
   234G12c H00T 4278   0.016   1.716   7.969
   244G12c C00D 4279   1.467   5.641   5.799
   244G12c O00B 4280   1.475   5.781   5.812
   244G12c C025 4281   1.391   5.838   5.727
   244G12c C026 4282   1.252   5.824   5.784
   244G12c H00Y 4283   1.209   5.725   5.772
   244G12c H00X 4284   1.194   5.900   5.731
   244G12c O00C 4285   1.263   5.878   5.914
   244G12c H00W 4286   1.351   5.910   5.927
   244G12c C027 4287   1.433   5.882   5.605
   244G12c O00D 4288   1.567   5.904   5.595
   244G12c H00Z 4289   1.612   5.840   5.648
   244G12c C028 4290   1.340   5.948   5.515
   244G12c C029 4291   1.221   5.889   5.466
   244G12c H010 4292   1.196   5.786   5.486
   244G12c C02T 4293   1.138   5.953   5.371
   244G12c H01O 4294   1.052   5.900   5.334
   244G12c C02S 4295   1.170   6.085   5.335
   244G12c O00J 4296   1.079   6.155   5.253
   244G12c H01P 4297   1.107   6.245   5.248
   244G12c C02R 4298   1.286   6.140   5.377
   244G12c O00I 4299   1.321   6.261   5.317
   244G12c C02Q 4300   1.448   6.318   5.352
   244G12c H01N 4301   1.463   6.314   5.460
   244G12c H01R 4302   1.455   6.423   5.324
   244G12c H01Q 4303   1.536   6.261   5.323
   244G12c C02A 4304   1.377   6.070   5.460
   244G12c H011 4305   1.472   6.113   5.488
   244G12c C00C 4306   1.429   5.570   5.918
   244G12c H012 4307   1.405   5.619   6.011
   244G12c C00B 4308   1.414   5.427   5.921
   244G12c C00A 4309   1.401   5.345   6.035
   244G12c C009 4310   1.464   5.353   6.165
   244G12c C008 4311   1.553   5.446   6.221
   244G12c H013 4312   1.544   5.548   6.186
   244G12c C007 4313   1.635   5.396   6.330
   244G12c H014 4314   1.686   5.468   6.393
   244G12c C006 4315   1.643   5.262   6.367
   244G12c C005 4316   1.556   5.175   6.302
   244G12c C004 4317   1.570   5.034   6.312
   244G12c C003 4318   1.494   4.949   6.232
   244G12c C002 4319   1.516   4.802   6.243
   244G12c C001 4320   1.465   4.689   6.172
   244G12c C00M 4321   1.453   4.679   6.033
   244G12c C00L 4322   1.413   4.787   5.953
   244G12c C00R 4323   1.430   4.795   5.807
   244G12c C00Q 4324   1.500   4.716   5.714
   244G12c C00V 4325   1.516   4.782   5.594
   244G12c C00U 4326   1.489   4.919   5.577
   244G12c C00T 4327   1.434   4.997   5.668
   244G12c C016 4328   1.432   5.138   5.676
   244G12c C015 4329   1.468   5.208   5.562
   244G12c C010 4330   1.511   5.128   5.454
   244G12c C011 4331   1.549   5.199   5.332
   244G12c H005 4332   1.573   5.142   5.243
   244G12c C012 4333   1.535   5.335   5.320
   244G12c C017 4334   1.551   5.398   5.190
   244G12c O002 4335   1.444   5.476   5.147
   244G12c H004 4336   1.376   5.441   5.202
   244G12c C018 4337   1.652   5.369   5.112
   244G12c O001 4338   1.760   5.295   5.153
   244G12c H003 4339   1.834   5.317   5.100
   244G12c C019 4340   1.651   5.416   4.962
   244G12c H002 4341   1.562   5.367   4.921
   244G12c H001 4342   1.627   5.522   4.962
   244G12c O000 4343   1.775   5.378   4.900
   244G12c C01A 4344   1.879   5.471   4.882
   244G12c C02K 4345   1.908   5.589   4.962
   244G12c O00G 4346   1.831   5.610   5.068
   244G12c C02M 4347   1.831   5.728   5.154
   244G12c H01G 4348   1.736   5.732   5.209
   244G12c H01F 4349   1.818   5.822   5.100
   244G12c H01E 4350   1.925   5.735   5.209
   244G12c C02J 4351   2.019   5.673   4.936
   244G12c H01H 4352   2.031   5.763   4.995
   244G12c C02I 4353   2.105   5.646   4.829
   244G12c C02N 4354   2.206   5.746   4.790
   244G12c H01M 4355   2.205   5.841   4.842
   244G12c C02O 4356   2.304   5.726   4.703
   244G12c H01L 4357   2.314   5.629   4.658
   244G12c C02P 4358   2.409   5.828   4.661
   244G12c H01K 4359   2.412   5.924   4.712
   244G12c H01J 4360   2.508   5.787   4.679
   244G12c O00H 4361   2.403   5.852   4.522
   244G12c H01I 4362   2.370   5.771   4.487
   244G12c C02H 4363   2.083   5.531   4.753
   244G12c H01C 4364   2.138   5.502   4.665
   244G12c C02L 4365   1.967   5.448   4.775
   244G12c H01D 4366   1.955   5.366   4.706
   244G12c C013 4367   1.507   5.407   5.437
   244G12c H000 4368   1.501   5.514   5.426
   244G12c C014 4369   1.481   5.348   5.565
   244G12c C00F 4370   1.458   5.424   5.680
   244G12c C00H 4371   1.395   5.214   5.791
   244G12c C00I 4372   1.358   5.143   5.905
   244G12c C00J 4373   1.357   5.002   5.894
   244G12c C00Z 4374   1.527   4.987   5.459
   244G12c C00Y 4375   1.578   4.909   5.348
   244G12c H006 4376   1.597   4.953   5.252
   244G12c C00X 4377   1.592   4.770   5.362
   244G12c O003 4378   1.643   4.687   5.261
   244G12c C01B 4379   1.640   4.728   5.125
   244G12c H009 4380   1.719   4.802   5.112
   244G12c H008 4381   1.540   4.769   5.110
   244G12c H007 4382   1.655   4.643   5.059
   244G12c C00W 4383   1.573   4.709   5.484
   244G12c O004 4384   1.591   4.574   5.487
   244G12c C01C 4385   1.603   4.518   5.611
   244G12c H00A 4386   1.649   4.421   5.625
   244G12c C00P 4387   1.560   4.593   5.729
   244G12c C00O 4388   1.605   4.543   5.856
   244G12c C01D 4389   1.712   4.448   5.867
   244G12c H00S 4390   1.772   4.418   5.782
   244G12c C01E 4391   1.793   4.433   5.988
   244G12c O008 4392   1.918   4.371   5.997
   244G12c C01V 4393   1.998   4.368   5.883
   244G12c C01Z 4394   1.994   4.228   5.825
   244G12c H00R 4395   1.896   4.182   5.814
   244G12c H00Q 4396   2.057   4.223   5.736
   244G12c O009 4397   2.078   4.153   5.916
   244G12c H00P 4398   2.029   4.166   5.997
   244G12c C01W 4399   2.065   4.477   5.844
   244G12c H00O 4400   2.055   4.572   5.893
   244G12c C01X 4401   2.153   4.487   5.723
   244G12c H00N 4402   2.116   4.422   5.643
   244G12c H00M 4403   2.132   4.585   5.682
   244G12c C01Y 4404   2.303   4.457   5.739
   244G12c C02D 4405   2.389   4.478   5.631
   244G12c H019 4406   2.341   4.514   5.541
   244G12c C02C 4407   2.523   4.430   5.627
   244G12c H01A 4408   2.584   4.452   5.540
   244G12c C02B 4409   2.570   4.367   5.741
   244G12c O00E 4410   2.705   4.350   5.759
   244G12c H01B 4411   2.719   4.286   5.827
   244G12c C02F 4412   2.487   4.336   5.847
   244G12c O00F 4413   2.543   4.259   5.946
   244G12c C02G 4414   2.496   4.269   6.074
   244G12c H017 4415   2.490   4.374   6.103
   244G12c H016 4416   2.553   4.214   6.149
   244G12c H015 4417   2.399   4.219   6.080
   244G12c C02E 4418   2.350   4.380   5.848
   244G12c H018 4419   2.293   4.361   5.938
   244G12c C01F 4420   1.734   4.478   6.109
   244G12c C01G 4421   1.799   4.480   6.234
   244G12c H00L 4422   1.900   4.443   6.241
   244G12c C01H 4423   1.760   4.559   6.338
   244G12c H00B 4424   1.830   4.579   6.418
   244G12c C01I 4425   1.631   4.624   6.324
   244G12c C01U 4426   1.604   4.530   6.108
   244G12c C00S 4427   1.392   4.931   5.782
   244G12c C00K 4428   1.379   4.917   6.006
   244G12c C00N 4429   1.549   4.577   5.984
   244G12c C000 4430   1.543   4.583   6.220
   244G12c C01J 4431   1.603   4.758   6.346
   244G12c C01K 4432   1.657   4.845   6.450
   244G12c C01P 4433   1.728   4.811   6.573
   244G12c C01Q 4434   1.717   4.675   6.622
   244G12c H00G 4435   1.624   4.623   6.606
   244G12c C01R 4436   1.817   4.604   6.679
   244G12c H00F 4437   1.915   4.640   6.706
   244G12c C01S 4438   1.811   4.458   6.723
   244G12c H00E 4439   1.887   4.464   6.801
   244G12c H00D 4440   1.720   4.420   6.769
   244G12c O005 4441   1.847   4.377   6.612
   244G12c H00C 4442   1.783   4.308   6.604
   244G12c C01O 4443   1.814   4.906   6.633
   244G12c H00H 4444   1.869   4.873   6.720
   244G12c C01N 4445   1.805   5.041   6.592
   244G12c O006 4446   1.864   5.144   6.658
   244G12c C01T 4447   2.006   5.135   6.669
   244G12c H00K 4448   2.045   5.217   6.731
   244G12c H00J 4449   2.060   5.141   6.575
   244G12c H00I 4450   2.029   5.040   6.717
   244G12c C01M 4451   1.718   5.079   6.493
   244G12c C020 4452   1.407   4.996   6.130
   244G12c C021 4453   1.382   5.138   6.138
   244G12c C01L 4454   1.656   4.980   6.412
   244G12c O007 4455   1.722   5.213   6.468
   244G12c C022 4456   1.449   5.220   6.225
   244G12c C023 4457   1.358   5.218   6.020
   244G12c C00G 4458   1.421   5.352   5.798
   244G12c C00E 4459   1.498   5.564   5.685
   244G12c O00A 4460   1.589   5.626   5.601
   244G12c C024 4461   1.727   5.609   5.626
   244G12c H00V 4462   1.790   5.662   5.554
   244G12c H00U 4463   1.746   5.503   5.637
   244G12c H00T 4464   1.747   5.658   5.721
   254G12c C00D 4465   4.881   6.471   4.984
   254G12c O00B 4466   4.955   6.419   5.089
   254G12c C025 4467   4.988   6.287   5.087
   254G12c C026 4468   5.121   6.259   5.015
   254G12c H00Y 4469   5.192   6.217   5.086
   254G12c H00X 4470   5.159   6.350   4.969
   254G12c O00C 4471   5.097   6.162   4.919
   254G12c H00W 4472   5.031   6.105   4.955
   254G12c C027 4473   4.915   6.196   5.152
   254G12c O00D 4474   4.803   6.232   5.218
   254G12c H00Z 4475   4.819   6.325   5.210
   254G12c C028 4476   4.967   6.066   5.176
   254G12c C029 4477   4.923   5.949   5.108
   254G12c H010 4478   4.842   5.956   5.037
   254G12c C02T 4479   4.955   5.820   5.155
   254G12c H01O 4480   4.897   5.738   5.116
   254G12c C02S 4481   5.057   5.805   5.251
   254G12c O00J 4482   5.086   5.685   5.311
   254G12c H01P 4483   5.172   5.701   5.347
   254G12c C02R 4484   5.128   5.917   5.300
   254G12c O00I 4485   5.236   5.887   5.384
   254G12c C02Q 4486   5.272   5.995   5.469
   254G12c H01N 4487   5.194   6.039   5.532
   254G12c H01R 4488   5.310   6.083   5.417
   254G12c H01Q 4489   5.357   5.963   5.530
   254G12c C02A 4490   5.073   6.047   5.269
   254G12c H011 4491   5.113   6.140   5.309
   254G12c C00C 4492   4.877   6.419   4.855
   254G12c H012 4493   4.933   6.326   4.856
   254G12c C00B 4494   4.804   6.467   4.747
   254G12c C00A 4495   4.785   6.414   4.614
   254G12c C009 4496   4.878   6.334   4.536
   254G12c C008 4497   4.998   6.258   4.556
   254G12c H013 4498   5.023   6.242   4.660
   254G12c C007 4499   5.078   6.220   4.447
   254G12c H014 4500   5.164   6.155   4.459
   254G12c C006 4501   5.044   6.254   4.312
   254G12c C005 4502   4.930   6.339   4.301
   254G12c C004 4503   4.904   6.413   4.180
   254G12c C003 4504   4.807   6.520   4.172
   254G12c C002 4505   4.805   0.079   4.052
   254G12c C001 4506   4.728   0.201   4.012
   254G12c C00M 4507   4.707   0.309   4.110
   254G12c C00L 4508   4.648   0.286   4.238
   254G12c C00R 4509   4.634   0.388   4.344
   254G12c C00Q 4510   4.674   0.530   4.352
   254G12c C00V 4511   4.663   0.587   4.480
   254G12c C00U 4512   4.643   0.511   4.595
   254G12c C00T 4513   4.638   0.373   4.586
   254G12c C016 4514   4.653   0.286   4.691
   254G12c C015 4515   4.663   0.344   4.813
   254G12c C010 4516   4.645   0.482   4.834
   254G12c C011 4517   4.619   0.528   4.966
   254G12c H005 4518   4.591   0.631   4.983
   254G12c C012 4519   4.618   0.444   5.080
   254G12c C017 4520   4.580   0.496   5.209
   254G12c O002 4521   4.476   0.429   5.277
   254G12c H004 4522   4.418   0.393   5.212
   254G12c C018 4523   4.634   0.606   5.265
   254G12c O001 4524   4.731   0.683   5.211
   254G12c H003 4525   4.750   0.764   5.256
   254G12c C019 4526   4.594   0.658   5.398
   254G12c H002 4527   4.495   0.624   5.428
   254G12c H001 4528   4.679   0.620   5.456
   254G12c O000 4529   4.599   0.798   5.390
   254G12c C01A 4530   4.573   0.870   5.506
   254G12c C02K 4531   4.577   1.018   5.496
   254G12c O00G 4532   4.602   1.105   5.392
   254G12c C02M 4533   4.610   1.039   5.264
   254G12c H01G 4534   4.629   1.107   5.182
   254G12c H01F 4535   4.508   1.006   5.245
   254G12c H01E 4536   4.682   0.957   5.255
   254G12c C02J 4537   4.544   1.089   5.614
   254G12c H01H 4538   4.560   1.196   5.614
   254G12c C02I 4539   4.509   1.028   5.738
   254G12c C02N 4540   4.477   1.114   5.853
   254G12c H01M 4541   4.561   1.136   5.917
   254G12c C02O 4542   4.354   1.165   5.855
   254G12c H01L 4543   4.274   1.147   5.784
   254G12c C02P 4544   4.305   1.258   5.961
   254G12c H01K 4545   4.210   1.211   5.985
   254G12c H01J 4546   4.358   1.254   6.056
   254G12c O00H 4547   4.318   1.392   5.903
   254G12c H01I 4548   4.284   1.396   5.815
   254G12c C02H 4549   4.514   0.891   5.739
   254G12c H01C 4550   4.503   0.844   5.836
   254G12c C02L 4551   4.541   0.812   5.628
   254G12c H01D 4552   4.535   0.706   5.650
   254G12c C013 4553   4.656   0.310   5.055
   254G12c H000 4554   4.661   0.246   5.142
   254G12c C014 4555   4.691   0.263   4.923
   254G12c C00F 4556   4.747   0.139   4.902
   254G12c C00H 4557   4.680   0.147   4.666
   254G12c C00I 4558   4.666   0.093   4.538
   254G12c C00J 4559   4.624   0.183   4.437
   254G12c C00Z 4560   4.648   0.566   4.722
   254G12c C00Y 4561   4.666   0.705   4.738
   254G12c H006 4562   4.662   0.738   4.841
   254G12c C00X 4563   4.678   0.789   4.631
   254G12c O003 4564   4.691   0.924   4.645
   254G12c C01B 4565   4.828   0.971   4.668
   254G12c H009 4566   4.871   0.913   4.749
   254G12c H008 4567   4.829   1.075   4.700
   254G12c H007 4568   4.889   0.967   4.577
   254G12c C00W 4569   4.693   0.731   4.501
   254G12c O004 4570   4.721   0.813   4.399
   254G12c C01C 4571   4.730   0.754   4.273
   254G12c H00A 4572   4.697   0.816   4.191
   254G12c C00P 4573   4.728   0.613   4.255
   254G12c C00O 4574   4.793   0.558   4.130
   254G12c C01D 4575   4.892   0.638   4.063
   254G12c H00S 4576   4.904   0.741   4.091
   254G12c C01E 4577   4.977   0.596   3.957
   254G12c O008 4578   5.071   0.676   3.895
   254G12c C01V 4579   5.135   0.765   3.970
   254G12c C01Z 4580   5.107   0.907   3.920
   254G12c H00R 4581   5.021   0.907   3.853
   254G12c H00Q 4582   5.064   0.970   3.998
   254G12c O009 4583   5.213   0.955   3.842
   254G12c H00P 4584   5.226   0.887   3.778
   254G12c C01W 4585   5.213   0.731   4.074
   254G12c H00O 4586   5.221   0.629   4.107
   254G12c C01X 4587   5.299   0.822   4.166
   254G12c H00N 4588   5.241   0.913   4.182
   254G12c H00M 4589   5.302   0.777   4.265
   254G12c C01Y 4590   5.432   0.842   4.102
   254G12c C02D 4591   5.474   0.973   4.082
   254G12c H019 4592   5.401   1.049   4.108
   254G12c C02C 4593   5.581   1.004   4.003
   254G12c H01A 4594   5.611   1.104   3.976
   254G12c C02B 4595   5.662   0.900   3.952
   254G12c O00E 4596   5.757   0.926   3.857
   254G12c H01B 4597   5.775   0.845   3.811
   254G12c C02F 4598   5.625   0.767   3.968
   254G12c O00F 4599   5.705   0.669   3.905
   254G12c C02G 4600   5.682   0.537   3.934
   254G12c H017 4601   5.708   0.533   4.040
   254G12c H016 4602   5.754   0.488   3.868
   254G12c H015 4603   5.582   0.505   3.907
   254G12c C02E 4604   5.514   0.740   4.055
   254G12c H018 4605   5.477   0.639   4.064
   254G12c C01F 4606   4.959   0.462   3.914
   254G12c C01G 4607   5.048   0.390   3.831
   254G12c H00L 4608   5.141   0.438   3.803
   254G12c C01H 4609   5.031   0.245   3.819
   254G12c H00B 4610   5.120   0.192   3.788
   254G12c C01I 4611   4.916   0.176   3.872
   254G12c C01U 4612   4.842   0.392   3.953
   254G12c C00S 4613   4.614   0.317   4.458
   254G12c C00K 4614   4.650   0.154   4.298
   254G12c C00N 4615   4.774   0.428   4.072
   254G12c C000 4616   4.809   0.261   3.915
   254G12c C01J 4617   4.908   0.052   3.952
   254G12c C01K 4618   4.995   6.458   3.947
   254G12c C01P 4619   5.079   6.414   3.842
   254G12c C01Q 4620   5.096   6.477   3.715
   254G12c H00G 4621   5.009   6.518   3.667
   254G12c C01R 4622   5.222   6.510   3.675
   254G12c H00F 4623   5.300   6.480   3.745
   254G12c C01S 4624   5.255   0.072   3.554
   254G12c H00E 4625   5.305   0.012   3.477
   254G12c H00D 4626   5.170   0.120   3.506
   254G12c O005 4627   5.337   0.178   3.606
   254G12c H00C 4628   5.390   0.159   3.682
   254G12c C01O 4629   5.156   6.292   3.863
   254G12c H00H 4630   5.208   6.256   3.776
   254G12c C01N 4631   5.158   6.224   3.980
   254G12c O006 4632   5.234   6.116   4.005
   254G12c C01T 4633   5.173   5.991   3.964
   254G12c H00K 4634   5.076   5.979   4.012
   254G12c H00J 4635   5.237   5.908   3.996
   254G12c H00I 4636   5.149   5.992   3.858
   254G12c C01M 4637   5.078   6.279   4.085
   254G12c C020 4638   4.717   0.026   4.280
   254G12c C021 4639   4.731   6.449   4.389
   254G12c C01L 4640   4.992   6.391   4.073
   254G12c O007 4641   5.113   6.224   4.203
   254G12c C022 4642   4.840   6.369   4.403
   254G12c C023 4643   4.703   6.484   4.524
   254G12c C00G 4644   4.735   0.073   4.773
   254G12c C00E 4645   4.820   0.073   5.005
   254G12c O00A 4646   4.843   0.131   5.126
   254G12c C024 4647   4.974   0.192   5.138
   254G12c H00V 4648   5.042   0.136   5.202
   254G12c H00U 4649   4.962   0.292   5.180
   254G12c H00T 4650   5.023   0.204   5.042
   264G12c C00D 4651   2.089   1.482   8.194
   264G12c O00B 4652   1.968   1.541   8.141
   264G12c C025 4653   1.939   1.679   8.156
   264G12c C026 4654   1.929   1.730   8.301
   264G12c H00Y 4655   1.939   1.839   8.306
   264G12c H00X 4656   2.015   1.690   8.354
   264G12c O00C 4657   1.811   1.682   8.358
   264G12c H00W 4658   1.767   1.624   8.298
   264G12c C027 4659   1.922   1.751   8.041
   264G12c O00D 4660   1.953   1.695   7.921
   264G12c H00Z 4661   1.947   1.603   7.938
   264G12c C028 4662   1.890   1.891   8.043
   264G12c C029 4663   1.948   1.982   7.949
   264G12c H010 4664   2.018   1.954   7.872
   264G12c C02T 4665   1.909   2.119   7.945
   264G12c H01O 4666   1.955   2.190   7.878
   264G12c C02S 4667   1.824   2.172   8.039
   264G12c O00J 4668   1.793   2.307   8.050
   264G12c H01P 4669   1.856   2.353   7.996
   264G12c C02R 4670   1.760   2.088   8.125
   264G12c O00I 4671   1.684   2.152   8.221
   264G12c C02Q 4672   1.654   2.082   8.341
   264G12c H01N 4673   1.588   1.996   8.327
   264G12c H01R 4674   1.623   2.153   8.417
   264G12c H01Q 4675   1.751   2.040   8.371
   264G12c C02A 4676   1.788   1.945   8.125
   264G12c H011 4677   1.747   1.881   8.202
   264G12c C00C 4678   2.205   1.563   8.216
   264G12c H012 4679   2.206   1.667   8.187
   264G12c C00B 4680   2.312   1.512   8.291
   264G12c C00A 4681   2.430   1.580   8.329
   264G12c C009 4682   2.494   1.701   8.284
   264G12c C008 4683   2.480   1.789   8.170
   264G12c H013 4684   2.390   1.792   8.110
   264G12c C007 4685   2.594   1.870   8.133
   264G12c H014 4686   2.587   1.944   8.054
   264G12c C006 4687   2.725   1.850   8.192
   264G12c C005 4688   2.735   1.756   8.299
   264G12c C004 4689   2.857   1.707   8.345
   264G12c C003 4690   2.864   1.591   8.424
   264G12c C002 4691   2.992   1.546   8.462
   264G12c C001 4692   3.049   1.432   8.535
   264G12c C00M 4693   2.990   1.300   8.528
   264G12c C00L 4694   2.850   1.275   8.534
   264G12c C00R 4695   2.788   1.152   8.507
   264G12c C00Q 4696   2.833   1.024   8.457
   264G12c C00V 4697   2.726   0.933   8.425
   264G12c C00U 4698   2.594   0.974   8.396
   264G12c C00T 4699   2.557   1.103   8.424
   264G12c C016 4700   2.447   1.165   8.373
   264G12c C015 4701   2.347   1.085   8.315
   264G12c C010 4702   2.379   0.948   8.293
   264G12c C011 4703   2.289   0.868   8.223
   264G12c H005 4704   2.298   0.761   8.215
   264G12c C012 4705   2.176   0.925   8.157
   264G12c C017 4706   2.100   0.844   8.067
   264G12c O002 4707   2.163   0.759   7.986
   264G12c H004 4708   2.103   0.741   7.915
   264G12c C018 4709   1.967   0.856   8.055
   264G12c O001 4710   1.888   0.935   8.127
   264G12c H003 4711   1.806   0.916   8.084
   264G12c C019 4712   1.880   0.776   7.957
   264G12c H002 4713   1.934   0.717   7.883
   264G12c H001 4714   1.827   0.702   8.018
   264G12c O000 4715   1.781   0.867   7.904
   264G12c C01A 4716   1.797   0.929   7.780
   264G12c C02K 4717   1.914   0.923   7.703
   264G12c O00G 4718   2.024   0.848   7.739
   264G12c C02M 4719   2.144   0.859   7.662
   264G12c H01G 4720   2.218   0.783   7.688
   264G12c H01F 4721   2.192   0.957   7.665
   264G12c H01E 4722   2.131   0.840   7.555
   264G12c C02J 4723   1.906   0.990   7.576
   264G12c H01H 4724   1.990   0.982   7.509
   264G12c C02I 4725   1.792   1.057   7.529
   264G12c C02N 4726   1.785   1.116   7.397
   264G12c H01M 4727   1.721   1.200   7.377
   264G12c C02O 4728   1.850   1.054   7.294
   264G12c H01L 4729   1.908   0.965   7.314
   264G12c C02P 4730   1.818   1.094   7.151
   264G12c H01K 4731   1.815   1.199   7.124
   264G12c H01J 4732   1.894   1.052   7.085
   264G12c O00H 4733   1.694   1.028   7.115
   264G12c H01I 4734   1.625   1.065   7.167
   264G12c C02H 4735   1.679   1.062   7.612
   264G12c H01C 4736   1.600   1.123   7.570
   264G12c C02L 4737   1.685   1.003   7.738
   264G12c H01D 4738   1.590   1.013   7.788
   264G12c C013 4739   2.156   1.061   8.174
   264G12c H000 4740   2.075   1.103   8.117
   264G12c C014 4741   2.237   1.146   8.258
   264G12c C00F 4742   2.217   1.286   8.263
   264G12c C00H 4743   2.428   1.305   8.382
   264G12c C00I 4744   2.523   1.384   8.441
   264G12c C00J 4745   2.635   1.319   8.488
   264G12c C00Z 4746   2.503   0.893   8.337
   264G12c C00Y 4747   2.531   0.750   8.319
   264G12c H006 4748   2.456   0.681   8.284
   264G12c C00X 4749   2.659   0.705   8.341
   264G12c O003 4750   2.708   0.576   8.307
   264G12c C01B 4751   2.611   0.478   8.267
   264G12c H009 4752   2.658   0.380   8.281
   264G12c H008 4753   2.576   0.480   8.164
   264G12c H007 4754   2.523   0.474   8.330
   264G12c C00W 4755   2.758   0.797   8.394
   264G12c O004 4756   2.887   0.746   8.412
   264G12c C01C 4757   2.976   0.846   8.377
   264G12c H00A 4758   3.030   0.829   8.284
   264G12c C00P 4759   2.965   0.979   8.430
   264G12c C00O 4760   3.082   1.070   8.416
   264G12c C01D 4761   3.203   1.024   8.356
   264G12c H00S 4762   3.215   0.926   8.312
   264G12c C01E 4763   3.307   1.112   8.316
   264G12c O008 4764   3.398   1.065   8.226
   264G12c C01V 4765   3.536   1.085   8.250
   264G12c C01Z 4766   3.592   1.084   8.395
   264G12c H00R 4767   3.694   1.123   8.390
   264G12c H00Q 4768   3.542   1.163   8.451
   264G12c O009 4769   3.578   0.951   8.445
   264G12c H00P 4770   3.525   0.896   8.390
   264G12c C01W 4771   3.619   1.092   8.140
   264G12c H00O 4772   3.569   1.091   8.044
   264G12c C01X 4773   3.766   1.085   8.136
   264G12c H00N 4774   3.801   1.011   8.209
   264G12c H00M 4775   3.811   1.041   8.047
   264G12c C01Y 4776   3.844   1.212   8.142
   264G12c C02D 4777   3.781   1.339   8.128
   264G12c H019 4778   3.675   1.347   8.107
   264G12c C02C 4779   3.867   1.450   8.115
   264G12c H01A 4780   3.829   1.551   8.109
   264G12c C02B 4781   3.999   1.427   8.124
   264G12c O00E 4782   4.085   1.532   8.116
   264G12c H01B 4783   4.169   1.491   8.097
   264G12c C02F 4784   4.060   1.305   8.145
   264G12c O00F 4785   4.197   1.299   8.152
   264G12c C02G 4786   4.261   1.172   8.167
   264G12c H017 4787   4.221   1.126   8.258
   264G12c H016 4788   4.367   1.189   8.180
   264G12c H015 4789   4.246   1.096   8.090
   264G12c C02E 4790   3.982   1.193   8.150
   264G12c H018 4791   4.024   1.097   8.177
   264G12c C01F 4792   3.297   1.247   8.349
   264G12c C01G 4793   3.347   1.356   8.267
   264G12c H00L 4794   3.414   1.338   8.185
   264G12c C01H 4795   3.300   1.492   8.291
   264G12c H00B 4796   3.325   1.568   8.218
   264G12c C01I 4797   3.213   1.520   8.401
   264G12c C01U 4798   3.210   1.287   8.453
   264G12c C00S 4799   2.651   1.180   8.491
   264G12c C00K 4800   2.758   1.383   8.507
   264G12c C00N 4801   3.086   1.205   8.463
   264G12c C000 4802   3.189   1.422   8.499
   264G12c C01J 4803   3.101   1.612   8.399
   264G12c C01K 4804   3.103   1.739   8.325
   264G12c C01P 4805   3.208   1.831   8.299
   264G12c C01Q 4806   3.340   1.799   8.339
   264G12c H00G 4807   3.361   1.742   8.428
   264G12c C01R 4808   3.452   1.825   8.261
   264G12c H00F 4809   3.454   1.870   8.164
   264G12c C01S 4810   3.593   1.781   8.293
   264G12c H00E 4811   3.655   1.851   8.237
   264G12c H00D 4812   3.609   1.788   8.401
   264G12c O005 4813   3.613   1.650   8.251
   264G12c H00C 4814   3.546   1.602   8.298
   264G12c C01O 4815   3.186   1.961   8.243
   264G12c H00H 4816   3.270   2.027   8.226
   264G12c C01N 4817   3.053   1.994   8.202
   264G12c O006 4818   3.062   2.104   8.120
   264G12c C01T 4819   2.940   2.171   8.091
   264G12c H00K 4820   2.896   2.120   8.005
   264G12c H00J 4821   2.969   2.269   8.053
   264G12c H00I 4822   2.877   2.175   8.180
   264G12c C01M 4823   2.947   1.901   8.222
   264G12c C020 4824   2.752   1.522   8.466
   264G12c C021 4825   2.630   1.587   8.437
   264G12c C01L 4826   2.970   1.778   8.298
   264G12c O007 4827   2.832   1.924   8.152
   264G12c C022 4828   2.621   1.698   8.358
   264G12c C023 4829   2.509   1.523   8.434
   264G12c C00G 4830   2.313   1.368   8.322
   264G12c C00E 4831   2.096   1.346   8.222
   264G12c O00A 4832   1.973   1.279   8.202
   264G12c C024 4833   1.895   1.265   8.320
   264G12c H00V 4834   1.958   1.257   8.408
   264G12c H00U 4835   1.828   1.179   8.310
   264G12c H00T 4836   1.818   1.342   8.329
   274G12c C00D 4837   2.104   5.639   6.816
   274G12c O00B 4838   2.120   5.521   6.891
   274G12c C025 4839   2.158   5.526   7.028
   274G12c C026 4840   2.039   5.484   7.109
   274G12c H00Y 4841   2.081   5.433   7.196
   274G12c H00X 4842   1.970   5.413   7.062
   274G12c O00C 4843   1.948   5.590   7.139
   274G12c H00W 4844   1.863   5.550   7.139
   274G12c C027 4845   2.280   5.563   7.067
   274G12c O00D 4846   2.367   5.597   6.965
   274G12c H00Z 4847   2.321   5.556   6.894
   274G12c C028 4848   2.321   5.584   7.208
   274G12c C029 4849   2.462   5.580   7.237
   274G12c H010 4850   2.537   5.564   7.161
   274G12c C02T 4851   2.510   5.587   7.371
   274G12c H01O 4852   2.616   5.576   7.388
   274G12c C02S 4853   2.421   5.613   7.478
   274G12c O00J 4854   2.470   5.604   7.606
   274G12c H01P 4855   2.413   5.635   7.675
   274G12c C02R 4856   2.286   5.633   7.448
   274G12c O00I 4857   2.206   5.660   7.559
   274G12c C02Q 4858   2.071   5.700   7.535
   274G12c H01N 4859   2.043   5.788   7.477
   274G12c H01R 4860   2.015   5.695   7.629
   274G12c H01Q 4861   2.008   5.626   7.486
   274G12c C02A 4862   2.235   5.618   7.316
   274G12c H011 4863   2.131   5.639   7.293
   274G12c C00C 4864   2.117   5.763   6.876
   274G12c H012 4865   2.143   5.775   6.981
   274G12c C00B 4866   2.086   5.882   6.806
   274G12c C00A 4867   2.083   6.016   6.860
   274G12c C009 4868   2.063   6.068   6.994
   274G12c C008 4869   2.037   6.010   7.123
   274G12c H013 4870   2.053   5.905   7.141
   274G12c C007 4871   1.969   6.085   7.224
   274G12c H014 4872   1.949   6.039   7.320
   274G12c C006 4873   1.923   6.217   7.198
   274G12c C005 4874   1.953   6.270   7.069
   274G12c C004 4875   1.900   6.390   7.019
   274G12c C003 4876   1.913   6.425   6.877
   274G12c C002 4877   1.827   0.012   6.839
   274G12c C001 4878   1.806   0.068   6.708
   274G12c C00M 4879   1.770   6.514   6.593
   274G12c C00L 4880   1.863   6.424   6.538
   274G12c C00R 4881   1.824   6.321   6.439
   274G12c C00Q 4882   1.717   6.307   6.351
   274G12c C00V 4883   1.705   6.186   6.283
   274G12c C00U 4884   1.783   6.068   6.315
   274G12c C00T 4885   1.876   6.078   6.414
   274G12c C016 4886   1.934   5.976   6.475
   274G12c C015 4887   1.915   5.850   6.418
   274G12c C010 4888   1.828   5.832   6.309
   274G12c C011 4889   1.833   5.710   6.235
   274G12c H005 4890   1.783   5.689   6.141
   274G12c C012 4891   1.920   5.600   6.281
   274G12c C017 4892   1.924   5.476   6.203
   274G12c O002 4893   1.898   5.490   6.067
   274G12c H004 4894   1.915   5.407   6.024
   274G12c C018 4895   1.952   5.354   6.256
   274G12c O001 4896   1.994   5.329   6.386
   274G12c H003 4897   1.961   5.407   6.429
   274G12c C019 4898   1.937   5.219   6.172
   274G12c H002 4899   2.036   5.174   6.179
   274G12c H001 4900   1.854   5.161   6.212
   274G12c O000 4901   1.931   5.235   6.029
   274G12c C01A 4902   1.927   5.130   5.939
   274G12c C02K 4903   1.951   5.154   5.801
   274G12c O00G 4904   1.970   5.290   5.766
   274G12c C02M 4905   1.996   5.316   5.631
   274G12c H01G 4906   2.074   5.249   5.596
   274G12c H01F 4907   2.041   5.414   5.618
   274G12c H01E 4908   1.897   5.315   5.583
   274G12c C02J 4909   1.936   5.052   5.705
   274G12c H01H 4910   1.944   5.071   5.599
   274G12c C02I 4911   1.908   4.923   5.749
   274G12c C02N 4912   1.890   4.809   5.655
   274G12c H01M 4913   1.813   4.734   5.655
   274G12c C02O 4914   1.984   4.804   5.560
   274G12c H01L 4915   2.058   4.882   5.558
   274G12c C02P 4916   2.005   4.692   5.458
   274G12c H01K 4917   1.960   4.725   5.364
   274G12c H01J 4918   2.108   4.663   5.441
   274G12c O00H 4919   1.928   4.577   5.496
   274G12c H01I 4920   1.889   4.541   5.418
   274G12c C02H 4921   1.889   4.897   5.884
   274G12c H01C 4922   1.860   4.796   5.910
   274G12c C02L 4923   1.902   4.999   5.981
   274G12c H01D 4924   1.889   4.977   6.085
   274G12c C013 4925   1.998   5.623   6.397
   274G12c H000 4926   2.068   5.544   6.420
   274G12c C014 4927   1.988   5.742   6.470
   274G12c C00F 4928   2.035   5.751   6.603
   274G12c C00H 4929   2.006   5.989   6.596
   274G12c C00I 4930   2.030   6.119   6.649
   274G12c C00J 4931   1.982   6.227   6.570
   274G12c C00Z 4932   1.757   5.946   6.258
   274G12c C00Y 4933   1.663   5.932   6.153
   274G12c H006 4934   1.636   5.834   6.117
   274G12c C00X 4935   1.587   6.048   6.115
   274G12c O003 4936   1.499   6.025   6.012
   274G12c C01B 4937   1.450   6.128   5.931
   274G12c H009 4938   1.411   6.085   5.839
   274G12c H008 4939   1.536   6.190   5.904
   274G12c H007 4940   1.371   6.186   5.978
   274G12c C00W 4941   1.606   6.171   6.178
   274G12c O004 4942   1.542   6.280   6.126
   274G12c C01C 4943   1.531   6.384   6.211
   274G12c H00A 4944   1.482   6.474   6.175
   274G12c C00P 4945   1.610   6.397   6.337
   274G12c C00O 4946   1.567   6.497   6.431
   274G12c C01D 4947   1.431   0.024   6.432
   274G12c H00S 4948   1.375   0.005   6.342
   274G12c C01E 4949   1.365   0.087   6.539
   274G12c O008 4950   1.230   0.118   6.541
   274G12c C01V 4951   1.145   0.020   6.499
   274G12c C01Z 4952   1.048   0.072   6.398
   274G12c H00R 4953   0.977   6.512   6.382
   274G12c H00Q 4954   1.000   0.162   6.435
   274G12c O009 4955   1.135   0.099   6.285
   274G12c H00P 4956   1.208   0.145   6.323
   274G12c C01W 4957   1.148   6.410   6.546
   274G12c H00O 4958   1.215   6.383   6.626
   274G12c C01X 4959   1.059   6.293   6.513
   274G12c H00N 4960   0.991   6.262   6.593
   274G12c H00M 4961   0.982   6.323   6.441
   274G12c C01Y 4962   1.137   6.167   6.464
   274G12c C02D 4963   1.155   6.147   6.322
   274G12c H019 4964   1.117   6.219   6.251
   274G12c C02C 4965   1.222   6.029   6.279
   274G12c H01A 4966   1.237   6.012   6.173
   274G12c C02B 4967   1.264   5.931   6.373
   274G12c O00E 4968   1.329   5.819   6.336
   274G12c H01B 4969   1.349   5.777   6.419
   274G12c C02F 4970   1.247   5.955   6.510
   274G12c O00F 4971   1.301   5.857   6.596
   274G12c C02G 4972   1.326   5.912   6.729
   274G12c H017 4973   1.231   5.926   6.781
   274G12c H016 4974   1.391   5.999   6.733
   274G12c H015 4975   1.373   5.836   6.792
   274G12c C02E 4976   1.179   6.070   6.557
   274G12c H018 4977   1.169   6.090   6.663
   274G12c C01F 4978   1.446   0.126   6.649
   274G12c C01G 4979   1.406   0.148   6.788
   274G12c H00L 4980   1.301   0.145   6.817
   274G12c C01H 4981   1.502   0.154   6.893
   274G12c H00B 4982   1.456   0.164   6.990
   274G12c C01I 4983   1.638   0.137   6.866
   274G12c C01U 4984   1.590   0.117   6.638
   274G12c C00S 4985   1.906   6.210   6.458
   274G12c C00K 4986   1.950   6.350   6.629
   274G12c C00N 4987   1.639   0.025   6.541
   274G12c C000 4988   1.688   0.144   6.734
   274G12c C01J 4989   1.753   0.090   6.935
   274G12c C01K 4990   1.755   0.063   7.075
   274G12c C01P 4991   1.689   0.138   7.179
   274G12c C01Q 4992   1.627   0.268   7.151
   274G12c H00G 4993   1.670   0.341   7.084
   274G12c C01R 4994   1.513   0.302   7.211
   274G12c H00F 4995   1.461   0.228   7.272
   274G12c C01S 4996   1.452   0.442   7.180
   274G12c H00E 4997   1.536   0.511   7.179
   274G12c H00D 4998   1.402   0.452   7.084
   274G12c O005 4999   1.380   0.492   7.293
   274G12c H00C 5000   1.317   0.548   7.248
   274G12c C01O 5001   1.704   0.097   7.316
   274G12c H00H 5002   1.672   0.168   7.392
   274G12c C01N 5003   1.757   6.495   7.353
   274G12c O006 5004   1.760   6.451   7.488
   274G12c C01T 5005   1.734   0.025   7.590
   274G12c H00K 5006   1.632   0.059   7.576
   274G12c H00J 5007   1.799   0.109   7.565
   274G12c H00I 5008   1.748   6.504   7.689
   274G12c C01M 5009   1.818   6.419   7.251
   274G12c C020 5010   1.978   6.347   6.774
   274G12c C021 5011   2.055   6.251   6.840
   274G12c C01L 5012   1.828   6.467   7.113
   274G12c O007 5013   1.859   6.292   7.290
   274G12c C022 5014   2.038   6.207   6.973
   274G12c C023 5015   2.081   6.126   6.779
   274G12c C00G 5016   2.050   5.877   6.665
   274G12c C00E 5017   2.068   5.633   6.680
   274G12c O00A 5018   2.034   5.506   6.635
   274G12c C024 5019   1.896   5.479   6.655
   274G12c H00V 5020   1.868   5.488   6.760
   274G12c H00U 5021   1.862   5.379   6.629
   274G12c H00T 5022   1.842   5.546   6.588
   284G12c C00D 5023   1.131   4.359   7.303
   284G12c O00B 5024   1.229   4.406   7.396
   284G12c C025 5025   1.314   4.318   7.450
   284G12c C026 5026   1.267   4.265   7.584
   284G12c H00Y 5027   1.338   4.211   7.647
   284G12c H00X 5028   1.172   4.215   7.571
   284G12c O00C 5029   1.231   4.380   7.656
   284G12c H00W 5030   1.269   4.458   7.619
   284G12c C027 5031   1.434   4.298   7.398
   284G12c O00D 5032   1.476   4.377   7.294
   284G12c H00Z 5033   1.394   4.421   7.275
   284G12c C028 5034   1.522   4.197   7.451
   284G12c C029 5035   1.665   4.222   7.454
   284G12c H010 5036   1.695   4.319   7.418
   284G12c C02T 5037   1.762   4.127   7.490
   284G12c H01O 5038   1.867   4.153   7.484
   284G12c C02S 5039   1.715   4.001   7.535
   284G12c O00J 5040   1.803   3.902   7.557
   284G12c H01P 5041   1.747   3.837   7.596
   284G12c C02R 5042   1.577   3.972   7.533
   284G12c O00I 5043   1.546   3.841   7.577
   284G12c C02Q 5044   1.412   3.791   7.576
   284G12c H01N 5045   1.358   3.801   7.482
   284G12c H01R 5046   1.357   3.853   7.648
   284G12c H01Q 5047   1.400   3.686   7.599
   284G12c C02A 5048   1.482   4.066   7.490
   284G12c H011 5049   1.378   4.038   7.488
   284G12c C00C 5050   1.038   4.452   7.264
   284G12c H012 5051   1.050   4.554   7.298
   284G12c C00B 5052   0.940   4.438   7.166
   284G12c C00A 5053   0.866   4.537   7.095
   284G12c C009 5054   0.823   4.667   7.138
   284G12c C008 5055   0.823   4.739   7.260
   284G12c H013 5056   0.893   4.723   7.340
   284G12c C007 5057   0.717   4.834   7.284
   284G12c H014 5058   0.712   4.902   7.368
   284G12c C006 5059   0.609   4.844   7.195
   284G12c C005 5060   0.612   4.775   7.073
   284G12c C004 5061   0.503   4.769   6.983
   284G12c C003 5062   0.499   4.670   6.881
   284G12c C002 5063   0.373   4.657   6.808
   284G12c C001 5064   0.321   4.560   6.716
   284G12c C00M 5065   0.338   4.414   6.734
   284G12c C00L 5066   0.464   4.358   6.771
   284G12c C00R 5067   0.485   4.221   6.811
   284G12c C00Q 5068   0.394   4.110   6.835
   284G12c C00V 5069   0.462   3.998   6.887
   284G12c C00U 5070   0.589   3.997   6.943
   284G12c C00T 5071   0.663   4.115   6.942
   284G12c C016 5072   0.777   4.144   7.013
   284G12c C015 5073   0.830   4.043   7.082
   284G12c C010 5074   0.773   3.917   7.072
   284G12c C011 5075   0.828   3.804   7.141
   284G12c H005 5076   0.797   3.705   7.111
   284G12c C012 5077   0.928   3.822   7.234
   284G12c C017 5078   0.979   3.707   7.306
   284G12c O002 5079   1.122   3.693   7.306
   284G12c H004 5080   1.144   3.617   7.357
   284G12c C018 5081   0.897   3.612   7.356
   284G12c O001 5082   0.760   3.625   7.365
   284G12c H003 5083   0.726   3.547   7.405
   284G12c C019 5084   0.955   3.486   7.427
   284G12c H002 5085   0.954   3.515   7.532
   284G12c H001 5086   0.892   3.397   7.417
   284G12c O000 5087   1.086   3.460   7.394
   284G12c C01A 5088   1.163   3.384   7.477
   284G12c C02K 5089   1.307   3.399   7.480
   284G12c O00G 5090   1.359   3.496   7.398
   284G12c C02M 5091   1.506   3.528   7.390
   284G12c H01G 5092   1.536   3.554   7.491
   284G12c H01F 5093   1.526   3.612   7.323
   284G12c H01E 5094   1.566   3.442   7.359
   284G12c C02J 5095   1.378   3.315   7.566
   284G12c H01H 5096   1.484   3.331   7.577
   284G12c C02I 5097   1.320   3.223   7.653
   284G12c C02N 5098   1.402   3.146   7.744
   284G12c H01M 5099   1.497   3.105   7.714
   284G12c C02O 5100   1.361   3.125   7.874
   284G12c H01L 5101   1.268   3.170   7.904
   284G12c C02P 5102   1.432   3.051   7.982
   284G12c H01K 5103   1.373   3.035   8.072
   284G12c H01J 5104   1.452   2.950   7.946
   284G12c O00H 5105   1.555   3.111   8.014
   284G12c H01I 5106   1.552   3.163   8.093
   284G12c C02H 5107   1.179   3.219   7.653
   284G12c H01C 5108   1.131   3.166   7.734
   284G12c C02L 5109   1.103   3.296   7.570
   284G12c H01D 5110   0.998   3.269   7.579
   284G12c C013 5111   0.981   3.955   7.243
   284G12c H000 5112   1.062   3.958   7.314
   284G12c C014 5113   0.942   4.063   7.164
   284G12c C00F 5114   0.987   4.196   7.180
   284G12c C00H 5115   0.828   4.280   7.023
   284G12c C00I 5116   0.770   4.379   6.945
   284G12c C00J 5117   0.669   4.341   6.860
   284G12c C00Z 5118   0.650   3.894   7.006
   284G12c C00Y 5119   0.571   3.776   7.012
   284G12c H006 5120   0.605   3.689   7.065
   284G12c C00X 5121   0.448   3.765   6.951
   284G12c O003 5122   0.385   3.647   6.953
   284G12c C01B 5123   0.403   3.583   6.827
   284G12c H009 5124   0.373   3.649   6.746
   284G12c H008 5125   0.339   3.495   6.824
   284G12c H007 5126   0.502   3.538   6.814
   284G12c C00W 5127   0.392   3.880   6.891
   284G12c O004 5128   0.268   3.862   6.841
   284G12c C01C 5129   0.191   3.975   6.827
   284G12c H00A 5130   0.088   3.958   6.802
   284G12c C00P 5131   0.256   4.104   6.817
   284G12c C00O 5132   0.174   4.221   6.791
   284G12c C01D 5133   0.037   4.207   6.813
   284G12c H00S 5134   6.513   4.114   6.846
   284G12c C01E 5135   6.469   4.315   6.829
   284G12c O008 5136   6.334   4.304   6.869
   284G12c C01V 5137   6.308   4.201   6.961
   284G12c C01Z 5138   6.185   4.118   6.914
   284G12c H00R 5139   6.196   4.112   6.805
   284G12c H00Q 5140   6.193   4.016   6.951
   284G12c O009 5141   6.062   4.170   6.945
   284G12c H00P 5142   6.018   4.217   6.875
   284G12c C01W 5143   6.381   4.178   7.075
   284G12c H00O 5144   6.459   4.248   7.102
   284G12c C01X 5145   6.347   4.080   7.187
   284G12c H00N 5146   6.323   4.143   7.273
   284G12c H00M 5147   6.263   4.013   7.172
   284G12c C01Y 5148   6.468   3.997   7.220
   284G12c C02D 5149   6.496   3.876   7.151
   284G12c H019 5150   6.427   3.845   7.074
   284G12c C02C 5151   0.097   3.809   7.171
   284G12c H01A 5152   0.128   3.731   7.105
   284G12c C02B 5153   0.192   3.865   7.262
   284G12c O00E 5154   0.308   3.797   7.280
   284G12c H01B 5155   0.368   3.853   7.328
   284G12c C02F 5156   0.163   3.982   7.334
   284G12c O00F 5157   0.266   4.031   7.416
   284G12c C02G 5158   0.263   4.158   7.465
   284G12c H017 5159   0.196   4.162   7.551
   284G12c H016 5160   0.225   4.237   7.401
   284G12c H015 5161   0.365   4.194   7.479
   284G12c C02E 5162   0.036   4.049   7.314
   284G12c H018 5163   0.005   4.132   7.375
   284G12c C01F 5164   6.511   4.444   6.801
   284G12c C01G 5165   6.446   4.568   6.842
   284G12c H00L 5166   6.355   4.552   6.899
   284G12c C01H 5167   0.009   4.686   6.851
   284G12c H00B 5168   6.499   4.759   6.925
   284G12c C01I 5169   0.140   4.691   6.800
   284G12c C01U 5170   0.117   4.455   6.739
   284G12c C00S 5171   0.618   4.214   6.860
   284G12c C00K 5172   0.570   4.433   6.818
   284G12c C00N 5173   0.211   4.353   6.753
   284G12c C000 5174   0.176   4.582   6.713
   284G12c C01J 5175   0.270   4.752   6.837
   284G12c C01K 5176   0.274   4.855   6.935
   284G12c C01P 5177   0.177   4.961   6.966
   284G12c C01Q 5178   0.079   4.992   6.863
   284G12c H00G 5179   6.498   4.958   6.863
   284G12c C01R 5180   0.115   5.068   6.757
   284G12c H00F 5181   0.201   5.133   6.753
   284G12c C01S 5182   0.018   5.097   6.640
   284G12c H00E 5183   6.446   5.043   6.656
   284G12c H00D 5184   6.517   5.203   6.638
   284G12c O005 5185   0.068   5.058   6.513
   284G12c H00C 5186   0.006   5.085   6.447
   284G12c C01O 5187   0.182   5.035   7.086
   284G12c H00H 5188   0.099   5.101   7.110
   284G12c C01N 5189   0.293   5.020   7.165
   284G12c O006 5190   0.315   5.082   7.290
   284G12c C01T 5191   0.223   5.181   7.332
   284G12c H00K 5192   0.214   5.264   7.262
   284G12c H00J 5193   0.249   5.213   7.432
   284G12c H00I 5194   0.121   5.144   7.342
   284G12c C01M 5195   0.398   4.933   7.127
   284G12c C020 5196   0.596   4.569   6.866
   284G12c C021 5197   0.715   4.606   6.928
   284G12c C01L 5198   0.391   4.847   7.013
   284G12c O007 5199   0.502   4.929   7.216
   284G12c C022 5200   0.725   4.698   7.035
   284G12c C023 5201   0.804   4.511   6.977
   284G12c C00G 5202   0.914   4.302   7.125
   284G12c C00E 5203   1.112   4.226   7.251
   284G12c O00A 5204   1.199   4.122   7.282
   284G12c C024 5205   1.295   4.088   7.182
   284G12c H00V 5206   1.353   4.176   7.152
   284G12c H00U 5207   1.259   4.033   7.096
   284G12c H00T 5208   1.369   4.020   7.224
   294G12c C00D 5209   4.582   4.789   8.849
   294G12c O00B 5210   4.678   4.687   8.869
   294G12c C025 5211   4.686   4.636   8.994
   294G12c C026 5212   4.632   4.492   9.007
   294G12c H00Y 5213   4.543   4.471   8.948
   294G12c H00X 5214   4.610   4.460   9.109
   294G12c O00C 5215   4.742   4.409   8.970
   294G12c H00W 5216   4.742   4.330   9.023
   294G12c C027 5217   4.742   4.719   9.090
   294G12c O00D 5218   4.792   4.839   9.060
   294G12c H00Z 5219   4.794   4.860   8.968
   294G12c C028 5220   4.745   4.673   9.227
   294G12c C029 5221   4.805   4.554   9.263
   294G12c H010 5222   4.861   4.500   9.189
   294G12c C02T 5223   4.825   4.517   9.398
   294G12c H01O 5224   4.883   4.430   9.423
   294G12c C02S 5225   4.773   4.604   9.496
   294G12c O00J 5226   4.778   4.568   9.626
   294G12c H01P 5227   4.766   4.630   9.696
   294G12c C02R 5228   4.699   4.722   9.464
   294G12c O00I 5229   4.648   4.800   9.562
   294G12c C02Q 5230   4.601   4.932   9.523
   294G12c H01N 5231   4.678   5.007   9.501
   294G12c H01R 5232   4.537   4.976   9.600
   294G12c H01Q 5233   4.529   4.928   9.442
   294G12c C02A 5234   4.698   4.756   9.327
   294G12c H011 5235   4.658   4.849   9.290
   294G12c C00C 5236   4.452   4.756   8.867
   294G12c H012 5237   4.430   4.655   8.898
   294G12c C00B 5238   4.355   4.855   8.855
   294G12c C00A 5239   4.211   4.839   8.876
   294G12c C009 5240   4.128   4.717   8.896
   294G12c C008 5241   4.143   4.571   8.898
   294G12c H013 5242   4.239   4.526   8.916
   294G12c C007 5243   4.027   4.499   8.878
   294G12c H014 5244   4.038   4.393   8.891
   294G12c C006 5245   3.908   4.556   8.832
   294G12c C005 5246   3.898   4.697   8.836
   294G12c C004 5247   3.794   4.765   8.775
   294G12c C003 5248   3.794   4.903   8.753
   294G12c C002 5249   3.683   4.953   8.677
   294G12c C001 5250   3.645   5.085   8.635
   294G12c C00M 5251   3.742   5.175   8.574
   294G12c C00L 5252   3.867   5.202   8.633
   294G12c C00R 5253   3.982   5.258   8.571
   294G12c C00Q 5254   3.998   5.325   8.441
   294G12c C00V 5255   4.133   5.373   8.418
   294G12c C00U 5256   4.243   5.332   8.493
   294G12c C00T 5257   4.225   5.247   8.602
   294G12c C016 5258   4.324   5.177   8.672
   294G12c C015 5259   4.456   5.205   8.640
   294G12c C010 5260   4.480   5.301   8.541
   294G12c C011 5261   4.621   5.334   8.515
   294G12c H005 5262   4.652   5.417   8.453
   294G12c C012 5263   4.730   5.275   8.583
   294G12c C017 5264   4.868   5.301   8.557
   294G12c O002 5265   4.960   5.309   8.662
   294G12c H004 5266   5.030   5.353   8.616
   294G12c C018 5267   4.920   5.315   8.435
   294G12c O001 5268   4.839   5.299   8.325
   294G12c H003 5269   4.764   5.246   8.349
   294G12c C019 5270   5.065   5.343   8.401
   294G12c H002 5271   5.113   5.246   8.390
   294G12c H001 5272   5.087   5.385   8.303
   294G12c O000 5273   5.153   5.411   8.495
   294G12c C01A 5274   5.141   5.550   8.494
   294G12c C02K 5275   5.221   5.614   8.590
   294G12c O00G 5276   5.318   5.535   8.653
   294G12c C02M 5277   5.402   5.604   8.747
   294G12c H01G 5278   5.458   5.680   8.692
   294G12c H01F 5279   5.471   5.534   8.792
   294G12c H01E 5280   5.342   5.647   8.828
   294G12c C02J 5281   5.215   5.753   8.597
   294G12c H01H 5282   5.275   5.807   8.668
   294G12c C02I 5283   5.140   5.829   8.505
   294G12c C02N 5284   5.129   5.972   8.506
   294G12c H01M 5285   5.033   6.018   8.489
   294G12c C02O 5286   5.236   6.048   8.521
   294G12c H01L 5287   5.330   5.998   8.537
   294G12c C02P 5288   5.232   6.202   8.518
   294G12c H01K 5289   5.147   6.229   8.455
   294G12c H01J 5290   5.229   6.237   8.621
   294G12c O00H 5291   5.351   6.253   8.466
   294G12c H01I 5292   5.347   6.346   8.482
   294G12c C02H 5293   5.051   5.760   8.417
   294G12c H01C 5294   4.995   5.809   8.339
   294G12c C02L 5295   5.053   5.618   8.411
   294G12c H01D 5296   4.983   5.559   8.352
   294G12c C013 5297   4.690   5.175   8.671
   294G12c H000 5298   4.782   5.135   8.712
   294G12c C014 5299   4.554   5.134   8.706
   294G12c C00F 5300   4.520   5.019   8.776
   294G12c C00H 5301   4.292   5.073   8.766
   294G12c C00I 5302   4.157   5.062   8.804
   294G12c C00J 5303   4.062   5.149   8.750
   294G12c C00Z 5304   4.380   5.364   8.467
   294G12c C00Y 5305   4.403   5.458   8.362
   294G12c H006 5306   4.500   5.480   8.320
   294G12c C00X 5307   4.288   5.511   8.288
   294G12c O003 5308   4.311   5.586   8.180
   294G12c C01B 5309   4.296   5.728   8.205
   294G12c H009 5310   4.192   5.742   8.232
   294G12c H008 5311   4.309   5.793   8.118
   294G12c H007 5312   4.361   5.768   8.283
   294G12c C00W 5313   4.157   5.458   8.310
   294G12c O004 5314   4.059   5.506   8.234
   294G12c C01C 5315   3.941   5.431   8.225
   294G12c H00A 5316   3.878   5.456   8.140
   294G12c C00P 5317   3.895   5.343   8.334
   294G12c C00O 5318   3.764   5.281   8.333
   294G12c C01D 5319   3.690   5.277   8.212
   294G12c H00S 5320   3.719   5.336   8.127
   294G12c C01E 5321   3.575   5.196   8.189
   294G12c O008 5322   3.504   5.193   8.078
   294G12c C01V 5323   3.375   5.246   8.091
   294G12c C01Z 5324   3.273   5.158   8.017
   294G12c H00R 5325   3.219   5.225   7.950
   294G12c H00Q 5326   3.323   5.083   7.955
   294G12c O009 5327   3.192   5.079   8.092
   294G12c H00P 5328   3.218   5.085   8.183
   294G12c C01W 5329   3.347   5.357   8.168
   294G12c H00O 5330   3.430   5.407   8.216
   294G12c C01X 5331   3.209   5.417   8.177
   294G12c H00N 5332   3.136   5.358   8.122
   294G12c H00M 5333   3.184   5.425   8.283
   294G12c C01Y 5334   3.211   5.558   8.115
   294G12c C02D 5335   3.203   5.570   7.976
   294G12c H019 5336   3.200   5.479   7.917
   294G12c C02C 5337   3.220   5.692   7.909
   294G12c H01A 5338   3.232   5.691   7.802
   294G12c C02B 5339   3.229   5.811   7.982
   294G12c O00E 5340   3.235   5.933   7.917
   294G12c H01B 5341   3.209   6.005   7.973
   294G12c C02F 5342   3.225   5.810   8.124
   294G12c O00F 5343   3.225   5.925   8.195
   294G12c C02G 5344   3.187   5.918   8.329
   294G12c H017 5345   3.096   5.859   8.333
   294G12c H016 5346   3.175   6.022   8.361
   294G12c H015 5347   3.259   5.865   8.391
   294G12c C02E 5348   3.213   5.679   8.188
   294G12c H018 5349   3.216   5.675   8.296
   294G12c C01F 5350   3.536   5.106   8.295
   294G12c C01G 5351   3.456   4.987   8.284
   294G12c H00L 5352   3.436   4.948   8.186
   294G12c C01H 5353   3.469   4.889   8.386
   294G12c H00B 5354   3.445   4.793   8.344
   294G12c C01I 5355   3.520   4.931   8.512
   294G12c C01U 5356   3.579   5.139   8.427
   294G12c C00S 5357   4.093   5.226   8.643
   294G12c C00K 5358   3.925   5.111   8.732
   294G12c C00N 5359   3.701   5.210   8.441
   294G12c C000 5360   3.544   5.067   8.541
   294G12c C01J 5361   3.584   4.864   8.629
   294G12c C01K 5362   3.580   4.723   8.655
   294G12c C01P 5363   3.473   4.635   8.622
   294G12c C01Q 5364   3.354   4.695   8.582
   294G12c H00G 5365   3.323   4.789   8.626
   294G12c C01R 5366   3.271   4.643   8.494
   294G12c H00F 5367   3.295   4.548   8.449
   294G12c C01S 5368   3.132   4.696   8.471
   294G12c H00E 5369   3.066   4.609   8.477
   294G12c H00D 5370   3.097   4.772   8.541
   294G12c O005 5371   3.130   4.758   8.347
   294G12c H00C 5372   3.184   4.834   8.359
   294G12c C01O 5373   3.481   4.498   8.656
   294G12c H00H 5374   3.399   4.436   8.623
   294G12c C01N 5375   3.589   4.453   8.723
   294G12c O006 5376   3.606   4.324   8.761
   294G12c C01T 5377   3.491   4.251   8.791
   294G12c H00K 5378   3.441   4.225   8.698
   294G12c H00J 5379   3.422   4.308   8.853
   294G12c H00I 5380   3.526   4.163   8.846
   294G12c C01M 5381   3.697   4.539   8.748
   294G12c C020 5382   3.905   4.981   8.794
   294G12c C021 5383   3.996   4.911   8.879
   294G12c C01L 5384   3.691   4.679   8.729
   294G12c O007 5385   3.805   4.479   8.812
   294G12c C022 5386   3.999   4.775   8.887
   294G12c C023 5387   4.128   4.950   8.885
   294G12c C00G 5388   4.386   4.986   8.805
   294G12c C00E 5389   4.617   4.915   8.804
   294G12c O00A 5390   4.753   4.939   8.796
   294G12c C024 5391   4.812   4.891   8.673
   294G12c H00V 5392   4.917   4.905   8.696
   294G12c H00U 5393   4.781   4.952   8.588
   294G12c H00T 5394   4.788   4.788   8.647
   304G12c C00D 5395   1.677   4.440   3.003
   304G12c O00B 5396   1.601   4.433   2.886
   304G12c C025 5397   1.628   4.344   2.785
   304G12c C026 5398   1.678   4.414   2.655
   304G12c H00Y 5399   1.718   4.355   2.573
   304G12c H00X 5400   1.776   4.452   2.682
   304G12c O00C 5401   1.594   4.515   2.606
   304G12c H00W 5402   1.640   4.574   2.549
   304G12c C027 5403   1.628   4.206   2.804
   304G12c O00D 5404   1.606   4.159   2.930
   304G12c H00Z 5405   1.611   4.234   2.987
   304G12c C028 5406   1.645   4.113   2.696
   304G12c C029 5407   1.724   3.998   2.710
   304G12c H010 5408   1.772   3.976   2.804
   304G12c C02T 5409   1.730   3.905   2.604
   304G12c H01O 5410   1.783   3.811   2.616
   304G12c C02S 5411   1.670   3.937   2.485
   304G12c O00J 5412   1.682   3.853   2.375
   304G12c H01P 5413   1.625   3.877   2.304
   304G12c C02R 5414   1.592   4.053   2.464
   304G12c O00I 5415   1.542   4.070   2.332
   304G12c C02Q 5416   1.449   4.183   2.310
   304G12c H01N 5417   1.351   4.139   2.332
   304G12c H01R 5418   1.436   4.193   2.203
   304G12c H01Q 5419   1.465   4.274   2.367
   304G12c C02A 5420   1.576   4.135   2.575
   304G12c H011 5421   1.514   4.223   2.572
   304G12c C00C 5422   1.807   4.389   3.009
   304G12c H012 5423   1.853   4.339   2.925
   304G12c C00B 5424   1.897   4.420   3.114
   304G12c C00A 5425   2.040   4.389   3.124
   304G12c C009 5426   2.110   4.275   3.067
   304G12c C008 5427   2.084   4.184   2.965
   304G12c H013 5428   2.004   4.196   2.893
   304G12c C007 5429   2.163   4.066   2.958
   304G12c H014 5430   2.152   3.991   2.881
   304G12c C006 5431   2.261   4.039   3.063
   304G12c C005 5432   2.288   4.142   3.156
   304G12c C004 5433   2.359   4.116   3.273
   304G12c C003 5434   2.359   4.212   3.380
   304G12c C002 5435   2.418   4.172   3.503
   304G12c C001 5436   2.442   4.242   3.624
   304G12c C00M 5437   2.335   4.308   3.697
   304G12c C00L 5438   2.251   4.401   3.634
   304G12c C00R 5439   2.133   4.450   3.699
   304G12c C00Q 5440   2.068   4.433   3.827
   304G12c C00V 5441   1.939   4.493   3.834
   304G12c C00U 5442   1.865   4.527   3.718
   304G12c C00T 5443   1.924   4.520   3.594
   304G12c C016 5444   1.857   4.529   3.469
   304G12c C015 5445   1.721   4.557   3.475
   304G12c C010 5446   1.661   4.588   3.602
   304G12c C011 5447   1.534   4.649   3.605
   304G12c H005 5448   1.493   4.680   3.700
   304G12c C012 5449   1.464   4.679   3.485
   304G12c C017 5450   1.346   4.767   3.487
   304G12c O002 5451   1.341   4.857   3.587
   304G12c H004 5452   1.279   4.926   3.568
   304G12c C018 5453   1.246   4.768   3.397
   304G12c O001 5454   1.242   4.683   3.292
   304G12c H003 5455   1.154   4.678   3.257
   304G12c C019 5456   1.137   4.865   3.394
   304G12c H002 5457   1.076   4.874   3.305
   304G12c H001 5458   1.060   4.843   3.467
   304G12c O000 5459   1.190   5.003   3.413
   304G12c C01A 5460   1.100   5.093   3.467
   304G12c C02K 5461   1.148   5.166   3.581
   304G12c O00G 5462   1.267   5.132   3.634
   304G12c C02M 5463   1.308   5.175   3.762
   304G12c H01G 5464   1.227   5.145   3.828
   304G12c H01F 5465   1.329   5.281   3.750
   304G12c H01E 5466   1.405   5.131   3.787
   304G12c C02J 5467   1.062   5.262   3.637
   304G12c H01H 5468   1.090   5.326   3.719
   304G12c C02I 5469   0.936   5.297   3.582
   304G12c C02N 5470   0.844   5.396   3.631
   304G12c H01M 5471   0.740   5.376   3.609
   304G12c C02O 5472   0.892   5.498   3.701
   304G12c H01L 5473   0.995   5.522   3.723
   304G12c C02P 5474   0.801   5.611   3.748
   304G12c H01K 5475   0.711   5.568   3.793
   304G12c H01J 5476   0.852   5.675   3.819
   304G12c O00H 5477   0.752   5.688   3.639
   304G12c H01I 5478   0.705   5.760   3.678
   304G12c C02H 5479   0.891   5.217   3.476
   304G12c H01C 5480   0.789   5.234   3.445
   304G12c C02L 5481   0.968   5.111   3.417
   304G12c H01D 5482   0.918   5.063   3.334
   304G12c C013 5483   1.529   4.652   3.362
   304G12c H000 5484   1.480   4.675   3.269
   304G12c C014 5485   1.651   4.578   3.355
   304G12c C00F 5486   1.711   4.533   3.236
   304G12c C00H 5487   1.922   4.505   3.350
   304G12c C00I 5488   2.060   4.488   3.345
   304G12c C00J 5489   2.123   4.492   3.474
   304G12c C00Z 5490   1.731   4.577   3.719
   304G12c C00Y 5491   1.667   4.585   3.847
   304G12c H006 5492   1.563   4.605   3.867
   304G12c C00X 5493   1.740   4.555   3.962
   304G12c O003 5494   1.676   4.575   4.080
   304G12c C01B 5495   1.612   4.457   4.126
   304G12c H009 5496   1.689   4.385   4.155
   304G12c H008 5497   1.547   4.409   4.053
   304G12c H007 5498   1.555   4.480   4.217
   304G12c C00W 5499   1.871   4.498   3.957
   304G12c O004 5500   1.930   4.460   4.076
   304G12c C01C 5501   2.044   4.385   4.073
   304G12c H00A 5502   2.085   4.355   4.169
   304G12c C00P 5503   2.119   4.364   3.946
   304G12c C00O 5504   2.220   4.264   3.932
   304G12c C01D 5505   2.223   4.157   4.031
   304G12c H00S 5506   2.158   4.157   4.117
   304G12c C01E 5507   2.296   4.036   4.014
   304G12c O008 5508   2.288   3.930   4.095
   304G12c C01V 5509   2.174   3.902   4.157
   304G12c C01Z 5510   2.191   3.873   4.310
   304G12c H00R 5511   2.271   3.934   4.352
   304G12c H00Q 5512   2.108   3.901   4.374
   304G12c O009 5513   2.237   3.742   4.326
   304G12c H00P 5514   2.176   3.690   4.275
   304G12c C01W 5515   2.059   3.866   4.087
   304G12c H00O 5516   2.062   3.878   3.980
   304G12c C01X 5517   1.927   3.818   4.145
   304G12c H00N 5518   1.871   3.761   4.072
   304G12c H00M 5519   1.942   3.743   4.223
   304G12c C01Y 5520   1.829   3.916   4.195
   304G12c C02D 5521   1.866   4.046   4.215
   304G12c H019 5522   1.966   4.081   4.192
   304G12c C02C 5523   1.779   4.139   4.275
   304G12c H01A 5524   1.804   4.242   4.295
   304G12c C02B 5525   1.644   4.102   4.285
   304G12c O00E 5526   1.543   4.189   4.310
   304G12c H01B 5527   1.480   4.144   4.364
   304G12c C02F 5528   1.603   3.971   4.270
   304G12c O00F 5529   1.469   3.935   4.283
   304G12c C02G 5530   1.432   3.803   4.300
   304G12c H017 5531   1.453   3.759   4.202
   304G12c H016 5532   1.326   3.782   4.310
   304G12c H015 5533   1.495   3.758   4.378
   304G12c C02E 5534   1.696   3.875   4.221
   304G12c H018 5535   1.672   3.772   4.197
   304G12c C01F 5536   2.376   4.021   3.904
   304G12c C01G 5537   2.427   3.900   3.853
   304G12c H00L 5538   2.425   3.806   3.907
   304G12c C01H 5539   2.486   3.897   3.719
   304G12c H00B 5540   2.515   3.799   3.685
   304G12c C01I 5541   2.504   4.014   3.645
   304G12c C01U 5542   2.404   4.132   3.825
   304G12c C00S 5543   2.057   4.497   3.595
   304G12c C00K 5544   2.234   4.406   3.490
   304G12c C00N 5545   2.315   4.244   3.827
   304G12c C000 5546   2.486   4.136   3.710
   304G12c C01J 5547   2.485   4.049   3.505
   304G12c C01K 5548   2.491   3.954   3.396
   304G12c C01P 5549   2.564   3.832   3.390
   304G12c C01Q 5550   2.670   3.813   3.486
   304G12c H00G 5551   2.717   3.907   3.512
   304G12c C01R 5552   2.702   3.694   3.540
   304G12c H00F 5553   2.657   3.599   3.517
   304G12c C01S 5554   2.810   3.682   3.645
   304G12c H00E 5555   2.892   3.622   3.607
   304G12c H00D 5556   2.844   3.780   3.677
   304G12c O005 5557   2.767   3.622   3.767
   304G12c H00C 5558   2.731   3.685   3.828
   304G12c C01O 5559   2.544   3.738   3.293
   304G12c H00H 5560   2.604   3.649   3.300
   304G12c C01N 5561   2.460   3.772   3.190
   304G12c O006 5562   2.424   3.686   3.087
   304G12c C01T 5563   2.503   3.572   3.069
   304G12c H00K 5564   2.609   3.595   3.060
   304G12c H00J 5565   2.488   3.528   2.971
   304G12c H00I 5566   2.492   3.502   3.152
   304G12c C01M 5567   2.400   3.897   3.182
   304G12c C020 5568   2.281   4.338   3.374
   304G12c C021 5569   2.235   4.365   3.242
   304G12c C01L 5570   2.419   3.993   3.284
   304G12c O007 5571   2.321   3.917   3.073
   304G12c C022 5572   2.224   4.266   3.148
   304G12c C023 5573   2.120   4.452   3.224
   304G12c C00G 5574   1.847   4.488   3.229
   304G12c C00E 5575   1.628   4.508   3.116
   304G12c O00A 5576   1.494   4.539   3.098
   304G12c C024 5577   1.408   4.439   3.137
   304G12c H00V 5578   1.425   4.400   3.237
   304G12c H00U 5579   1.402   4.355   3.067
   304G12c H00T 5580   1.310   4.487   3.137
   314G12c C00D 5581   5.935   0.493   6.359
   314G12c O00B 5582   6.014   0.531   6.466
   314G12c C025 5583   5.958   0.605   6.570
   314G12c C026 5584   6.016   0.746   6.591
   314G12c H00Y 5585   6.123   0.731   6.573
   314G12c H00X 5586   6.008   0.776   6.696
   314G12c O00C 5587   5.953   0.841   6.506
   314G12c H00W 5588   5.973   0.928   6.535
   314G12c C027 5589   5.878   0.538   6.655
   314G12c O00D 5590   5.869   0.401   6.653
   314G12c H00Z 5591   5.924   0.372   6.582
   314G12c C028 5592   5.824   0.606   6.766
   314G12c C029 5593   5.873   0.586   6.896
   314G12c H010 5594   5.943   0.509   6.926
   314G12c C02T 5595   5.817   0.652   7.008
   314G12c H01O 5596   5.857   0.617   7.101
   314G12c C02S 5597   5.717   0.749   6.985
   314G12c O00J 5598   5.663   0.817   7.083
   314G12c H01P 5599   5.626   0.885   7.028
   314G12c C02R 5600   5.670   0.778   6.857
   314G12c O00I 5601   5.573   0.869   6.847
   314G12c C02Q 5602   5.507   0.898   6.723
   314G12c H01N 5603   5.574   0.897   6.637
   314G12c H01R 5604   5.454   0.993   6.716
   314G12c H01Q 5605   5.440   0.813   6.706
   314G12c C02A 5606   5.725   0.708   6.749
   314G12c H011 5607   5.691   0.726   6.648
   314G12c C00C 5608   5.899   0.592   6.273
   314G12c H012 5609   5.927   0.696   6.286
   314G12c C00B 5610   5.814   0.575   6.162
   314G12c C00A 5611   5.757   0.676   6.074
   314G12c C009 5612   5.713   0.804   6.113
   314G12c C008 5613   5.726   0.883   6.230
   314G12c H013 5614   5.808   0.868   6.299
   314G12c C007 5615   5.635   0.995   6.251
   314G12c H014 5616   5.641   1.065   6.333
   314G12c C006 5617   5.534   1.017   6.153
   314G12c C005 5618   5.524   0.936   6.046
   314G12c C004 5619   5.407   0.931   5.970
   314G12c C003 5620   5.387   0.830   5.871
   314G12c C002 5621   5.254   0.819   5.817
   314G12c C001 5622   5.179   0.717   5.740
   314G12c C00M 5623   5.182   0.581   5.783
   314G12c C00L 5624   5.300   0.508   5.814
   314G12c C00R 5625   5.303   0.374   5.867
   314G12c C00Q 5626   5.200   0.285   5.907
   314G12c C00V 5627   5.248   0.170   5.981
   314G12c C00U 5628   5.378   0.165   6.029
   314G12c C00T 5629   5.472   0.266   6.002
   314G12c C016 5630   5.593   0.286   6.059
   314G12c C015 5631   5.637   0.185   6.138
   314G12c C010 5632   5.558   0.066   6.152
   314G12c C011 5633   5.618   6.476   6.217
   314G12c H005 5634   5.565   6.382   6.223
   314G12c C012 5635   5.741   6.478   6.278
   314G12c C017 5636   5.796   6.357   6.340
   314G12c O002 5637   5.721   6.303   6.440
   314G12c H004 5638   5.638   6.347   6.445
   314G12c C018 5639   5.921   6.314   6.308
   314G12c O001 5640   5.990   6.370   6.206
   314G12c H003 5641   6.083   6.360   6.223
   314G12c C019 5642   5.989   6.200   6.376
   314G12c H002 5643   5.927   6.164   6.458
   314G12c H001 5644   6.003   6.115   6.309
   314G12c O000 5645   6.114   6.252   6.421
   314G12c C01A 5646   6.222   6.174   6.370
   314G12c C02K 5647   6.294   6.214   6.255
   314G12c O00G 5648   6.254   6.341   6.209
   314G12c C02M 5649   6.309   6.391   6.090
   314G12c H01G 5650   6.265   6.488   6.065
   314G12c H01F 5651   6.279   6.329   6.006
   314G12c H01E 5652   6.418   6.397   6.100
   314G12c C02J 5653   6.401   6.136   6.203
   314G12c H01H 5654   6.458   6.175   6.120
   314G12c C02I 5655   6.425   6.006   6.261
   314G12c C02N 5656   0.002   5.913   6.205
   314G12c H01M 5657   0.087   5.950   6.149
   314G12c C02O 5658   6.512   5.777   6.213
   314G12c H01L 5659   6.441   5.721   6.271
   314G12c C02P 5660   0.083   5.676   6.143
   314G12c H01K 5661   0.023   5.593   6.105
   314G12c H01J 5662   0.130   5.715   6.053
   314G12c O00H 5663   0.178   5.625   6.235
   314G12c H01I 5664   0.249   5.686   6.250
   314G12c C02H 5665   6.350   5.967   6.380
   314G12c H01C 5666   6.365   5.870   6.426
   314G12c C02L 5667   6.249   6.051   6.430
   314G12c H01D 5668   6.206   6.022   6.525
   314G12c C013 5669   5.811   0.079   6.269
   314G12c H000 5670   5.906   0.081   6.321
   314G12c C014 5671   5.756   0.200   6.208
   314G12c C00F 5672   5.810   0.328   6.224
   314G12c C00H 5673   5.669   0.407   6.047
   314G12c C00I 5674   5.625   0.506   5.955
   314G12c C00J 5675   5.506   0.471   5.887
   314G12c C00Z 5676   5.423   0.062   6.104
   314G12c C00Y 5677   5.329   6.477   6.146
   314G12c H006 5678   5.364   6.407   6.220
   314G12c C00X 5679   5.194   6.484   6.104
   314G12c O003 5680   5.095   6.392   6.135
   314G12c C01B 5681   5.120   6.323   6.256
   314G12c H009 5682   5.143   6.384   6.343
   314G12c H008 5683   5.192   6.243   6.241
   314G12c H007 5684   5.026   6.275   6.282
   314G12c C00W 5685   5.152   0.071   6.029
   314G12c O004 5686   5.020   0.077   5.997
   314G12c C01C 5687   4.980   0.179   5.907
   314G12c H00A 5688   4.881   0.163   5.868
   314G12c C00P 5689   5.061   0.296   5.883
   314G12c C00O 5690   4.987   0.415   5.849
   314G12c C01D 5691   4.846   0.417   5.863
   314G12c H00S 5692   4.781   0.332   5.877
   314G12c C01E 5693   4.774   0.540   5.874
   314G12c O008 5694   4.645   0.552   5.910
   314G12c C01V 5695   4.589   0.449   5.978
   314G12c C01Z 5696   4.491   0.359   5.891
   314G12c H00R 5697   4.388   0.378   5.921
   314G12c H00Q 5698   4.491   0.388   5.786
   314G12c O009 5699   4.534   0.224   5.906
   314G12c H00P 5700   4.552   0.199   5.817
   314G12c C01W 5701   4.621   0.433   6.111
   314G12c H00O 5702   4.687   0.504   6.159
   314G12c C01X 5703   4.567   0.328   6.203
   314G12c H00N 5704   4.516   0.241   6.162
   314G12c H00M 5705   4.656   0.286   6.249
   314G12c C01Y 5706   4.465   0.384   6.307
   314G12c C02D 5707   4.496   0.383   6.447
   314G12c H019 5708   4.592   0.345   6.480
   314G12c C02C 5709   4.390   0.413   6.543
   314G12c H01A 5710   4.405   0.399   6.649
   314G12c C02B 5711   4.264   0.469   6.499
   314G12c O00E 5712   4.166   0.487   6.591
   314G12c H01B 5713   4.088   0.515   6.546
   314G12c C02F 5714   4.235   0.473   6.360
   314G12c O00F 5715   4.107   0.504   6.329
   314G12c C02G 5716   4.075   0.530   6.200
   314G12c H017 5717   4.082   0.456   6.121
   314G12c H016 5718   4.123   0.625   6.179
   314G12c H015 5719   3.968   0.547   6.185
   314G12c C02E 5720   4.335   0.438   6.271
   314G12c H018 5721   4.308   0.419   6.169
   314G12c C01F 5722   4.842   0.657   5.836
   314G12c C01G 5723   4.798   0.788   5.877
   314G12c H00L 5724   4.696   0.800   5.912
   314G12c C01H 5725   4.898   0.895   5.867
   314G12c H00B 5726   4.882   0.993   5.909
   314G12c C01I 5727   5.024   0.872   5.806
   314G12c C01U 5728   4.964   0.650   5.771
   314G12c C00S 5729   5.435   0.358   5.910
   314G12c C00K 5730   5.416   0.574   5.850
   314G12c C00N 5731   5.046   0.536   5.805
   314G12c C000 5732   5.042   0.757   5.727
   314G12c C01J 5733   5.159   0.917   5.844
   314G12c C01K 5734   5.187   1.041   5.918
   314G12c C01P 5735   5.109   1.163   5.929
   314G12c C01Q 5736   5.011   1.190   5.820
   314G12c H00G 5737   5.013   1.134   5.728
   314G12c C01R 5738   4.912   1.279   5.834
   314G12c H00F 5739   4.901   1.339   5.923
   314G12c C01S 5740   4.803   1.312   5.737
   314G12c H00E 5741   4.799   1.265   5.639
   314G12c H00D 5742   4.713   1.278   5.788
   314G12c O005 5743   4.807   1.453   5.723
   314G12c H00C 5744   4.865   1.466   5.649
   314G12c C01O 5745   5.146   1.268   6.021
   314G12c H00H 5746   5.081   1.352   6.042
   314G12c C01N 5747   5.257   1.247   6.107
   314G12c O006 5748   5.294   1.336   6.210
   314G12c C01T 5749   5.202   1.443   6.248
   314G12c H00K 5750   5.224   1.530   6.187
   314G12c H00J 5751   5.223   1.471   6.351
   314G12c H00I 5752   5.095   1.420   6.246
   314G12c C01M 5753   5.337   1.135   6.086
   314G12c C020 5754   5.468   0.712   5.867
   314G12c C021 5755   5.598   0.741   5.918
   314G12c C01L 5756   5.313   1.031   5.988
   314G12c O007 5757   5.443   1.118   6.172
   314G12c C022 5758   5.620   0.835   6.011
   314G12c C023 5759   5.678   0.635   5.966
   314G12c C00G 5760   5.766   0.436   6.142
   314G12c C00E 5761   5.894   0.360   6.335
   314G12c O00A 5762   5.941   0.269   6.426
   314G12c C024 5763   6.077   0.246   6.423
   314G12c H00V 5764   6.099   0.180   6.339
   314G12c H00U 5765   6.112   0.190   6.509
   314G12c H00T 5766   6.139   0.333   6.400
   324G12c C00D 5767   4.907   0.448   9.044
   324G12c O00B 5768   4.936   0.436   9.181
   324G12c C025 5769   5.031   0.345   9.214
   324G12c C026 5770   4.986   0.199   9.210
   324G12c H00Y 5771   5.002   0.168   9.107
   324G12c H00X 5772   4.877   0.196   9.218
   324G12c O00C 5773   5.035   0.115   9.310
   324G12c H00W 5774   5.063   0.168   9.383
   324G12c C027 5775   5.142   0.399   9.265
   324G12c O00D 5776   5.150   0.529   9.288
   324G12c H00Z 5777   5.108   0.578   9.219
   324G12c C028 5778   5.257   0.317   9.305
   324G12c C029 5779   5.329   0.339   9.425
   324G12c H010 5780   5.301   0.423   9.487
   324G12c C02T 5781   5.447   0.270   9.458
   324G12c H01O 5782   5.502   0.293   9.549
   324G12c C02S 5783   5.485   0.160   9.376
   324G12c O00J 5784   5.591   0.074   9.410
   324G12c H01P 5785   5.614   0.014   9.342
   324G12c C02R 5786   5.418   0.130   9.255
   324G12c O00I 5787   5.465   0.023   9.185
   324G12c C02Q 5788   5.408   6.503   9.066
   324G12c H01N 5789   5.418   0.071   9.003
   324G12c H01R 5790   5.303   6.476   9.077
   324G12c H01Q 5791   5.451   6.417   9.015
   324G12c C02A 5792   5.306   0.210   9.223
   324G12c H011 5793   5.247   0.183   9.137
   324G12c C00C 5794   4.814   0.364   8.984
   324G12c H012 5795   4.771   0.286   9.044
   324G12c C00B 5796   4.778   0.380   8.848
   324G12c C00A 5797   4.680   0.308   8.773
   324G12c C009 5798   4.633   0.165   8.781
   324G12c C008 5799   4.657   0.057   8.872
   324G12c H013 5800   4.700   0.077   8.969
   324G12c C007 5801   4.624   6.446   8.821
   324G12c H014 5802   4.662   6.368   8.885
   324G12c C006 5803   4.579   6.426   8.692
   324G12c C005 5804   4.550   0.016   8.607
   324G12c C004 5805   4.526   0.006   8.471
   324G12c C003 5806   4.528   0.123   8.392
   324G12c C002 5807   4.516   0.095   8.251
   324G12c C001 5808   4.549   0.172   8.132
   324G12c C00M 5809   4.644   0.281   8.118
   324G12c C00L 5810   4.660   0.386   8.217
   324G12c C00R 5811   4.775   0.471   8.222
   324G12c C00Q 5812   4.884   0.501   8.133
   324G12c C00V 5813   4.977   0.592   8.195
   324G12c C00U 5814   4.977   0.638   8.327
   324G12c C00T 5815   4.883   0.590   8.415
   324G12c C016 5816   4.900   0.585   8.554
   324G12c C015 5817   5.007   0.656   8.608
   324G12c C010 5818   5.085   0.732   8.521
   324G12c C011 5819   5.183   0.813   8.585
   324G12c H005 5820   5.245   0.875   8.522
   324G12c C012 5821   5.203   0.823   8.722
   324G12c C017 5822   5.306   0.915   8.766
   324G12c O002 5823   5.410   0.932   8.681
   324G12c H004 5824   5.413   0.872   8.608
   324G12c C018 5825   5.297   0.977   8.885
   324G12c O001 5826   5.194   0.963   8.969
   324G12c H003 5827   5.223   0.978   9.058
   324G12c C019 5828   5.409   1.066   8.931
   324G12c H002 5829   5.421   1.128   8.842
   324G12c H001 5830   5.392   1.128   9.018
   324G12c O000 5831   5.523   0.984   8.957
   324G12c C01A 5832   5.645   1.046   8.964
   324G12c C02K 5833   5.752   0.961   9.001
   324G12c O00G 5834   5.720   0.837   9.051
   324G12c C02M 5835   5.828   0.761   9.108
   324G12c H01G 5836   5.886   0.807   9.188
   324G12c H01F 5837   5.892   0.729   9.026
   324G12c H01E 5838   5.785   0.667   9.145
   324G12c C02J 5839   5.890   1.006   8.990
   324G12c H01H 5840   5.970   0.938   9.019
   324G12c C02I 5841   5.918   1.139   8.949
   324G12c C02N 5842   6.049   1.193   8.940
   324G12c H01M 5843   6.061   1.300   8.945
   324G12c C02O 5844   6.156   1.115   8.924
   324G12c H01L 5845   6.151   1.008   8.921
   324G12c C02P 5846   6.290   1.168   8.909
   324G12c H01K 5847   6.350   1.117   8.833
   324G12c H01J 5848   6.295   1.276   8.893
   324G12c O00H 5849   6.361   1.129   9.023
   324G12c H01I 5850   6.374   1.036   9.020
   324G12c C02H 5851   5.811   1.226   8.935
   324G12c H01C 5852   5.832   1.328   8.909
   324G12c C02L 5853   5.679   1.182   8.920
   324G12c H01D 5854   5.615   1.263   8.888
   324G12c C013 5855   5.136   0.727   8.797
   324G12c H000 5856   5.176   0.718   8.897
   324G12c C014 5857   5.030   0.646   8.748
   324G12c C00F 5858   4.949   0.559   8.830
   324G12c C00H 5859   4.813   0.510   8.634
   324G12c C00I 5860   4.705   0.446   8.576
   324G12c C00J 5861   4.688   0.453   8.434
   324G12c C00Z 5862   5.074   0.721   8.378
   324G12c C00Y 5863   5.169   0.774   8.288
   324G12c H006 5864   5.252   0.838   8.314
   324G12c C00X 5865   5.171   0.733   8.157
   324G12c O003 5866   5.270   0.778   8.072
   324G12c C01B 5867   5.315   0.911   8.088
   324G12c H009 5868   5.401   0.919   8.154
   324G12c H008 5869   5.239   0.986   8.110
   324G12c H007 5870   5.350   0.929   7.986
   324G12c C00W 5871   5.078   0.636   8.109
   324G12c O004 5872   5.106   0.588   7.980
   324G12c C01C 5873   5.029   0.481   7.936
   324G12c H00A 5874   5.027   0.454   7.831
   324G12c C00P 5875   4.927   0.421   8.020
   324G12c C00O 5876   4.875   0.290   7.986
   324G12c C01D 5877   4.950   0.202   7.900
   324G12c H00S 5878   5.040   0.240   7.855
   324G12c C01E 5879   4.922   0.065   7.876
   324G12c O008 5880   5.012   6.508   7.803
   324G12c C01V 5881   5.148   0.013   7.803
   324G12c C01Z 5882   5.224   6.426   7.872
   324G12c H00R 5883   5.190   6.331   7.831
   324G12c H00Q 5884   5.333   6.429   7.861
   324G12c O009 5885   5.182   6.431   8.007
   324G12c H00P 5886   5.088   6.429   8.017
   324G12c C01W 5887   5.201   0.109   7.726
   324G12c H00O 5888   5.126   0.169   7.677
   324G12c C01X 5889   5.347   0.139   7.711
   324G12c H00N 5890   5.410   0.055   7.741
   324G12c H00M 5891   5.367   0.168   7.608
   324G12c C01Y 5892   5.391   0.258   7.794
   324G12c C02D 5893   5.489   0.349   7.744
   324G12c H019 5894   5.526   0.325   7.646
   324G12c C02C 5895   5.503   0.474   7.815
   324G12c H01A 5896   5.555   0.557   7.771
   324G12c C02B 5897   5.442   0.490   7.940
   324G12c O00E 5898   5.462   0.611   7.998
   324G12c H01B 5899   5.392   0.658   8.041
   324G12c C02F 5900   5.369   0.392   7.996
   324G12c O00F 5901   5.309   0.415   8.119
   324G12c C02G 5902   5.239   0.310   8.184
   324G12c H017 5903   5.133   0.319   8.162
   324G12c H016 5904   5.253   0.319   8.292
   324G12c H015 5905   5.283   0.211   8.170
   324G12c C02E 5906   5.338   0.276   7.922
   324G12c H018 5907   5.277   0.197   7.964
   324G12c C01F 5908   4.800   0.016   7.925
   324G12c C01G 5909   4.768   6.400   7.937
   324G12c H00L 5910   4.835   6.320   7.910
   324G12c C01H 5911   4.653   6.365   8.020
   324G12c H00B 5912   4.648   6.261   8.051
   324G12c C01I 5913   4.567   6.464   8.078
   324G12c C01U 5914   4.698   0.110   7.981
   324G12c C00S 5915   4.782   0.512   8.355
   324G12c C00K 5916   4.620   0.357   8.356
   324G12c C00N 5917   4.747   0.237   8.024
   324G12c C000 5918   4.576   0.077   8.029
   324G12c C01J 5919   4.504   6.480   8.205
   324G12c C01K 5920   4.475   6.365   8.289
   324G12c C01P 5921   4.436   6.229   8.251
   324G12c C01Q 5922   4.390   6.209   8.115
   324G12c H00G 5923   4.354   6.290   8.053
   324G12c C01R 5924   4.391   6.090   8.050
   324G12c H00F 5925   4.430   6.002   8.099
   324G12c C01S 5926   4.330   6.061   7.917
   324G12c H00E 5927   4.360   6.118   7.829
   324G12c H00D 5928   4.338   5.953   7.909
   324G12c O005 5929   4.192   6.097   7.924
   324G12c H00C 5930   4.193   6.189   7.945
   324G12c C01O 5931   4.437   6.124   8.347
   324G12c H00H 5932   4.417   6.023   8.315
   324G12c C01N 5933   4.477   6.153   8.478
   324G12c O006 5934   4.499   6.057   8.578
   324G12c C01T 5935   4.494   5.922   8.532
   324G12c H00K 5936   4.515   5.866   8.624
   324G12c H00J 5937   4.572   5.898   8.460
   324G12c H00I 5938   4.398   5.888   8.492
   324G12c C01M 5939   4.510   6.285   8.514
   324G12c C020 5940   4.562   0.253   8.439
   324G12c C021 5941   4.560   0.256   8.577
   324G12c C01L 5942   4.495   6.395   8.425
   324G12c O007 5943   4.554   6.301   8.643
   324G12c C022 5944   4.569   0.146   8.657
   324G12c C023 5945   4.636   0.355   8.650
   324G12c C00G 5946   4.840   0.483   8.773
   324G12c C00E 5947   4.971   0.548   8.969
   324G12c O00A 5948   5.061   0.626   9.045
   324G12c C024 5949   4.993   0.734   9.107
   324G12c H00V 5950   5.068   0.792   9.162
   324G12c H00U 5951   4.919   0.709   9.182
   324G12c H00T 5952   4.955   0.811   9.040
   334G12c C00D 5953   0.667   3.144   3.324
   334G12c O00B 5954   0.598   3.262   3.316
   334G12c C025 5955   0.662   3.361   3.239
   334G12c C026 5956   0.757   3.435   3.328
   334G12c H00Y 5957   0.823   3.495   3.266
   334G12c H00X 5958   0.813   3.358   3.382
   334G12c O00C 5959   0.676   3.522   3.406
   334G12c H00W 5960   0.626   3.463   3.460
   334G12c C027 5961   0.630   3.384   3.112
   334G12c O00D 5962   0.546   3.302   3.050
   334G12c H00Z 5963   0.506   3.254   3.121
   334G12c C028 5964   0.687   3.494   3.039
   334G12c C029 5965   0.694   3.625   3.090
   334G12c H010 5966   0.661   3.644   3.191
   334G12c C02T 5967   0.731   3.736   3.004
   334G12c H01O 5968   0.721   3.835   3.046
   334G12c C02S 5969   0.777   3.716   2.872
   334G12c O00J 5970   0.829   3.814   2.797
   334G12c H01P 5971   0.865   3.775   2.719
   334G12c C02R 5972   0.788   3.583   2.828
   334G12c O00I 5973   0.833   3.565   2.695
   334G12c C02Q 5974   0.850   3.433   2.649
   334G12c H01N 5975   0.908   3.370   2.716
   334G12c H01R 5976   0.892   3.441   2.548
   334G12c H01Q 5977   0.757   3.377   2.646
   334G12c C02A 5978   0.745   3.477   2.912
   334G12c H011 5979   0.749   3.376   2.874
   334G12c C00C 5980   0.777   3.109   3.245
   334G12c H012 5981   0.812   3.177   3.169
   334G12c C00B 5982   0.851   2.989   3.254
   334G12c C00A 5983   0.958   2.937   3.163
   334G12c C009 5984   0.962   2.955   3.021
   334G12c C008 5985   0.888   3.032   2.928
   334G12c H013 5986   0.836   3.120   2.964
   334G12c C007 5987   0.884   2.985   2.790
   334G12c H014 5988   0.840   3.049   2.715
   334G12c C006 5989   0.946   2.868   2.742
   334G12c C005 5990   1.024   2.798   2.836
   334G12c C004 5991   1.055   2.667   2.814
   334G12c C003 5992   1.092   2.581   2.921
   334G12c C002 5993   1.114   2.438   2.888
   334G12c C001 5994   1.132   2.324   2.969
   334G12c C00M 5995   1.057   2.298   3.089
   334G12c C00L 5996   1.036   2.392   3.188
   334G12c C00R 5997   0.954   2.373   3.303
   334G12c C00Q 5998   0.865   2.266   3.348
   334G12c C00V 5999   0.793   2.300   3.465
   334G12c C00U 6000   0.769   2.435   3.506
   334G12c C00T 6001   0.836   2.537   3.448
   334G12c C016 6002   0.806   2.671   3.457
   334G12c C015 6003   0.707   2.705   3.546
   334G12c C010 6004   0.644   2.608   3.625
   334G12c C011 6005   0.557   2.650   3.726
   334G12c H005 6006   0.510   2.585   3.798
   334G12c C012 6007   0.537   2.790   3.751
   334G12c C017 6008   0.458   2.830   3.873
   334G12c O002 6009   0.343   2.763   3.904
   334G12c H004 6010   0.310   2.819   3.972
   334G12c C018 6011   0.504   2.940   3.942
   334G12c O001 6012   0.619   3.006   3.916
   334G12c H003 6013   0.609   3.095   3.947
   334G12c C019 6014   0.433   3.014   4.056
   334G12c H002 6015   0.503   3.051   4.130
   334G12c H001 6016   0.372   3.094   4.014
   334G12c O000 6017   0.325   2.935   4.115
   334G12c C01A 6018   0.361   2.868   4.233
   334G12c C02K 6019   0.258   2.860   4.329
   334G12c O00G 6020   0.129   2.913   4.301
   334G12c C02M 6021   0.058   2.954   4.415
   334G12c H01G 6022   6.500   3.027   4.397
   334G12c H01F 6023   0.121   2.997   4.493
   334G12c H01E 6024   0.014   2.863   4.455
   334G12c C02J 6025   0.297   2.807   4.457
   334G12c H01H 6026   0.217   2.805   4.530
   334G12c C02I 6027   0.422   2.745   4.483
   334G12c C02N 6028   0.461   2.682   4.605
   334G12c H01M 6029   0.560   2.640   4.617
   334G12c C02O 6030   0.387   2.681   4.715
   334G12c H01L 6031   0.284   2.714   4.723
   334G12c C02P 6032   0.446   2.634   4.849
   334G12c H01K 6033   0.388   2.572   4.917
   334G12c H01J 6034   0.536   2.572   4.850
   334G12c O00H 6035   0.457   2.760   4.904
   334G12c H01I 6036   0.383   2.808   4.870
   334G12c C02H 6037   0.518   2.747   4.375
   334G12c H01C 6038   0.618   2.710   4.389
   334G12c C02L 6039   0.492   2.819   4.257
   334G12c H01D 6040   0.570   2.831   4.184
   334G12c C013 6041   0.587   2.880   3.656
   334G12c H000 6042   0.572   2.987   3.663
   334G12c C014 6043   0.667   2.837   3.547
   334G12c C00F 6044   0.701   2.926   3.440
   334G12c C00H 6045   0.871   2.770   3.377
   334G12c C00I 6046   0.974   2.730   3.286
   334G12c C00J 6047   1.015   2.593   3.295
   334G12c C00Z 6048   0.671   2.469   3.598
   334G12c C00Y 6049   0.604   2.364   3.668
   334G12c H006 6050   0.533   2.392   3.745
   334G12c C00X 6051   0.632   2.231   3.634
   334G12c O003 6052   0.566   2.135   3.716
   334G12c C01B 6053   0.622   2.005   3.726
   334G12c H009 6054   0.727   1.996   3.753
   334G12c H008 6055   0.607   1.951   3.633
   334G12c H007 6056   0.576   1.939   3.799
   334G12c C00W 6057   0.721   2.199   3.533
   334G12c O004 6058   0.743   2.068   3.497
   334G12c C01C 6059   0.766   2.042   3.367
   334G12c H00A 6060   0.739   1.946   3.326
   334G12c C00P 6061   0.841   2.141   3.288
   334G12c C00O 6062   0.883   2.112   3.152
   334G12c C01D 6063   0.814   2.014   3.080
   334G12c H00S 6064   0.733   1.962   3.129
   334G12c C01E 6065   0.826   1.990   2.945
   334G12c O008 6066   0.744   1.903   2.880
   334G12c C01V 6067   0.719   1.777   2.932
   334G12c C01Z 6068   0.571   1.749   2.950
   334G12c H00R 6069   0.567   1.692   3.043
   334G12c H00Q 6070   0.519   1.843   2.971
   334G12c O009 6071   0.531   1.670   2.842
   334G12c H00P 6072   0.550   1.580   2.865
   334G12c C01W 6073   0.816   1.699   2.990
   334G12c H00O 6074   0.919   1.730   2.974
   334G12c C01X 6075   0.803   1.565   3.054
   334G12c H00N 6076   0.712   1.516   3.019
   334G12c H00M 6077   0.878   1.488   3.038
   334G12c C01Y 6078   0.807   1.586   3.206
   334G12c C02D 6079   0.897   1.678   3.268
   334G12c H019 6080   0.990   1.718   3.230
   334G12c C02C 6081   0.873   1.697   3.405
   334G12c H01A 6082   0.940   1.770   3.449
   334G12c C02B 6083   0.771   1.639   3.477
   334G12c O00E 6084   0.755   1.661   3.612
   334G12c H01B 6085   0.681   1.611   3.644
   334G12c C02F 6086   0.681   1.552   3.415
   334G12c O00F 6087   0.575   1.503   3.499
   334G12c C02G 6088   0.479   1.429   3.435
   334G12c H017 6089   0.521   1.337   3.395
   334G12c H016 6090   0.435   1.488   3.355
   334G12c H015 6091   0.391   1.410   3.498
   334G12c C02E 6092   0.701   1.523   3.277
   334G12c H018 6093   0.638   1.457   3.219
   334G12c C01F 6094   0.917   2.069   2.869
   334G12c C01G 6095   0.920   2.075   2.724
   334G12c H00L 6096   0.844   2.022   2.668
   334G12c C01H 6097   1.005   2.174   2.665
   334G12c H00B 6098   0.981   2.183   2.560
   334G12c C01I 6099   1.087   2.255   2.745
   334G12c C01U 6100   1.012   2.142   2.937
   334G12c C00S 6101   0.945   2.499   3.367
   334G12c C00K 6102   1.063   2.532   3.172
   334G12c C00N 6103   0.978   2.179   3.070
   334G12c C000 6104   1.112   2.215   2.878
   334G12c C01J 6105   1.104   2.398   2.749
   334G12c C01K 6106   1.073   2.487   2.638
   334G12c C01P 6107   1.079   2.450   2.502
   334G12c C01Q 6108   1.161   2.339   2.465
   334G12c H00G 6109   1.254   2.330   2.520
   334G12c C01R 6110   1.134   2.261   2.363
   334G12c H00F 6111   1.060   2.295   2.293
   334G12c C01S 6112   1.210   2.137   2.328
   334G12c H00E 6113   1.272   2.146   2.239
   334G12c H00D 6114   1.270   2.105   2.413
   334G12c O005 6115   1.119   2.035   2.296
   334G12c H00C 6116   1.121   2.020   2.203
   334G12c C01O 6117   1.011   2.528   2.405
   334G12c H00H 6118   1.020   2.501   2.301
   334G12c C01N 6119   0.958   2.657   2.445
   334G12c O006 6120   0.893   2.739   2.362
   334G12c C01T 6121   0.918   2.728   2.219
   334G12c H00K 6122   0.860   2.805   2.169
   334G12c H00J 6123   0.879   2.635   2.178
   334G12c H00I 6124   1.025   2.739   2.198
   334G12c C01M 6125   0.971   2.697   2.580
   334G12c C020 6126   1.088   2.625   3.059
   334G12c C021 6127   1.088   2.766   3.074
   334G12c C01L 6128   1.032   2.615   2.681
   334G12c O007 6129   0.930   2.828   2.613
   334G12c C022 6130   1.037   2.845   2.971
   334G12c C023 6131   1.022   2.818   3.192
   334G12c C00G 6132   0.811   2.896   3.360
   334G12c C00E 6133   0.627   3.051   3.419
   334G12c O00A 6134   0.505   3.075   3.478
   334G12c C024 6135   0.390   3.022   3.412
   334G12c H00V 6136   0.420   2.923   3.375
   334G12c H00U 6137   0.358   3.078   3.325
   334G12c H00T 6138   0.312   3.029   3.487
   344G12c C00D 6139   5.333   6.030   7.803
   344G12c O00B 6140   5.284   5.918   7.859
   344G12c C025 6141   5.204   5.943   7.968
   344G12c C026 6142   5.266   5.926   8.102
   344G12c H00Y 6143   5.234   5.998   8.177
   344G12c H00X 6144   5.372   5.946   8.091
   344G12c O00C 6145   5.243   5.791   8.124
   344G12c H00W 6146   5.199   5.761   8.046
   344G12c C027 6147   5.085   5.998   7.946
   344G12c O00D 6148   5.040   6.013   7.818
   344G12c H00Z 6149   5.094   5.949   7.774
   344G12c C028 6150   5.003   6.047   8.056
   344G12c C029 6151   5.029   6.168   8.116
   344G12c H010 6152   5.109   6.235   8.084
   344G12c C02T 6153   4.959   6.204   8.236
   344G12c H01O 6154   4.994   6.290   8.291
   344G12c C02S 6155   4.849   6.118   8.283
   344G12c O00J 6156   4.776   6.150   8.393
   344G12c H01P 6157   4.702   6.092   8.389
   344G12c C02R 6158   4.815   5.997   8.216
   344G12c O00I 6159   4.711   5.921   8.261
   344G12c C02Q 6160   4.660   5.828   8.172
   344G12c H01N 6161   4.629   5.882   8.082
   344G12c H01R 6162   4.573   5.774   8.209
   344G12c H01Q 6163   4.731   5.746   8.159
   344G12c C02A 6164   4.900   5.964   8.107
   344G12c H011 6165   4.880   5.869   8.059
   344G12c C00C 6166   5.414   6.120   7.869
   344G12c H012 6167   5.446   6.100   7.971
   344G12c C00B 6168   5.490   6.217   7.799
   344G12c C00A 6169   5.594   6.297   7.853
   344G12c C009 6170   5.596   6.354   7.982
   344G12c C008 6171   5.518   6.341   8.096
   344G12c H013 6172   5.444   6.263   8.110
   344G12c C007 6173   5.523   6.449   8.194
   344G12c H014 6174   5.457   6.443   8.279
   344G12c C006 6175   5.616   0.032   8.179
   344G12c C005 6176   5.680   0.042   8.057
   344G12c C004 6177   5.753   0.158   8.014
   344G12c C003 6178   5.796   0.165   7.876
   344G12c C002 6179   5.851   0.293   7.842
   344G12c C001 6180   5.904   0.343   7.718
   344G12c C00M 6181   5.836   0.329   7.587
   344G12c C00L 6182   5.776   0.202   7.548
   344G12c C00R 6183   5.673   0.188   7.455
   344G12c C00Q 6184   5.596   0.280   7.373
   344G12c C00V 6185   5.477   0.224   7.316
   344G12c C00U 6186   5.429   0.093   7.349
   344G12c C00T 6187   5.500   0.009   7.431
   344G12c C016 6188   5.457   6.409   7.482
   344G12c C015 6189   5.334   6.361   7.433
   344G12c C010 6190   5.261   6.439   7.337
   344G12c C011 6191   5.137   6.379   7.292
   344G12c H005 6192   5.084   6.422   7.208
   344G12c C012 6193   5.087   6.264   7.349
   344G12c C017 6194   4.961   6.213   7.312
   344G12c O002 6195   4.865   6.304   7.292
   344G12c H004 6196   4.789   6.252   7.269
   344G12c C018 6197   4.935   6.085   7.288
   344G12c O001 6198   5.032   5.988   7.296
   344G12c H003 6199   5.113   6.032   7.276
   344G12c C019 6200   4.798   6.029   7.257
   344G12c H002 6201   4.808   5.966   7.169
   344G12c H001 6202   4.766   5.966   7.340
   344G12c O000 6203   4.705   6.133   7.233
   344G12c C01A 6204   4.581   6.101   7.179
   344G12c C02K 6205   4.499   6.209   7.142
   344G12c O00G 6206   4.545   6.333   7.179
   344G12c C02M 6207   4.457   6.437   7.183
   344G12c H01G 6208   4.416   6.474   7.089
   344G12c H01F 6209   4.517   0.001   7.213
   344G12c H01E 6210   4.380   6.421   7.259
   344G12c C02J 6211   4.378   6.190   7.077
   344G12c H01H 6212   4.313   6.274   7.057
   344G12c C02I 6213   4.335   6.063   7.047
   344G12c C02N 6214   4.211   6.041   6.988
   344G12c H01M 6215   4.173   6.107   6.911
   344G12c C02O 6216   4.146   5.925   7.014
   344G12c H01L 6217   4.194   5.863   7.088
   344G12c C02P 6218   4.018   5.880   6.945
   344G12c H01K 6219   3.977   5.944   6.866
   344G12c H01J 6220   4.048   5.787   6.896
   344G12c O00H 6221   3.925   5.851   7.044
   344G12c H01I 6222   3.836   5.862   7.013
   344G12c C02H 6223   4.419   5.954   7.086
   344G12c H01C 6224   4.402   5.853   7.052
   344G12c C02L 6225   4.542   5.966   7.151
   344G12c H01D 6226   4.606   5.882   7.175
   344G12c C013 6227   5.155   6.205   7.456
   344G12c H000 6228   5.098   6.124   7.501
   344G12c C014 6229   5.286   6.246   7.495
   344G12c C00F 6230   5.344   6.187   7.607
   344G12c C00H 6231   5.524   6.352   7.591
   344G12c C00I 6232   5.646   6.398   7.641
   344G12c C00J 6233   5.698   6.512   7.571
   344G12c C00Z 6234   5.309   0.044   7.292
   344G12c C00Y 6235   5.246   0.115   7.194
   344G12c H006 6236   5.149   0.092   7.153
   344G12c C00X 6237   5.299   0.242   7.147
   344G12c O003 6238   5.244   0.328   7.055
   344G12c C01B 6239   5.119   0.293   6.983
   344G12c H009 6240   5.094   0.367   6.908
   344G12c H008 6241   5.038   0.276   7.054
   344G12c H007 6242   5.140   0.197   6.935
   344G12c C00W 6243   5.407   0.298   7.219
   344G12c O004 6244   5.440   0.423   7.189
   344G12c C01C 6245   5.558   0.475   7.239
   344G12c H00A 6246   5.600   0.562   7.191
   344G12c C00P 6247   5.625   0.418   7.352
   344G12c C00O 6248   5.703   0.501   7.440
   344G12c C01D 6249   5.662   0.638   7.446
   344G12c H00S 6250   5.583   0.676   7.382
   344G12c C01E 6251   5.689   0.716   7.559
   344G12c O008 6252   5.638   0.842   7.576
   344G12c C01V 6253   5.508   0.867   7.550
   344G12c C01Z 6254   5.482   0.986   7.463
   344G12c H00R 6255   5.545   0.970   7.376
   344G12c H00Q 6256   5.381   0.992   7.421
   344G12c O009 6257   5.521   1.106   7.534
   344G12c H00P 6258   5.466   1.180   7.514
   344G12c C01W 6259   5.406   0.798   7.612
   344G12c H00O 6260   5.426   0.710   7.671
   344G12c C01X 6261   5.256   0.821   7.602
   344G12c H00N 6262   5.219   0.825   7.705
   344G12c H00M 6263   5.223   0.917   7.561
   344G12c C01Y 6264   5.203   0.715   7.513
   344G12c C02D 6265   5.226   0.713   7.371
   344G12c H019 6266   5.285   0.793   7.328
   344G12c C02C 6267   5.180   0.612   7.293
   344G12c H01A 6268   5.180   0.623   7.185
   344G12c C02B 6269   5.105   0.507   7.351
   344G12c O00E 6270   5.042   0.430   7.258
   344G12c H01B 6271   5.072   0.449   7.170
   344G12c C02F 6272   5.077   0.500   7.490
   344G12c O00F 6273   4.997   0.408   7.557
   344G12c C02G 6274   4.926   0.323   7.478
   344G12c H017 6275   4.998   0.264   7.421
   344G12c H016 6276   4.863   0.363   7.399
   344G12c H015 6277   4.874   0.256   7.548
   344G12c C02E 6278   5.125   0.607   7.566
   344G12c H018 6279   5.116   0.613   7.674
   344G12c C01F 6280   5.766   0.660   7.662
   344G12c C01G 6281   5.766   0.716   7.792
   344G12c H00L 6282   5.708   0.806   7.808
   344G12c C01H 6283   5.826   0.641   7.896
   344G12c H00B 6284   5.810   0.680   7.995
   344G12c C01I 6285   5.886   0.519   7.871
   344G12c C01U 6286   5.838   0.545   7.640
   344G12c C00S 6287   5.624   0.057   7.468
   344G12c C00K 6288   5.779   0.087   7.636
   344G12c C00N 6289   5.793   0.457   7.539
   344G12c C000 6290   5.912   0.482   7.740
   344G12c C01J 6291   5.870   0.396   7.939
   344G12c C01K 6292   5.830   0.391   8.080
   344G12c C01P 6293   5.853   0.482   8.192
   344G12c C01Q 6294   5.949   0.598   8.181
   344G12c H00G 6295   6.022   0.601   8.101
   344G12c C01R 6296   5.947   0.700   8.272
   344G12c H00F 6297   5.871   0.699   8.349
   344G12c C01S 6298   6.037   0.825   8.264
   344G12c H00E 6299   6.113   0.827   8.342
   344G12c H00D 6300   6.095   0.822   8.171
   344G12c O005 6301   5.960   0.944   8.248
   344G12c H00C 6302   5.965   0.968   8.157
   344G12c C01O 6303   5.807   0.446   8.317
   344G12c H00H 6304   5.826   0.509   8.403
   344G12c C01N 6305   5.729   0.331   8.340
   344G12c O006 6306   5.682   0.301   8.466
   344G12c C01T 6307   5.658   0.418   8.549
   344G12c H00K 6308   5.604   0.382   8.637
   344G12c H00J 6309   5.598   0.493   8.499
   344G12c H00I 6310   5.752   0.457   8.587
   344G12c C01M 6311   5.711   0.243   8.233
   344G12c C020 6312   5.790   0.060   7.780
   344G12c C021 6313   5.755   6.462   7.847
   344G12c C01L 6314   5.765   0.269   8.106
   344G12c O007 6315   5.631   0.131   8.262
   344G12c C022 6316   5.691   6.455   7.971
   344G12c C023 6317   5.687   6.363   7.773
   344G12c C00G 6318   5.453   6.251   7.666
   344G12c C00E 6319   5.302   6.065   7.668
   344G12c O00A 6320   5.231   5.973   7.599
   344G12c C024 6321   5.311   5.901   7.509
   344G12c H00V 6322   5.257   5.824   7.453
   344G12c H00U 6323   5.392   5.847   7.557
   344G12c H00T 6324   5.365   5.971   7.447
   354G12c C00D 6325   1.448   0.821   7.469
   354G12c O00B 6326   1.340   0.894   7.424
   354G12c C025 6327   1.296   0.889   7.293
   354G12c C026 6328   1.381   0.974   7.194
   354G12c H00Y 6329   1.322   1.030   7.122
   354G12c H00X 6330   1.448   0.903   7.145
   354G12c O00C 6331   1.461   1.062   7.263
   354G12c H00W 6332   1.412   1.106   7.332
   354G12c C027 6333   1.191   0.819   7.247
   354G12c O00D 6334   1.112   0.757   7.341
   354G12c H00Z 6335   1.123   0.803   7.423
   354G12c C028 6336   1.170   0.804   7.103
   354G12c C029 6337   1.265   0.745   7.010
   354G12c H010 6338   1.360   0.695   7.027
   354G12c C02T 6339   1.231   0.740   6.874
   354G12c H01O 6340   1.292   0.688   6.801
   354G12c C02S 6341   1.111   0.784   6.827
   354G12c O00J 6342   1.068   0.779   6.704
   354G12c H01P 6343   1.007   0.852   6.706
   354G12c C02R 6344   1.011   0.832   6.915
   354G12c O00I 6345   0.892   0.884   6.863
   354G12c C02Q 6346   0.807   0.968   6.940
   354G12c H01N 6347   0.875   1.052   6.953
   354G12c H01R 6348   0.779   0.929   7.038
   354G12c H01Q 6349   0.715   1.001   6.892
   354G12c C02A 6350   1.042   0.846   7.052
   354G12c H011 6351   0.981   0.897   7.126
   354G12c C00C 6352   1.564   0.790   7.390
   354G12c H012 6353   1.581   0.828   7.290
   354G12c C00B 6354   1.673   0.718   7.439
   354G12c C00A 6355   1.803   0.701   7.373
   354G12c C009 6356   1.831   0.680   7.236
   354G12c C008 6357   1.760   0.706   7.118
   354G12c H013 6358   1.670   0.765   7.109
   354G12c C007 6359   1.809   0.633   6.999
   354G12c H014 6360   1.750   0.630   6.909
   354G12c C006 6361   1.916   0.543   7.002
   354G12c C005 6362   1.985   0.533   7.122
   354G12c C004 6363   2.064   0.419   7.145
   354G12c C003 6364   2.111   0.395   7.280
   354G12c C002 6365   2.190   0.276   7.295
   354G12c C001 6366   2.250   0.207   7.409
   354G12c C00M 6367   2.182   0.190   7.540
   354G12c C00L 6368   2.112   0.299   7.601
   354G12c C00R 6369   2.027   0.290   7.713
   354G12c C00Q 6370   1.994   0.177   7.794
   354G12c C00V 6371   1.879   0.201   7.882
   354G12c C00U 6372   1.799   0.314   7.880
   354G12c C00T 6373   1.824   0.406   7.783
   354G12c C016 6374   1.736   0.504   7.736
   354G12c C015 6375   1.624   0.528   7.816
   354G12c C010 6376   1.612   0.451   7.938
   354G12c C011 6377   1.504   0.493   8.026
   354G12c H005 6378   1.483   0.434   8.114
   354G12c C012 6379   1.432   0.615   8.008
   354G12c C017 6380   1.345   0.672   8.105
   354G12c O002 6381   1.223   0.728   8.065
   354G12c H004 6382   1.158   0.699   8.127
   354G12c C018 6383   1.370   0.666   8.240
   354G12c O001 6384   1.491   0.629   8.289
   354G12c H003 6385   1.555   0.650   8.223
   354G12c C019 6386   1.272   0.727   8.340
   354G12c H002 6387   1.309   0.732   8.442
   354G12c H001 6388   1.243   0.828   8.312
   354G12c O000 6389   1.162   0.644   8.359
   354G12c C01A 6390   1.028   0.700   8.355
   354G12c C02K 6391   0.937   0.610   8.415
   354G12c O00G 6392   0.981   0.499   8.486
   354G12c C02M 6393   0.883   0.406   8.535
   354G12c H01G 6394   0.937   0.321   8.577
   354G12c H01F 6395   0.823   0.378   8.449
   354G12c H01E 6396   0.821   0.438   8.618
   354G12c C02J 6397   0.798   0.647   8.409
   354G12c H01H 6398   0.718   0.584   8.445
   354G12c C02I 6399   0.754   0.772   8.360
   354G12c C02N 6400   0.618   0.817   8.366
   354G12c H01M 6401   0.594   0.920   8.388
   354G12c C02O 6402   0.524   0.722   8.366
   354G12c H01L 6403   0.549   0.618   8.356
   354G12c C02P 6404   0.371   0.741   8.391
   354G12c H01K 6405   0.323   0.699   8.303
   354G12c H01J 6406   0.349   0.679   8.478
   354G12c O00H 6407   0.342   0.877   8.400
   354G12c H01I 6408   0.335   0.901   8.309
   354G12c C02H 6409   0.851   0.859   8.303
   354G12c H01C 6410   0.828   0.956   8.261
   354G12c C02L 6411   0.987   0.828   8.298
   354G12c H01D 6412   1.051   0.906   8.259
   354G12c C013 6413   1.438   0.673   7.878
   354G12c H000 6414   1.384   0.764   7.858
   354G12c C014 6415   1.528   0.624   7.780
   354G12c C00F 6416   1.540   0.680   7.651
   354G12c C00H 6417   1.764   0.590   7.628
   354G12c C00I 6418   1.891   0.579   7.565
   354G12c C00J 6419   1.980   0.484   7.616
   354G12c C00Z 6420   1.688   0.335   7.958
   354G12c C00Y 6421   1.663   0.248   8.059
   354G12c H006 6422   1.576   0.258   8.123
   354G12c C00X 6423   1.723   0.121   8.057
   354G12c O003 6424   1.681   0.013   8.136
   354G12c C01B 6425   1.558   0.021   8.206
   354G12c H009 6426   1.477   0.037   8.135
   354G12c H008 6427   1.553   0.106   8.274
   354G12c H007 6428   1.536   6.448   8.255
   354G12c C00W 6429   1.834   0.099   7.973
   354G12c O004 6430   1.888   6.497   7.983
   354G12c C01C 6431   1.981   6.466   7.882
   354G12c H00A 6432   2.055   6.390   7.901
   354G12c C00P 6433   2.030   0.037   7.786
   354G12c C00O 6434   2.099   6.500   7.670
   354G12c C01D 6435   2.085   6.360   7.640
   354G12c H00S 6436   2.033   6.291   7.705
   354G12c C01E 6437   2.119   6.300   7.516
   354G12c O008 6438   2.105   6.165   7.494
   354G12c C01V 6439   2.068   6.082   7.589
   354G12c C01Z 6440   2.176   6.006   7.661
   354G12c H00R 6441   2.151   5.900   7.662
   354G12c H00Q 6442   2.273   6.008   7.610
   354G12c O009 6443   2.180   6.058   7.784
   354G12c H00P 6444   2.150   6.147   7.790
   354G12c C01W 6445   1.940   6.066   7.609
   354G12c H00O 6446   1.878   6.124   7.542
   354G12c C01X 6447   1.871   5.976   7.712
   354G12c H00N 6448   1.780   5.934   7.667
   354G12c H00M 6449   1.935   5.896   7.748
   354G12c C01Y 6450   1.841   6.059   7.839
   354G12c C02D 6451   1.897   6.030   7.962
   354G12c H019 6452   1.968   5.950   7.976
   354G12c C02C 6453   1.866   6.107   8.077
   354G12c H01A 6454   1.905   6.082   8.174
   354G12c C02B 6455   1.763   6.203   8.061
   354G12c O00E 6456   1.733   6.279   8.173
   354G12c H01B 6457   1.679   6.348   8.139
   354G12c C02F 6458   1.688   6.227   7.945
   354G12c O00F 6459   1.586   6.317   7.950
   354G12c C02G 6460   1.492   6.317   7.845
   354G12c H017 6461   1.414   6.390   7.869
   354G12c H016 6462   1.439   6.223   7.834
   354G12c H015 6463   1.523   6.347   7.744
   354G12c C02E 6464   1.740   6.160   7.834
   354G12c H018 6465   1.685   6.187   7.745
   354G12c C01F 6466   2.183   6.379   7.422
   354G12c C01G 6467   2.199   6.345   7.286
   354G12c H00L 6468   2.182   6.246   7.246
   354G12c C01H 6469   2.215   6.444   7.188
   354G12c H00B 6470   2.182   6.427   7.087
   354G12c C01I 6471   2.245   0.055   7.231
   354G12c C01U 6472   2.221   6.508   7.457
   354G12c C00S 6473   1.949   0.403   7.726
   354G12c C00K 6474   2.072   0.416   7.530
   354G12c C00N 6475   2.160   0.049   7.569
   354G12c C000 6476   2.277   0.073   7.368
   354G12c C01J 6477   2.211   0.186   7.183
   354G12c C01K 6478   2.165   0.212   7.050
   354G12c C01P 6479   2.204   0.149   6.928
   354G12c C01Q 6480   2.316   0.057   6.922
   354G12c H00G 6481   2.397   0.088   6.986
   354G12c C01R 6482   2.317   6.477   6.835
   354G12c H00F 6483   2.240   6.444   6.766
   354G12c C01S 6484   2.440   6.388   6.828
   354G12c H00E 6485   2.430   6.316   6.909
   354G12c H00D 6486   2.444   6.333   6.734
   354G12c O005 6487   2.562   6.454   6.865
   354G12c H00C 6488   2.562   6.475   6.957
   354G12c C01O 6489   2.151   0.186   6.802
   354G12c H00H 6490   2.193   0.145   6.711
   354G12c C01N 6491   2.062   0.299   6.797
   354G12c O006 6492   2.012   0.347   6.678
   354G12c C01T 6493   2.036   0.275   6.555
   354G12c H00K 6494   2.014   0.170   6.535
   354G12c H00J 6495   2.140   0.301   6.536
   354G12c H00I 6496   1.976   0.325   6.479
   354G12c C01M 6497   2.041   0.376   6.912
   354G12c C020 6498   2.081   0.475   7.393
   354G12c C021 6499   2.005   0.596   7.360
   354G12c C01L 6500   2.086   0.330   7.039
   354G12c O007 6501   1.957   0.485   6.887
   354G12c C022 6502   1.957   0.621   7.230
   354G12c C023 6503   1.905   0.642   7.444
   354G12c C00G 6504   1.662   0.670   7.575
   354G12c C00E 6505   1.435   0.762   7.597
   354G12c O00A 6506   1.306   0.759   7.650
   354G12c C024 6507   1.232   0.637   7.624
   354G12c H00V 6508   1.271   0.556   7.685
   354G12c H00U 6509   1.224   0.605   7.520
   354G12c H00T 6510   1.131   0.655   7.661
   364G12c C00D 6511   4.068   3.887   4.849
   364G12c O00B 6512   4.102   4.017   4.828
   364G12c C025 6513   4.237   4.036   4.804
   364G12c C026 6514   4.333   4.026   4.927
   364G12c H00Y 6515   4.429   4.077   4.914
   364G12c H00X 6516   4.353   3.923   4.955
   364G12c O00C 6517   4.276   4.080   5.044
   364G12c H00W 6518   4.347   4.085   5.106
   364G12c C027 6519   4.275   4.060   4.679
   364G12c O00D 6520   4.172   4.076   4.589
   364G12c H00Z 6521   4.102   4.014   4.606
   364G12c C028 6522   4.411   4.069   4.639
   364G12c C029 6523   4.453   4.180   4.568
   364G12c H010 6524   4.388   4.266   4.560
   364G12c C02T 6525   4.573   4.183   4.499
   364G12c H01O 6526   4.606   4.265   4.437
   364G12c C02S 6527   4.663   4.077   4.517
   364G12c O00J 6528   4.784   4.089   4.464
   364G12c H01P 6529   4.838   4.025   4.509
   364G12c C02R 6530   4.631   3.965   4.600
   364G12c O00I 6531   4.738   3.878   4.615
   364G12c C02Q 6532   4.729   3.750   4.684
   364G12c H01N 6533   4.664   3.746   4.772
   364G12c H01R 6534   4.827   3.716   4.717
   364G12c H01Q 6535   4.696   3.677   4.610
   364G12c C02A 6536   4.504   3.966   4.664
   364G12c H011 6537   4.475   3.884   4.727
   364G12c C00C 6538   4.054   3.850   4.985
   364G12c H012 6539   4.063   3.930   5.058
   364G12c C00B 6540   4.036   3.717   5.029
   364G12c C00A 6541   4.031   3.672   5.162
   364G12c C009 6542   4.101   3.733   5.275
   364G12c C008 6543   4.177   3.854   5.293
   364G12c H013 6544   4.195   3.934   5.224
   364G12c C007 6545   4.270   3.849   5.398
   364G12c H014 6546   4.338   3.933   5.400
   364G12c C006 6547   4.282   3.736   5.483
   364G12c C005 6548   4.197   3.623   5.465
   364G12c C004 6549   4.222   3.500   5.532
   364G12c C003 6550   4.168   3.384   5.472
   364G12c C002 6551   4.212   3.263   5.534
   364G12c C001 6552   4.185   3.123   5.496
   364G12c C00M 6553   4.206   3.077   5.361
   364G12c C00L 6554   4.147   3.146   5.254
   364G12c C00R 6555   4.182   3.126   5.122
   364G12c C00Q 6556   4.277   3.038   5.054
   364G12c C00V 6557   4.292   3.071   4.915
   364G12c C00U 6558   4.220   3.175   4.848
   364G12c C00T 6559   4.149   3.262   4.918
   364G12c C016 6560   4.099   3.388   4.874
   364G12c C015 6561   4.109   3.414   4.739
   364G12c C010 6562   4.171   3.321   4.656
   364G12c C011 6563   4.167   3.351   4.512
   364G12c H005 6564   4.216   3.293   4.435
   364G12c C012 6565   4.105   3.466   4.457
   364G12c C017 6566   4.084   3.504   4.319
   364G12c O002 6567   4.126   3.626   4.283
   364G12c H004 6568   4.168   3.660   4.361
   364G12c C018 6569   4.018   3.425   4.230
   364G12c O001 6570   3.964   3.305   4.260
   364G12c H003 6571   3.922   3.312   4.344
   364G12c C019 6572   3.985   3.467   4.086
   364G12c H002 6573   4.053   3.544   4.048
   364G12c H001 6574   4.010   3.382   4.023
   364G12c O000 6575   3.846   3.505   4.074
   364G12c C01A 6576   3.800   3.619   4.134
   364G12c C02K 6577   3.679   3.618   4.204
   364G12c O00G 6578   3.613   3.493   4.204
   364G12c C02M 6579   3.478   3.492   4.253
   364G12c H01G 6580   3.422   3.405   4.220
   364G12c H01F 6581   3.428   3.576   4.204
   364G12c H01E 6582   3.490   3.503   4.361
   364G12c C02J 6583   3.640   3.737   4.272
   364G12c H01H 6584   3.553   3.731   4.336
   364G12c C02I 6585   3.704   3.859   4.248
   364G12c C02N 6586   3.651   3.978   4.308
   364G12c H01M 6587   3.631   4.065   4.247
   364G12c C02O 6588   3.625   3.987   4.439
   364G12c H01L 6589   3.652   3.905   4.503
   364G12c C02P 6590   3.588   4.110   4.527
   364G12c H01K 6591   3.579   4.195   4.459
   364G12c H01J 6592   3.495   4.084   4.577
   364G12c O00H 6593   3.698   4.129   4.610
   364G12c H01I 6594   3.692   4.199   4.673
   364G12c C02H 6595   3.823   3.859   4.178
   364G12c H01C 6596   3.869   3.950   4.143
   364G12c C02L 6597   3.873   3.738   4.126
   364G12c H01D 6598   3.961   3.730   4.064
   364G12c C013 6599   4.061   3.560   4.558
   364G12c H000 6600   4.007   3.643   4.513
   364G12c C014 6601   4.065   3.538   4.697
   364G12c C00F 6602   4.051   3.644   4.793
   364G12c C00H 6603   4.052   3.480   4.965
   364G12c C00I 6604   4.023   3.446   5.098
   364G12c C00J 6605   4.042   3.307   5.133
   364G12c C00Z 6606   4.235   3.202   4.710
   364G12c C00Y 6607   4.337   3.132   4.645
   364G12c H006 6608   4.364   3.158   4.544
   364G12c C00X 6609   4.418   3.032   4.704
   364G12c O003 6610   4.514   2.981   4.621
   364G12c C01B 6611   4.601   2.882   4.676
   364G12c H009 6612   4.546   2.794   4.709
   364G12c H008 6613   4.657   2.929   4.757
   364G12c H007 6614   4.670   2.847   4.599
   364G12c C00W 6615   4.393   2.996   4.841
   364G12c O004 6616   4.450   2.883   4.888
   364G12c C01C 6617   4.413   2.846   5.012
   364G12c H00A 6618   4.421   2.741   5.037
   364G12c C00P 6619   4.354   2.936   5.108
   364G12c C00O 6620   4.380   2.914   5.253
   364G12c C01D 6621   4.494   2.835   5.293
   364G12c H00S 6622   4.545   2.775   5.220
   364G12c C01E 6623   4.547   2.848   5.425
   364G12c O008 6624   4.669   2.791   5.460
   364G12c C01V 6625   4.761   2.739   5.373
   364G12c C01Z 6626   4.816   2.619   5.444
   364G12c H00R 6627   4.925   2.623   5.437
   364G12c H00Q 6628   4.792   2.600   5.549
   364G12c O009 6629   4.772   2.502   5.375
   364G12c H00P 6630   4.684   2.484   5.407
   364G12c C01W 6631   4.808   2.803   5.268
   364G12c H00O 6632   4.763   2.898   5.241
   364G12c C01X 6633   4.919   2.757   5.170
   364G12c H00N 6634   4.968   2.841   5.121
   364G12c H00M 6635   4.989   2.699   5.229
   364G12c C01Y 6636   4.879   2.666   5.053
   364G12c C02D 6637   4.976   2.625   4.955
   364G12c H019 6638   5.078   2.661   4.953
   364G12c C02C 6639   4.942   2.540   4.844
   364G12c H01A 6640   5.009   2.539   4.759
   364G12c C02B 6641   4.815   2.492   4.829
   364G12c O00E 6642   4.800   2.411   4.722
   364G12c H01B 6643   4.710   2.384   4.711
   364G12c C02F 6644   4.716   2.524   4.929
   364G12c O00F 6645   4.599   2.461   4.914
   364G12c C02G 6646   4.536   2.406   5.030
   364G12c H017 6647   4.489   2.486   5.087
   364G12c H016 6648   4.615   2.359   5.089
   364G12c H015 6649   4.462   2.333   4.999
   364G12c C02E 6650   4.752   2.606   5.039
   364G12c H018 6651   4.679   2.624   5.117
   364G12c C01F 6652   4.479   2.926   5.520
   364G12c C01G 6653   4.541   2.979   5.636
   364G12c H00L 6654   4.637   2.942   5.667
   364G12c C01H 6655   4.483   3.089   5.704
   364G12c H00B 6656   4.551   3.149   5.762
   364G12c C01I 6657   4.353   3.132   5.662
   364G12c C01U 6658   4.351   2.966   5.495
   364G12c C00S 6659   4.111   3.221   5.047
   364G12c C00K 6660   4.087   3.274   5.262
   364G12c C00N 6661   4.315   2.983   5.356
   364G12c C000 6662   4.277   3.051   5.578
   364G12c C01J 6663   4.301   3.266   5.647
   364G12c C01K 6664   4.361   3.384   5.704
   364G12c C01P 6665   4.437   3.396   5.825
   364G12c C01Q 6666   4.428   3.297   5.932
   364G12c H00G 6667   4.340   3.235   5.937
   364G12c C01R 6668   4.513   3.301   6.035
   364G12c H00F 6669   4.604   3.358   6.027
   364G12c C01S 6670   4.504   3.222   6.167
   364G12c H00E 6671   4.542   3.281   6.250
   364G12c H00D 6672   4.402   3.195   6.197
   364G12c O005 6673   4.586   3.106   6.154
   364G12c H00C 6674   4.589   3.083   6.062
   364G12c C01O 6675   4.499   3.523   5.856
   364G12c H00H 6676   4.557   3.546   5.945
   364G12c C01N 6677   4.485   3.630   5.762
   364G12c O006 6678   4.545   3.742   5.800
   364G12c C01T 6679   4.637   3.794   5.710
   364G12c H00K 6680   4.729   3.735   5.709
   364G12c H00J 6681   4.666   3.896   5.737
   364G12c H00I 6682   4.605   3.787   5.606
   364G12c C01M 6683   4.398   3.621   5.655
   364G12c C020 6684   4.079   3.385   5.358
   364G12c C021 6685   4.026   3.513   5.328
   364G12c C01L 6686   4.327   3.499   5.625
   364G12c O007 6687   4.381   3.728   5.573
   364G12c C022 6688   4.095   3.626   5.370
   364G12c C023 6689   3.992   3.545   5.193
   364G12c C00G 6690   4.042   3.615   4.927
   364G12c C00E 6691   4.058   3.785   4.748
   364G12c O00A 6692   4.065   3.823   4.617
   364G12c C024 6693   3.940   3.880   4.577
   364G12c H00V 6694   3.904   3.966   4.633
   364G12c H00U 6695   3.858   3.809   4.587
   364G12c H00T 6696   3.941   3.913   4.474
   374G12c C00D 6697   2.938   5.119   5.292
   374G12c O00B 6698   2.903   5.235   5.359
   374G12c C025 6699   2.967   5.267   5.483
   374G12c C026 6700   3.105   5.309   5.467
   374G12c H00Y 6701   3.162   5.232   5.415
   374G12c H00X 6702   3.155   5.333   5.560
   374G12c O00C 6703   3.122   5.413   5.380
   374G12c H00W 6704   3.087   5.493   5.417
   374G12c C027 6705   2.899   5.265   5.596
   374G12c O00D 6706   2.765   5.235   5.590
   374G12c H00Z 6707   2.750   5.244   5.497
   374G12c C028 6708   2.955   5.284   5.728
   374G12c C029 6709   2.889   5.371   5.821
   374G12c H010 6710   2.789   5.402   5.794
   374G12c C02T 6711   2.951   5.399   5.948
   374G12c H01O 6712   2.907   5.463   6.023
   374G12c C02S 6713   3.057   5.320   5.990
   374G12c O00J 6714   3.124   5.345   6.103
   374G12c H01P 6715   3.208   5.305   6.122
   374G12c C02R 6716   3.113   5.222   5.906
   374G12c O00I 6717   3.216   5.147   5.962
   374G12c C02Q 6718   3.284   5.055   5.878
   374G12c H01N 6719   3.327   5.094   5.786
   374G12c H01R 6720   3.238   4.957   5.867
   374G12c H01Q 6721   3.368   5.025   5.941
   374G12c C02A 6722   3.062   5.205   5.773
   374G12c H011 6723   3.111   5.140   5.701
   374G12c C00C 6724   3.009   5.014   5.347
   374G12c H012 6725   3.031   5.023   5.452
   374G12c C00B 6726   3.057   4.907   5.269
   374G12c C00A 6727   3.149   4.804   5.308
   374G12c C009 6728   3.257   4.804   5.403
   374G12c C008 6729   3.301   4.905   5.495
   374G12c H013 6730   3.245   4.990   5.531
   374G12c C007 6731   3.443   4.913   5.518
   374G12c H014 6732   3.492   4.987   5.579
   374G12c C006 6733   3.531   4.824   5.452
   374G12c C005 6734   3.481   4.715   5.379
   374G12c C004 6735   3.561   4.638   5.295
   374G12c C003 6736   3.502   4.561   5.197
   374G12c C002 6737   3.591   4.473   5.122
   374G12c C001 6738   3.569   4.384   5.011
   374G12c C00M 6739   3.495   4.434   4.895
   374G12c C00L 6740   3.372   4.496   4.906
   374G12c C00R 6741   3.297   4.560   4.809
   374G12c C00Q 6742   3.322   4.571   4.670
   374G12c C00V 6743   3.231   4.664   4.608
   374G12c C00U 6744   3.138   4.745   4.679
   374G12c C00T 6745   3.121   4.731   4.813
   374G12c C016 6746   3.054   4.817   4.903
   374G12c C015 6747   2.987   4.921   4.848
   374G12c C010 6748   2.986   4.935   4.707
   374G12c C011 6749   2.889   5.023   4.654
   374G12c H005 6750   2.878   5.039   4.547
   374G12c C012 6751   2.793   5.090   4.730
   374G12c C017 6752   2.688   5.157   4.665
   374G12c O002 6753   2.615   5.087   4.571
   374G12c H004 6754   2.651   5.000   4.581
   374G12c C018 6755   2.657   5.285   4.688
   374G12c O001 6756   2.733   5.366   4.765
   374G12c H003 6757   2.715   5.458   4.763
   374G12c C019 6758   2.538   5.359   4.632
   374G12c H002 6759   2.532   5.332   4.527
   374G12c H001 6760   2.445   5.337   4.685
   374G12c O000 6761   2.568   5.496   4.639
   374G12c C01A 6762   2.594   5.564   4.519
   374G12c C02K 6763   2.499   5.571   4.413
   374G12c O00G 6764   2.379   5.516   4.436
   374G12c C02M 6765   2.292   5.513   4.326
   374G12c H01G 6766   2.271   5.616   4.296
   374G12c H01F 6767   2.201   5.467   4.364
   374G12c H01E 6768   2.346   5.454   4.252
   374G12c C02J 6769   2.539   5.652   4.300
   374G12c H01H 6770   2.464   5.666   4.224
   374G12c C02I 6771   2.668   5.709   4.278
   374G12c C02N 6772   2.707   5.776   4.155
   374G12c H01M 6773   2.810   5.809   4.148
   374G12c C02O 6774   2.630   5.803   4.051
   374G12c H01L 6775   2.526   5.774   4.055
   374G12c C02P 6776   2.670   5.885   3.925
   374G12c H01K 6777   2.669   5.992   3.944
   374G12c H01J 6778   2.774   5.864   3.902
   374G12c O00H 6779   2.594   5.844   3.807
   374G12c H01I 6780   2.514   5.895   3.805
   374G12c C02H 6781   2.759   5.685   4.381
   374G12c H01C 6782   2.858   5.726   4.370
   374G12c C02L 6783   2.726   5.619   4.506
   374G12c H01D 6784   2.789   5.615   4.593
   374G12c C013 6785   2.802   5.074   4.868
   374G12c H000 6786   2.735   5.136   4.925
   374G12c C014 6787   2.909   4.997   4.927
   374G12c C00F 6788   2.933   5.001   5.074
   374G12c C00H 6789   3.061   4.799   5.044
   374G12c C00I 6790   3.142   4.696   5.096
   374G12c C00J 6791   3.182   4.598   5.005
   374G12c C00Z 6792   3.065   4.854   4.626
   374G12c C00Y 6793   3.079   4.868   4.489
   374G12c H006 6794   3.022   4.938   4.430
   374G12c C00X 6795   3.161   4.786   4.409
   374G12c O003 6796   3.170   4.801   4.277
   374G12c C01B 6797   3.111   4.910   4.211
   374G12c H009 6798   3.149   4.909   4.109
   374G12c H008 6799   3.137   5.008   4.251
   374G12c H007 6800   3.004   4.901   4.191
   374G12c C00W 6801   3.239   4.684   4.470
   374G12c O004 6802   3.314   4.608   4.386
   374G12c C01C 6803   3.409   4.532   4.440
   374G12c H00A 6804   3.453   4.459   4.374
   374G12c C00P 6805   3.427   4.519   4.584
   374G12c C00O 6806   3.555   4.478   4.642
   374G12c C01D 6807   3.675   4.456   4.556
   374G12c H00S 6808   3.657   4.467   4.450
   374G12c C01E 6809   3.808   4.425   4.604
   374G12c O008 6810   3.919   4.409   4.528
   374G12c C01V 6811   3.900   4.406   4.391
   374G12c C01Z 6812   3.885   4.269   4.327
   374G12c H00R 6813   3.798   4.210   4.359
   374G12c H00Q 6814   3.854   4.276   4.222
   374G12c O009 6815   4.001   4.192   4.350
   374G12c H00P 6816   4.035   4.203   4.438
   374G12c C01W 6817   3.894   4.522   4.327
   374G12c H00O 6818   3.914   4.613   4.381
   374G12c C01X 6819   3.877   4.536   4.180
   374G12c H00N 6820   3.836   4.443   4.139
   374G12c H00M 6821   3.819   4.625   4.155
   374G12c C01Y 6822   4.001   4.567   4.105
   374G12c C02D 6823   3.995   4.657   3.994
   374G12c H019 6824   3.901   4.699   3.961
   374G12c C02C 6825   4.112   4.672   3.921
   374G12c H01A 6826   4.111   4.738   3.835
   374G12c C02B 6827   4.232   4.604   3.957
   374G12c O00E 6828   4.348   4.613   3.887
   374G12c H01B 6829   4.409   4.580   3.951
   374G12c C02F 6830   4.233   4.523   4.072
   374G12c O00F 6831   4.353   4.454   4.103
   374G12c C02G 6832   4.356   4.358   4.211
   374G12c H017 6833   4.451   4.308   4.233
   374G12c H016 6834   4.275   4.287   4.193
   374G12c H015 6835   4.329   4.396   4.309
   374G12c C02E 6836   4.118   4.498   4.145
   374G12c H018 6837   4.110   4.423   4.222
   374G12c C01F 6838   3.818   4.410   4.742
   374G12c C01G 6839   3.933   4.413   4.820
   374G12c H00L 6840   4.030   4.434   4.778
   374G12c C01H 6841   3.920   4.429   4.967
   374G12c H00B 6842   4.004   4.474   5.017
   374G12c C01I 6843   3.798   4.411   5.033
   374G12c C01U 6844   3.694   4.379   4.820
   374G12c C00S 6845   3.185   4.621   4.867
   374G12c C00K 6846   3.315   4.545   5.028
   374G12c C00N 6847   3.575   4.438   4.777
   374G12c C000 6848   3.697   4.350   4.956
   374G12c C01J 6849   3.730   4.480   5.140
   374G12c C01K 6850   3.792   4.564   5.239
   374G12c C01P 6851   3.932   4.573   5.291
   374G12c C01Q 6852   4.035   4.472   5.264
   374G12c H00G 6853   4.019   4.365   5.271
   374G12c C01R 6854   4.158   4.510   5.226
   374G12c H00F 6855   4.182   4.614   5.209
   374G12c C01S 6856   4.262   4.406   5.177
   374G12c H00E 6857   4.363   4.433   5.208
   374G12c H00D 6858   4.241   4.311   5.227
   374G12c O005 6859   4.250   4.381   5.031
   374G12c H00C 6860   4.276   4.292   5.014
   374G12c C01O 6861   3.970   4.668   5.391
   374G12c H00H 6862   4.074   4.662   5.421
   374G12c C01N 6863   3.883   4.762   5.442
   374G12c O006 6864   3.913   4.847   5.543
   374G12c C01T 6865   4.047   4.853   5.581
   374G12c H00K 6866   4.120   4.873   5.502
   374G12c H00J 6867   4.089   4.773   5.642
   374G12c H00I 6868   4.050   4.938   5.650
   374G12c C01M 6869   3.752   4.741   5.405
   374G12c C020 6870   3.363   4.568   5.163
   374G12c C021 6871   3.286   4.621   5.264
   374G12c C01L 6872   3.704   4.648   5.310
   374G12c O007 6873   3.665   4.831   5.467
   374G12c C022 6874   3.341   4.697   5.364
   374G12c C023 6875   3.169   4.693   5.229
   374G12c C00G 6876   3.016   4.900   5.131
   374G12c C00E 6877   2.886   5.108   5.163
   374G12c O00A 6878   2.821   5.218   5.113
   374G12c C024 6879   2.697   5.250   5.175
   374G12c H00V 6880   2.637   5.159   5.170
   374G12c H00U 6881   2.634   5.319   5.119
   374G12c H00T 6882   2.695   5.301   5.271
   384G12c C00D 6883   3.585   3.231   5.766
   384G12c O00B 6884   3.481   3.146   5.793
   384G12c C025 6885   3.513   3.020   5.837
   384G12c C026 6886   3.538   2.921   5.725
   384G12c H00Y 6887   3.479   2.947   5.637
   384G12c H00X 6888   3.516   2.819   5.758
   384G12c O00C 6889   3.671   2.902   5.690
   384G12c H00W 6890   3.674   2.872   5.600
   384G12c C027 6891   3.535   2.997   5.975
   384G12c O00D 6892   3.503   3.099   6.060
   384G12c H00Z 6893   3.487   3.158   5.988
   384G12c C028 6894   3.607   2.879   6.023
   384G12c C029 6895   3.732   2.843   5.971
   384G12c H010 6896   3.777   2.893   5.886
   384G12c C02T 6897   3.805   2.734   6.024
   384G12c H01O 6898   3.902   2.723   5.978
   384G12c C02S 6899   3.760   2.671   6.138
   384G12c O00J 6900   3.836   2.576   6.207
   384G12c H01P 6901   3.796   2.555   6.290
   384G12c C02R 6902   3.631   2.707   6.192
   384G12c O00I 6903   3.582   2.650   6.308
   384G12c C02Q 6904   3.462   2.585   6.283
   384G12c H01N 6905   3.448   2.516   6.366
   384G12c H01R 6906   3.489   2.514   6.205
   384G12c H01Q 6907   3.366   2.634   6.262
   384G12c C02A 6908   3.559   2.816   6.134
   384G12c H011 6909   3.464   2.849   6.174
   384G12c C00C 6910   3.712   3.214   5.819
   384G12c H012 6911   3.732   3.120   5.868
   384G12c C00B 6912   3.808   3.312   5.817
   384G12c C00A 6913   3.937   3.303   5.884
   384G12c C009 6914   3.976   3.237   6.010
   384G12c C008 6915   3.904   3.166   6.112
   384G12c H013 6916   3.805   3.128   6.091
   384G12c C007 6917   3.964   3.167   6.243
   384G12c H014 6918   3.905   3.124   6.323
   384G12c C006 6919   4.079   3.243   6.274
   384G12c C005 6920   4.140   3.322   6.176
   384G12c C004 6921   4.227   3.429   6.205
   384G12c C003 6922   4.264   3.524   6.110
   384G12c C002 6923   4.350   3.631   6.155
   384G12c C001 6924   4.394   3.753   6.091
   384G12c C00M 6925   4.303   3.830   6.017
   384G12c C00L 6926   4.221   3.782   5.915
   384G12c C00R 6927   4.120   3.860   5.848
   384G12c C00Q 6928   4.085   3.993   5.845
   384G12c C00V 6929   3.968   4.020   5.768
   384G12c C00U 6930   3.886   3.917   5.713
   384G12c C00T 6931   3.921   3.784   5.727
   384G12c C016 6932   3.837   3.674   5.708
   384G12c C015 6933   3.712   3.695   5.658
   384G12c C010 6934   3.677   3.827   5.620
   384G12c C011 6935   3.556   3.851   5.555
   384G12c H005 6936   3.527   3.950   5.523
   384G12c C012 6937   3.472   3.738   5.520
   384G12c C017 6938   3.344   3.755   5.456
   384G12c O002 6939   3.302   3.656   5.368
   384G12c H004 6940   3.225   3.690   5.325
   384G12c C018 6941   3.264   3.861   5.488
   384G12c O001 6942   3.289   3.958   5.586
   384G12c H003 6943   3.217   4.019   5.585
   384G12c C019 6944   3.121   3.871   5.438
   384G12c H002 6945   3.060   3.823   5.514
   384G12c H001 6946   3.096   3.977   5.429
   384G12c O000 6947   3.108   3.811   5.316
   384G12c C01A 6948   2.980   3.809   5.253
   384G12c C02K 6949   2.949   3.708   5.163
   384G12c O00G 6950   3.042   3.612   5.139
   384G12c C02M 6951   3.044   3.503   5.241
   384G12c H01G 6952   3.046   3.545   5.342
   384G12c H01F 6953   3.120   3.431   5.212
   384G12c H01E 6954   2.949   3.450   5.236
   384G12c C02J 6955   2.818   3.703   5.109
   384G12c H01H 6956   2.802   3.622   5.040
   384G12c C02I 6957   2.725   3.812   5.120
   384G12c C02N 6958   2.604   3.815   5.039
   384G12c H01M 6959   2.520   3.879   5.064
   384G12c C02O 6960   2.578   3.724   4.942
   384G12c H01L 6961   2.650   3.650   4.910
   384G12c C02P 6962   2.441   3.717   4.877
   384G12c H01K 6963   2.395   3.620   4.895
   384G12c H01J 6964   2.379   3.794   4.925
   384G12c O00H 6965   2.455   3.742   4.738
   384G12c H01I 6966   2.508   3.820   4.727
   384G12c C02H 6967   2.758   3.913   5.207
   384G12c H01C 6968   2.695   4.000   5.221
   384G12c C02L 6969   2.883   3.908   5.269
   384G12c H01D 6970   2.905   3.980   5.347
   384G12c C013 6971   3.508   3.607   5.553
   384G12c H000 6972   3.438   3.527   5.535
   384G12c C014 6973   3.631   3.580   5.628
   384G12c C00F 6974   3.661   3.449   5.676
   384G12c C00H 6975   3.868   3.544   5.744
   384G12c C00I 6976   3.999   3.524   5.801
   384G12c C00J 6977   4.084   3.633   5.811
   384G12c C00Z 6978   3.761   3.939   5.654
   384G12c C00Y 6979   3.723   4.079   5.632
   384G12c H006 6980   3.632   4.105   5.580
   384G12c C00X 6981   3.807   4.184   5.680
   384G12c O003 6982   3.771   4.315   5.670
   384G12c C01B 6983   3.807   4.379   5.551
   384G12c H009 6984   3.915   4.365   5.543
   384G12c H008 6985   3.783   4.485   5.555
   384G12c H007 6986   3.770   4.336   5.458
   384G12c C00W 6987   3.923   4.151   5.751
   384G12c O004 6988   4.006   4.257   5.787
   384G12c C01C 6989   4.093   4.233   5.890
   384G12c H00A 6990   4.149   4.317   5.929
   384G12c C00P 6991   4.134   4.101   5.926
   384G12c C00O 6992   4.221   4.081   6.037
   384G12c C01D 6993   4.225   4.183   6.137
   384G12c H00S 6994   4.153   4.264   6.134
   384G12c C01E 6995   4.286   4.162   6.265
   384G12c O008 6996   4.286   4.250   6.373
   384G12c C01V 6997   4.229   4.372   6.352
   384G12c C01Z 6998   4.104   4.396   6.435
   384G12c H00R 6999   4.129   4.361   6.535
   384G12c H00Q 7000   4.092   4.502   6.457
   384G12c O009 7001   3.986   4.333   6.390
   384G12c H00P 7002   4.015   4.259   6.341
   384G12c C01W 7003   4.278   4.459   6.257
   384G12c H00O 7004   4.371   4.426   6.212
   384G12c C01X 7005   4.239   4.605   6.225
   384G12c H00N 7006   4.165   4.639   6.297
   384G12c H00M 7007   4.316   4.681   6.238
   384G12c C01Y 7008   4.178   4.600   6.093
   384G12c C02D 7009   4.252   4.616   5.975
   384G12c H019 7010   4.357   4.635   5.959
   384G12c C02C 7011   4.189   4.600   5.855
   384G12c H01A 7012   4.246   4.615   5.765
   384G12c C02B 7013   4.049   4.571   5.850
   384G12c O00E 7014   3.980   4.559   5.733
   384G12c H01B 7015   3.902   4.511   5.755
   384G12c C02F 7016   3.972   4.562   5.967
   384G12c O00F 7017   3.835   4.545   5.947
   384G12c C02G 7018   3.759   4.509   6.058
   384G12c H017 7019   3.653   4.501   6.032
   384G12c H016 7020   3.755   4.574   6.145
   384G12c H015 7021   3.805   4.417   6.094
   384G12c C02E 7022   4.035   4.581   6.088
   384G12c H018 7023   3.973   4.595   6.176
   384G12c C01F 7024   4.349   4.038   6.291
   384G12c C01G 7025   4.375   3.991   6.422
   384G12c H00L 7026   4.352   4.053   6.507
   384G12c C01H 7027   4.417   3.855   6.435
   384G12c H00B 7028   4.399   3.801   6.527
   384G12c C01I 7029   4.436   3.774   6.318
   384G12c C01U 7030   4.378   3.954   6.183
   384G12c C00S 7031   4.047   3.764   5.779
   384G12c C00K 7032   4.187   3.646   5.905
   384G12c C00N 7033   4.297   3.968   6.066
   384G12c C000 7034   4.449   3.834   6.191
   384G12c C01J 7035   4.402   3.635   6.287
   384G12c C01K 7036   4.372   3.532   6.383
   384G12c C01P 7037   4.433   3.510   6.511
   384G12c C01Q 7038   4.551   3.593   6.537
   384G12c H00G 7039   4.613   3.632   6.457
   384G12c C01R 7040   4.581   3.626   6.664
   384G12c H00F 7041   4.506   3.601   6.738
   384G12c C01S 7042   4.694   3.725   6.698
   384G12c H00E 7043   4.749   3.693   6.786
   384G12c H00D 7044   4.763   3.750   6.618
   384G12c O005 7045   4.633   3.844   6.744
   384G12c H00C 7046   4.574   3.825   6.816
   384G12c C01O 7047   4.389   3.404   6.591
   384G12c H00H 7048   4.433   3.405   6.690
   384G12c C01N 7049   4.290   3.316   6.552
   384G12c O006 7050   4.246   3.215   6.637
   384G12c C01T 7051   4.341   3.162   6.726
   384G12c H00K 7052   4.307   3.074   6.780
   384G12c H00J 7053   4.371   3.235   6.800
   384G12c H00I 7054   4.433   3.123   6.681
   384G12c C01M 7055   4.232   3.330   6.426
   384G12c C020 7056   4.199   3.527   5.982
   384G12c C021 7057   4.140   3.399   5.945
   384G12c C01L 7058   4.279   3.437   6.337
   384G12c O007 7059   4.126   3.246   6.402
   384G12c C022 7060   4.094   3.315   6.046
   384G12c C023 7061   4.034   3.397   5.852
   384G12c C00G 7062   3.780   3.435   5.745
   384G12c C00E 7063   3.564   3.345   5.686
   384G12c O00A 7064   3.433   3.337   5.625
   384G12c C024 7065   3.437   3.277   5.497
   384G12c H00V 7066   3.460   3.171   5.508
   384G12c H00U 7067   3.515   3.323   5.436
   384G12c H00T 7068   3.346   3.286   5.438
   394G12c C00D 7069   0.628   6.369   4.902
   394G12c O00B 7070   0.584   6.249   4.861
   394G12c C025 7071   0.573   6.237   4.720
   394G12c C026 7072   0.438   6.262   4.660
   394G12c H00Y 7073   0.412   6.183   4.590
   394G12c H00X 7074   0.434   6.362   4.616
   394G12c O00C 7075   0.349   6.252   4.770
   394G12c H00W 7076   0.401   6.257   4.849
   394G12c C027 7077   0.681   6.201   4.647
   394G12c O00D 7078   0.805   6.165   4.695
   394G12c H00Z 7079   0.799   6.202   4.782
   394G12c C028 7080   0.667   6.197   4.502
   394G12c C029 7081   0.707   6.074   4.431
   394G12c H010 7082   0.760   6.000   4.488
   394G12c C02T 7083   0.685   6.054   4.297
   394G12c H01O 7084   0.712   5.964   4.245
   394G12c C02S 7085   0.630   6.155   4.223
   394G12c O00J 7086   0.610   6.120   4.092
   394G12c H01P 7087   0.559   6.176   4.036
   394G12c C02R 7088   0.592   6.276   4.281
   394G12c O00I 7089   0.523   6.364   4.200
   394G12c C02Q 7090   0.461   6.480   4.258
   394G12c H01N 7091   0.383   6.458   4.331
   394G12c H01R 7092   0.424   0.014   4.171
   394G12c H01Q 7093   0.519   0.029   4.318
   394G12c C02A 7094   0.608   6.295   4.419
   394G12c H011 7095   0.562   6.379   4.469
   394G12c C00C 7096   0.544   6.485   4.893
   394G12c H012 7097   0.450   6.488   4.839
   394G12c C00B 7098   0.568   0.072   4.978
   394G12c C00A 7099   0.482   0.183   4.996
   394G12c C009 7100   0.398   0.255   4.900
   394G12c C008 7101   0.359   0.243   4.764
   394G12c H013 7102   0.363   0.151   4.709
   394G12c C007 7103   0.339   0.366   4.691
   394G12c H014 7104   0.330   0.360   4.584
   394G12c C006 7105   0.339   0.495   4.745
   394G12c C005 7106   0.367   0.500   4.880
   394G12c C004 7107   0.399   0.627   4.941
   394G12c C003 7108   0.459   0.632   5.071
   394G12c C002 7109   0.494   0.761   5.127
   394G12c C001 7110   0.568   0.806   5.244
   394G12c C00M 7111   0.695   0.747   5.276
   394G12c C00L 7112   0.710   0.612   5.294
   394G12c C00R 7113   0.841   0.548   5.292
   394G12c C00Q 7114   0.980   0.592   5.280
   394G12c C00V 7115   1.076   0.487   5.275
   394G12c C00U 7116   1.041   0.354   5.243
   394G12c C00T 7117   0.911   0.315   5.232
   394G12c C016 7118   0.868   0.200   5.165
   394G12c C015 7119   0.960   0.112   5.135
   394G12c C010 7120   1.092   0.130   5.168
   394G12c C011 7121   1.190   0.026   5.143
   394G12c H005 7122   1.292   0.045   5.174
   394G12c C012 7123   1.160   6.436   5.059
   394G12c C017 7124   1.255   6.338   5.012
   394G12c O002 7125   1.210   6.216   4.956
   394G12c H004 7126   1.252   6.141   4.995
   394G12c C018 7127   1.392   6.366   5.000
   394G12c O001 7128   1.450   6.491   5.004
   394G12c H003 7129   1.538   6.499   4.973
   394G12c C019 7130   1.488   6.264   4.934
   394G12c H002 7131   1.521   6.194   5.010
   394G12c H001 7132   1.433   6.211   4.856
   394G12c O000 7133   1.606   6.320   4.872
   394G12c C01A 7134   1.693   6.245   4.803
   394G12c C02K 7135   1.816   6.304   4.766
   394G12c O00G 7136   1.843   6.433   4.798
   394G12c C02M 7137   1.984   6.473   4.812
   394G12c H01G 7138   2.032   6.399   4.877
   394G12c H01F 7139   1.974   0.045   4.867
   394G12c H01E 7140   2.040   6.482   4.719
   394G12c C02J 7141   1.904   6.231   4.680
   394G12c H01H 7142   1.989   6.287   4.643
   394G12c C02I 7143   1.882   6.095   4.644
   394G12c C02N 7144   1.983   6.023   4.581
   394G12c H01M 7145   2.088   6.039   4.603
   394G12c C02O 7146   1.948   5.923   4.500
   394G12c H01L 7147   1.843   5.914   4.478
   394G12c C02P 7148   2.050   5.831   4.449
   394G12c H01K 7149   2.032   5.824   4.341
   394G12c H01J 7150   2.151   5.860   4.475
   394G12c O00H 7151   2.014   5.708   4.495
   394G12c H01I 7152   2.006   5.715   4.589
   394G12c C02H 7153   1.752   6.045   4.679
   394G12c H01C 7154   1.724   5.946   4.646
   394G12c C02L 7155   1.662   6.115   4.758
   394G12c H01D 7156   1.565   6.073   4.779
   394G12c C013 7157   1.023   6.423   5.031
   394G12c H000 7158   0.995   6.347   4.961
   394G12c C014 7159   0.920   6.508   5.079
   394G12c C00F 7160   0.788   6.492   5.036
   394G12c C00H 7161   0.732   0.182   5.128
   394G12c C00I 7162   0.633   0.277   5.170
   394G12c C00J 7163   0.681   0.387   5.242
   394G12c C00Z 7164   1.130   0.256   5.218
   394G12c C00Y 7165   1.264   0.289   5.239
   394G12c H006 7166   1.340   0.212   5.231
   394G12c C00X 7167   1.310   0.422   5.265
   394G12c O003 7168   1.442   0.463   5.284
   394G12c C01B 7169   1.549   0.377   5.250
   394G12c H009 7170   1.557   0.307   5.333
   394G12c H008 7171   1.631   0.449   5.246
   394G12c H007 7172   1.541   0.331   5.152
   394G12c C00W 7173   1.215   0.521   5.279
   394G12c O004 7174   1.264   0.653   5.288
   394G12c C01C 7175   1.166   0.745   5.295
   394G12c H00A 7176   1.207   0.837   5.335
   394G12c C00P 7177   1.027   0.725   5.276
   394G12c C00O 7178   0.946   0.841   5.258
   394G12c C01D 7179   1.009   0.971   5.229
   394G12c H00S 7180   1.114   0.991   5.237
   394G12c C01E 7181   0.937   1.081   5.181
   394G12c O008 7182   1.010   1.193   5.152
   394G12c C01V 7183   0.956   1.320   5.183
   394G12c C01Z 7184   1.013   1.433   5.093
   394G12c H00R 7185   1.010   1.390   4.993
   394G12c H00Q 7186   0.963   1.530   5.099
   394G12c O009 7187   1.143   1.467   5.134
   394G12c H00P 7188   1.177   1.407   5.199
   394G12c C01W 7189   0.871   1.343   5.283
   394G12c H00O 7190   0.833   1.268   5.350
   394G12c C01X 7191   0.827   1.476   5.330
   394G12c H00N 7192   0.819   1.456   5.436
   394G12c H00M 7193   0.903   1.551   5.306
   394G12c C01Y 7194   0.690   1.522   5.284
   394G12c C02D 7195   0.663   1.648   5.229
   394G12c H019 7196   0.737   1.726   5.218
   394G12c C02C 7197   0.533   1.696   5.198
   394G12c H01A 7198   0.512   1.795   5.161
   394G12c C02B 7199   0.428   1.616   5.234
   394G12c O00E 7200   0.301   1.666   5.228
   394G12c H01B 7201   0.241   1.609   5.274
   394G12c C02F 7202   0.448   1.484   5.274
   394G12c O00F 7203   0.339   1.407   5.277
   394G12c C02G 7204   0.355   1.262   5.299
   394G12c H017 7205   0.422   1.222   5.224
   394G12c H016 7206   0.253   1.227   5.283
   394G12c H015 7207   0.381   1.236   5.402
   394G12c C02E 7208   0.577   1.442   5.312
   394G12c H018 7209   0.591   1.347   5.361
   394G12c C01F 7210   0.802   1.063   5.156
   394G12c C01G 7211   0.722   1.136   5.062
   394G12c H00L 7212   0.759   1.219   5.003
   394G12c C01H 7213   0.595   1.092   5.025
   394G12c H00B 7214   0.569   1.129   4.927
   394G12c C01I 7215   0.529   0.993   5.103
   394G12c C01U 7216   0.730   0.966   5.227
   394G12c C00S 7217   0.816   0.412   5.271
   394G12c C00K 7218   0.618   0.518   5.232
   394G12c C00N 7219   0.798   0.846   5.253
   394G12c C000 7220   0.591   0.946   5.224
   394G12c C01J 7221   0.452   0.882   5.052
   394G12c C01K 7222   0.392   0.877   4.922
   394G12c C01P 7223   0.338   0.984   4.848
   394G12c C01Q 7224   0.312   1.116   4.909
   394G12c H00G 7225   0.270   1.127   5.008
   394G12c C01R 7226   0.317   1.232   4.838
   394G12c H00F 7227   0.350   1.230   4.735
   394G12c C01S 7228   0.300   1.369   4.900
   394G12c H00E 7229   0.309   1.450   4.827
   394G12c H00D 7230   0.200   1.375   4.941
   394G12c O005 7231   0.397   1.398   4.999
   394G12c H00C 7232   0.355   1.404   5.084
   394G12c C01O 7233   0.295   0.965   4.713
   394G12c H00H 7234   0.248   1.045   4.658
   394G12c C01N 7235   0.297   0.838   4.654
   394G12c O006 7236   0.277   0.815   4.521
   394G12c C01T 7237   0.305   0.924   4.432
   394G12c H00K 7238   0.276   0.894   4.331
   394G12c H00J 7239   0.405   0.966   4.431
   394G12c H00I 7240   0.238   1.008   4.449
   394G12c C01M 7241   0.334   0.727   4.732
   394G12c C020 7242   0.508   0.514   5.140
   394G12c C021 7243   0.446   0.395   5.090
   394G12c C01L 7244   0.375   0.746   4.870
   394G12c O007 7245   0.330   0.609   4.666
   394G12c C022 7246   0.395   0.386   4.961
   394G12c C023 7247   0.511   0.271   5.100
   394G12c C00G 7248   0.694   0.074   5.046
   394G12c C00E 7249   0.748   6.368   4.975
   394G12c O00A 7250   0.806   6.244   4.996
   394G12c C024 7251   0.758   6.183   5.116
   394G12c H00V 7252   0.803   6.086   5.131
   394G12c H00U 7253   0.654   6.153   5.103
   394G12c H00T 7254   0.758   6.235   5.212
   404G12c C00D 7255   1.960   6.501   4.324
   404G12c O00B 7256   1.947   6.509   4.458
   404G12c C025 7257   1.968   0.112   4.516
   404G12c C026 7258   1.840   0.196   4.536
   404G12c H00Y 7259   1.788   0.193   4.441
   404G12c H00X 7260   1.852   0.301   4.561
   404G12c O00C 7261   1.756   0.134   4.632
   404G12c H00W 7262   1.748   0.046   4.600
   404G12c C027 7263   2.093   0.151   4.548
   404G12c O00D 7264   2.198   0.066   4.522
   404G12c H00Z 7265   2.161   6.520   4.467
   404G12c C028 7266   2.110   0.280   4.610
   404G12c C029 7267   2.211   0.360   4.558
   404G12c H010 7268   2.274   0.333   4.475
   404G12c C02T 7269   2.238   0.490   4.605
   404G12c H01O 7270   2.295   0.560   4.546
   404G12c C02S 7271   2.168   0.539   4.715
   404G12c O00J 7272   2.173   0.672   4.748
   404G12c H01P 7273   2.239   0.710   4.692
   404G12c C02R 7274   2.063   0.462   4.771
   404G12c O00I 7275   1.995   0.519   4.875
   404G12c C02Q 7276   1.858   0.482   4.893
   404G12c H01N 7277   1.860   0.390   4.953
   404G12c H01R 7278   1.805   0.459   4.801
   404G12c H01Q 7279   1.805   0.564   4.941
   404G12c C02A 7280   2.041   0.330   4.727
   404G12c H011 7281   1.966   0.272   4.780
   404G12c C00C 7282   2.000   0.076   4.234
   404G12c H012 7283   2.014   0.178   4.266
   404G12c C00B 7284   2.027   0.043   4.097
   404G12c C00A 7285   2.075   0.137   4.000
   404G12c C009 7286   2.073   0.284   3.986
   404G12c C008 7287   2.013   0.389   4.058
   404G12c H013 7288   1.985   0.381   4.162
   404G12c C007 7289   1.983   0.510   3.986
   404G12c H014 7290   1.943   0.589   4.047
   404G12c C006 7291   2.006   0.520   3.846
   404G12c C005 7292   2.066   0.414   3.776
   404G12c C004 7293   2.070   0.410   3.634
   404G12c C003 7294   2.095   0.287   3.574
   404G12c C002 7295   2.078   0.278   3.429
   404G12c C001 7296   2.104   0.177   3.335
   404G12c C00M 7297   2.069   0.036   3.344
   404G12c C00L 7298   2.071   6.498   3.471
   404G12c C00R 7299   2.029   6.367   3.505
   404G12c C00Q 7300   1.927   6.289   3.440
   404G12c C00V 7301   1.884   6.180   3.524
   404G12c C00U 7302   1.911   6.172   3.660
   404G12c C00T 7303   1.985   6.263   3.725
   404G12c C016 7304   1.991   6.282   3.864
   404G12c C015 7305   1.926   6.189   3.944
   404G12c C010 7306   1.870   6.075   3.882
   404G12c C011 7307   1.810   5.978   3.967
   404G12c H005 7308   1.764   5.892   3.919
   404G12c C012 7309   1.813   5.989   4.104
   404G12c C017 7310   1.744   5.892   4.185
   404G12c O002 7311   1.645   5.948   4.269
   404G12c H004 7312   1.586   5.880   4.297
   404G12c C018 7313   1.770   5.760   4.184
   404G12c O001 7314   1.859   5.702   4.099
   404G12c H003 7315   1.812   5.624   4.075
   404G12c C019 7316   1.716   5.663   4.278
   404G12c H002 7317   1.690   5.585   4.206
   404G12c H001 7318   1.791   5.632   4.350
   404G12c O000 7319   1.592   5.709   4.321
   404G12c C01A 7320   1.568   5.712   4.461
   404G12c C02K 7321   1.463   5.799   4.499
   404G12c O00G 7322   1.407   5.873   4.400
   404G12c C02M 7323   1.316   5.980   4.437
   404G12c H01G 7324   1.349   6.057   4.506
   404G12c H01F 7325   1.233   5.929   4.487
   404G12c H01E 7326   1.277   6.033   4.350
   404G12c C02J 7327   1.434   5.805   4.646
   404G12c H01H 7328   1.364   5.875   4.687
   404G12c C02I 7329   1.504   5.733   4.746
   404G12c C02N 7330   1.482   5.756   4.893
   404G12c H01M 7331   1.563   5.727   4.958
   404G12c C02O 7332   1.377   5.820   4.939
   404G12c H01L 7333   1.297   5.841   4.869
   404G12c C02P 7334   1.352   5.853   5.086
   404G12c H01K 7335   1.274   5.784   5.118
   404G12c H01J 7336   1.440   5.849   5.151
   404G12c O00H 7337   1.280   5.976   5.078
   404G12c H01I 7338   1.220   5.979   5.151
   404G12c C02H 7339   1.605   5.651   4.694
   404G12c H01C 7340   1.676   5.601   4.758
   404G12c C02L 7341   1.629   5.635   4.555
   404G12c H01D 7342   1.708   5.569   4.522
   404G12c C013 7343   1.877   6.098   4.165
   404G12c H000 7344   1.882   6.088   4.272
   404G12c C014 7345   1.926   6.207   4.083
   404G12c C00F 7346   1.954   6.340   4.135
   404G12c C00H 7347   2.045   6.398   3.918
   404G12c C00I 7348   2.097   6.488   3.827
   404G12c C00J 7349   2.117   6.455   3.689
   404G12c C00Z 7350   1.851   6.075   3.745
   404G12c C00Y 7351   1.772   5.979   3.683
   404G12c H006 7352   1.725   5.897   3.736
   404G12c C00X 7353   1.748   5.983   3.545
   404G12c O003 7354   1.674   5.894   3.475
   404G12c C01B 7355   1.606   5.787   3.544
   404G12c H009 7356   1.675   5.737   3.612
   404G12c H008 7357   1.576   5.732   3.455
   404G12c H007 7358   1.513   5.805   3.599
   404G12c C00W 7359   1.797   6.088   3.469
   404G12c O004 7360   1.745   6.094   3.342
   404G12c C01C 7361   1.804   6.184   3.258
   404G12c H00A 7362   1.798   6.156   3.154
   404G12c C00P 7363   1.871   6.302   3.306
   404G12c C00O 7364   1.882   6.419   3.220
   404G12c C01D 7365   1.795   6.435   3.109
   404G12c H00S 7366   1.732   6.353   3.078
   404G12c C01E 7367   1.783   0.031   3.032
   404G12c O008 7368   1.692   0.036   2.931
   404G12c C01V 7369   1.748   0.021   2.803
   404G12c C01Z 7370   1.735   6.412   2.741
   404G12c H00R 7371   1.833   6.377   2.708
   404G12c H00Q 7372   1.697   6.338   2.812
   404G12c O009 7373   1.639   6.415   2.641
   404G12c H00P 7374   1.575   6.346   2.652
   404G12c C01W 7375   1.814   0.117   2.739
   404G12c H00O 7376   1.823   0.208   2.797
   404G12c C01X 7377   1.872   0.109   2.595
   404G12c H00N 7378   1.964   0.166   2.600
   404G12c H00M 7379   1.893   0.010   2.554
   404G12c C01Y 7380   1.781   0.184   2.498
   404G12c C02D 7381   1.773   0.325   2.501
   404G12c H019 7382   1.831   0.373   2.578
   404G12c C02C 7383   1.685   0.391   2.413
   404G12c H01A 7384   1.680   0.499   2.418
   404G12c C02B 7385   1.612   0.325   2.317
   404G12c O00E 7386   1.526   0.398   2.239
   404G12c H01B 7387   1.478   0.352   2.172
   404G12c C02F 7388   1.603   0.187   2.316
   404G12c O00F 7389   1.530   0.131   2.217
   404G12c C02G 7390   1.518   6.506   2.210
   404G12c H017 7391   1.465   6.479   2.301
   404G12c H016 7392   1.616   6.458   2.202
   404G12c H015 7393   1.458   6.469   2.127
   404G12c C02E 7394   1.683   0.116   2.411
   404G12c H018 7395   1.682   0.008   2.410
   404G12c C01F 7396   1.857   0.145   3.078
   404G12c C01G 7397   1.830   0.284   3.060
   404G12c H00L 7398   1.752   0.313   2.991
   404G12c C01H 7399   1.899   0.384   3.136
   404G12c H00B 7400   1.847   0.478   3.143
   404G12c C01I 7401   2.000   0.353   3.223
   404G12c C01U 7402   1.965   0.124   3.165
   404G12c C00S 7403   2.056   6.349   3.638
   404G12c C00K 7404   2.125   0.034   3.585
   404G12c C00N 7405   1.970   0.010   3.244
   404G12c C000 7406   2.052   0.222   3.215
   404G12c C01J 7407   2.037   0.393   3.356
   404G12c C01K 7408   2.008   0.520   3.423
   404G12c C01P 7409   1.966   0.644   3.366
   404G12c C01Q 7410   1.985   0.659   3.221
   404G12c H00G 7411   2.069   0.610   3.173
   404G12c C01R 7412   1.904   0.745   3.152
   404G12c H00F 7413   1.824   0.797   3.203
   404G12c C01S 7414   1.924   0.760   2.998
   404G12c H00E 7415   1.945   0.858   2.953
   404G12c H00D 7416   2.005   0.698   2.961
   404G12c O005 7417   1.798   0.740   2.930
   404G12c H00C 7418   1.818   0.717   2.840
   404G12c C01O 7419   1.931   0.759   3.441
   404G12c H00H 7420   1.927   0.861   3.407
   404G12c C01N 7421   1.936   0.750   3.583
   404G12c O006 7422   1.893   0.849   3.670
   404G12c C01T 7423   1.823   0.959   3.610
   404G12c H00K 7424   1.745   0.920   3.544
   404G12c H00J 7425   1.899   1.019   3.561
   404G12c H00I 7426   1.782   1.007   3.699
   404G12c C01M 7427   1.977   0.629   3.642
   404G12c C020 7428   2.141   0.172   3.638
   404G12c C021 7429   2.151   0.192   3.781
   404G12c C01L 7430   2.023   0.517   3.564
   404G12c O007 7431   1.978   0.629   3.775
   404G12c C022 7432   2.116   0.305   3.848
   404G12c C023 7433   2.120   0.091   3.877
   404G12c C00G 7434   2.013   6.434   4.046
   404G12c C00E 7435   1.928   6.373   4.272
   404G12c O00A 7436   1.862   6.291   4.357
   404G12c C024 7437   1.732   6.311   4.393
   404G12c H00V 7438   1.715   6.409   4.437
   404G12c H00U 7439   1.709   6.236   4.469
   404G12c H00T 7440   1.671   6.294   4.304
   414G12c C00D 7441   1.466   4.717   7.627
   414G12c O00B 7442   1.474   4.578   7.641
   414G12c C025 7443   1.568   4.514   7.720
   414G12c C026 7444   1.515   4.458   7.853
   414G12c H00Y 7445   1.533   4.352   7.867
   414G12c H00X 7446   1.407   4.459   7.835
   414G12c O00C 7447   1.549   4.544   7.968
   414G12c H00W 7448   1.638   4.514   7.981
   414G12c C027 7449   1.695   4.503   7.673
   414G12c O00D 7450   1.728   4.550   7.546
   414G12c H00Z 7451   1.646   4.576   7.506
   414G12c C028 7452   1.791   4.417   7.736
   414G12c C029 7453   1.765   4.279   7.753
   414G12c H010 7454   1.667   4.241   7.726
   414G12c C02T 7455   1.861   4.196   7.806
   414G12c H01O 7456   1.845   4.090   7.816
   414G12c C02S 7457   1.988   4.249   7.846
   414G12c O00J 7458   2.075   4.158   7.888
   414G12c H01P 7459   2.157   4.199   7.910
   414G12c C02R 7460   2.017   4.386   7.836
   414G12c O00I 7461   2.138   4.418   7.885
   414G12c C02Q 7462   2.180   4.551   7.862
   414G12c H01N 7463   2.286   4.563   7.884
   414G12c H01R 7464   2.120   4.622   7.920
   414G12c H01Q 7465   2.166   4.581   7.758
   414G12c C02A 7466   1.913   4.471   7.783
   414G12c H011 7467   1.925   4.578   7.770
   414G12c C00C 7468   1.521   4.815   7.714
   414G12c H012 7469   1.597   4.784   7.784
   414G12c C00B 7470   1.487   4.946   7.707
   414G12c C00A 7471   1.534   5.052   7.795
   414G12c C009 7472   1.570   5.052   7.934
   414G12c C008 7473   1.565   4.949   8.031
   414G12c H013 7474   1.587   4.851   7.992
   414G12c C007 7475   1.543   4.977   8.167
   414G12c H014 7476   1.547   4.891   8.233
   414G12c C006 7477   1.516   5.112   8.204
   414G12c C005 7478   1.501   5.205   8.107
   414G12c C004 7479   1.433   5.325   8.132
   414G12c C003 7480   1.384   5.401   8.027
   414G12c C002 7481   1.308   5.522   8.063
   414G12c C001 7482   1.249   5.629   7.989
   414G12c C00M 7483   1.167   5.609   7.873
   414G12c C00L 7484   1.205   5.518   7.776
   414G12c C00R 7485   1.123   5.462   7.676
   414G12c C00Q 7486   0.984   5.477   7.643
   414G12c C00V 7487   0.947   5.391   7.534
   414G12c C00U 7488   1.022   5.277   7.489
   414G12c C00T 7489   1.149   5.251   7.547
   414G12c C016 7490   1.230   5.137   7.523
   414G12c C015 7491   1.182   5.048   7.432
   414G12c C010 7492   1.072   5.079   7.355
   414G12c C011 7493   1.051   4.996   7.241
   414G12c H005 7494   0.962   5.018   7.183
   414G12c C012 7495   1.129   4.888   7.205
   414G12c C017 7496   1.120   4.804   7.083
   414G12c O002 7497   1.172   4.674   7.091
   414G12c H004 7498   1.161   4.637   7.004
   414G12c C018 7499   1.066   4.851   6.964
   414G12c O001 7500   1.012   4.973   6.952
   414G12c H003 7501   1.049   5.012   7.029
   414G12c C019 7502   1.048   4.773   6.835
   414G12c H002 7503   0.947   4.734   6.819
   414G12c H001 7504   1.092   4.825   6.750
   414G12c O000 7505   1.139   4.663   6.832
   414G12c C01A 7506   1.123   4.575   6.726
   414G12c C02K 7507   1.184   4.610   6.600
   414G12c O00G 7508   1.252   4.731   6.592
   414G12c C02M 7509   1.247   4.810   6.474
   414G12c H01G 7510   1.141   4.832   6.458
   414G12c H01F 7511   1.286   4.746   6.396
   414G12c H01E 7512   1.299   4.905   6.489
   414G12c C02J 7513   1.185   4.509   6.497
   414G12c H01H 7514   1.237   4.517   6.403
   414G12c C02I 7515   1.111   4.384   6.516
   414G12c C02N 7516   1.119   4.292   6.405
   414G12c H01M 7517   1.208   4.281   6.345
   414G12c C02O 7518   1.004   4.219   6.378
   414G12c H01L 7519   0.914   4.228   6.436
   414G12c C02P 7520   0.999   4.130   6.258
   414G12c H01K 7521   0.983   4.029   6.296
   414G12c H01J 7522   0.909   4.160   6.204
   414G12c O00H 7523   1.111   4.134   6.175
   414G12c H01I 7524   1.134   4.047   6.146
   414G12c C02H 7525   1.051   4.359   6.640
   414G12c H01C 7526   1.006   4.264   6.665
   414G12c C02L 7527   1.061   4.452   6.747
   414G12c H01D 7528   1.016   4.424   6.841
   414G12c C013 7529   1.229   4.853   7.297
   414G12c H000 7530   1.295   4.772   7.268
   414G12c C014 7531   1.248   4.926   7.418
   414G12c C00F 7532   1.343   4.893   7.515
   414G12c C00H 7533   1.347   5.117   7.601
   414G12c C00I 7534   1.397   5.224   7.674
   414G12c C00J 7535   1.322   5.342   7.674
   414G12c C00Z 7536   0.988   5.188   7.389
   414G12c C00Y 7537   0.861   5.213   7.325
   414G12c H006 7538   0.834   5.157   7.237
   414G12c C00X 7539   0.780   5.323   7.365
   414G12c O003 7540   0.652   5.344   7.313
   414G12c C01B 7541   0.601   5.256   7.215
   414G12c H009 7542   0.507   5.303   7.186
   414G12c H008 7543   0.564   5.164   7.262
   414G12c H007 7544   0.659   5.233   7.125
   414G12c C00W 7545   0.821   5.411   7.469
   414G12c O004 7546   0.733   5.509   7.504
   414G12c C01C 7547   0.746   5.554   7.638
   414G12c H00A 7548   0.652   5.559   7.691
   414G12c C00P 7549   0.880   5.555   7.703
   414G12c C00O 7550   0.908   5.630   7.824
   414G12c C01D 7551   0.798   5.700   7.887
   414G12c H00S 7552   0.702   5.710   7.837
   414G12c C01E 7553   0.793   5.726   8.029
   414G12c O008 7554   0.678   5.744   8.100
   414G12c C01V 7555   0.558   5.709   8.056
   414G12c C01Z 7556   0.507   5.582   8.113
   414G12c H00R 7557   0.496   5.584   8.221
   414G12c H00Q 7558   0.407   5.554   8.078
   414G12c O009 7559   0.595   5.477   8.083
   414G12c H00P 7560   0.684   5.506   8.091
   414G12c C01W 7561   0.487   5.793   7.974
   414G12c H00O 7562   0.541   5.879   7.939
   414G12c C01X 7563   0.341   5.764   7.929
   414G12c H00N 7564   0.285   5.703   7.999
   414G12c H00M 7565   0.281   5.854   7.916
   414G12c C01Y 7566   0.340   5.698   7.792
   414G12c C02D 7567   0.350   5.773   7.671
   414G12c H019 7568   0.347   5.881   7.672
   414G12c C02C 7569   0.367   5.707   7.550
   414G12c H01A 7570   0.382   5.756   7.456
   414G12c C02B 7571   0.364   5.564   7.553
   414G12c O00E 7572   0.375   5.503   7.434
   414G12c H01B 7573   0.403   5.413   7.442
   414G12c C02F 7574   0.358   5.490   7.670
   414G12c O00F 7575   0.377   5.355   7.662
   414G12c C02G 7576   0.351   5.285   7.781
   414G12c H017 7577   0.448   5.268   7.829
   414G12c H016 7578   0.325   5.185   7.747
   414G12c H015 7579   0.270   5.322   7.843
   414G12c C02E 7580   0.345   5.559   7.788
   414G12c H018 7581   0.357   5.507   7.882
   414G12c C01F 7582   0.916   5.714   8.094
   414G12c C01G 7583   0.928   5.712   8.235
   414G12c H00L 7584   0.853   5.735   8.309
   414G12c C01H 7585   1.046   5.653   8.288
   414G12c H00B 7586   1.044   5.617   8.389
   414G12c C01I 7587   1.159   5.636   8.209
   414G12c C01U 7588   1.032   5.698   8.020
   414G12c C00S 7589   1.200   5.352   7.617
   414G12c C00K 7590   1.325   5.433   7.786
   414G12c C00N 7591   1.033   5.646   7.893
   414G12c C000 7592   1.158   5.698   8.077
   414G12c C01J 7593   1.275   5.545   8.206
   414G12c C01K 7594   1.323   5.466   8.310
   414G12c C01P 7595   1.304   5.491   8.448
   414G12c C01Q 7596   1.255   5.623   8.496
   414G12c H00G 7597   1.283   5.700   8.425
   414G12c C01R 7598   1.189   5.638   8.611
   414G12c H00F 7599   1.189   5.555   8.680
   414G12c C01S 7600   1.118   5.762   8.663
   414G12c H00E 7601   1.144   5.783   8.767
   414G12c H00D 7602   1.133   5.852   8.603
   414G12c O005 7603   0.982   5.738   8.666
   414G12c H00C 7604   0.951   5.782   8.588
   414G12c C01O 7605   1.345   5.398   8.546
   414G12c H00H 7606   1.343   5.414   8.652
   414G12c C01N 7607   1.415   5.276   8.505
   414G12c O006 7608   1.437   5.174   8.596
   414G12c C01T 7609   1.434   5.198   8.732
   414G12c H00K 7610   1.512   5.265   8.770
   414G12c H00J 7611   1.454   5.104   8.783
   414G12c H00I 7612   1.332   5.217   8.766
   414G12c C01M 7613   1.443   5.266   8.369
   414G12c C020 7614   1.414   5.380   7.888
   414G12c C021 7615   1.505   5.267   7.872
   414G12c C01L 7616   1.398   5.358   8.266
   414G12c O007 7617   1.503   5.151   8.336
   414G12c C022 7618   1.539   5.180   7.975
   414G12c C023 7619   1.507   5.189   7.753
   414G12c C00G 7620   1.399   4.988   7.602
   414G12c C00E 7621   1.369   4.755   7.538
   414G12c O00A 7622   1.289   4.667   7.476
   414G12c C024 7623   1.160   4.648   7.544
   414G12c H00V 7624   1.103   4.561   7.510
   414G12c H00U 7625   1.096   4.734   7.525
   414G12c H00T 7626   1.174   4.624   7.649
   424G12c C00D 7627   3.834   0.486   2.600
   424G12c O00B 7628   3.918   0.582   2.538
   424G12c C025 7629   3.873   0.643   2.423
   424G12c C026 7630   3.887   0.563   2.294
   424G12c H00Y 7631   3.884   0.622   2.202
   424G12c H00X 7632   3.811   0.485   2.294
   424G12c O00C 7633   4.009   0.500   2.288
   424G12c H00W 7634   4.052   0.482   2.370
   424G12c C027 7635   3.826   0.770   2.432
   424G12c O00D 7636   3.823   0.824   2.554
   424G12c H00Z 7637   3.856   0.763   2.619
   424G12c C028 7638   3.782   0.846   2.317
   424G12c C029 7639   3.689   0.796   2.224
   424G12c H010 7640   3.646   0.697   2.223
   424G12c C02T 7641   3.645   0.880   2.120
   424G12c H01O 7642   3.558   0.849   2.064
   424G12c C02S 7643   3.705   1.007   2.097
   424G12c O00J 7644   3.664   1.082   1.994
   424G12c H01P 7645   3.686   1.174   1.989
   424G12c C02R 7646   3.809   1.049   2.178
   424G12c O00I 7647   3.860   1.170   2.153
   424G12c C02Q 7648   3.977   1.215   2.213
   424G12c H01N 7649   4.066   1.157   2.190
   424G12c H01R 7650   3.970   1.218   2.322
   424G12c H01Q 7651   3.999   1.315   2.176
   424G12c C02A 7652   3.838   0.973   2.296
   424G12c H011 7653   3.901   1.019   2.371
   424G12c C00C 7654   3.705   0.474   2.564
   424G12c H012 7655   3.658   0.540   2.491
   424G12c C00B 7656   3.619   0.382   2.625
   424G12c C00A 7657   3.477   0.371   2.606
   424G12c C009 7658   3.380   0.475   2.578
   424G12c C008 7659   3.388   0.610   2.553
   424G12c H013 7660   3.477   0.666   2.528
   424G12c C007 7661   3.274   0.690   2.571
   424G12c H014 7662   3.287   0.797   2.566
   424G12c C006 7663   3.161   0.644   2.641
   424G12c C005 7664   3.161   0.505   2.659
   424G12c C004 7665   3.059   0.442   2.733
   424G12c C003 7666   3.076   0.306   2.778
   424G12c C002 7667   2.967   0.253   2.859
   424G12c C001 7668   2.948   0.128   2.928
   424G12c C00M 7669   3.055   0.077   3.014
   424G12c C00L 7670   3.187   0.065   2.970
   424G12c C00R 7671   3.303   0.040   3.044
   424G12c C00Q 7672   3.323   0.016   3.185
   424G12c C00V 7673   3.464   0.002   3.217
   424G12c C00U 7674   3.567   0.040   3.129
   424G12c C00T 7675   3.541   0.077   2.999
   424G12c C016 7676   3.632   0.146   2.920
   424G12c C015 7677   3.761   0.160   2.966
   424G12c C010 7678   3.796   0.096   3.080
   424G12c C011 7679   3.932   0.102   3.120
   424G12c H005 7680   3.966   0.046   3.206
   424G12c C012 7681   4.037   0.163   3.047
   424G12c C017 7682   4.175   0.151   3.091
   424G12c O002 7683   4.210   0.038   3.160
   424G12c H004 7684   4.146   6.492   3.141
   424G12c C018 7685   4.265   0.251   3.059
   424G12c O001 7686   4.238   0.367   2.987
   424G12c H003 7687   4.326   0.401   2.981
   424G12c C019 7688   4.414   0.253   3.088
   424G12c H002 7689   4.435   0.226   3.192
   424G12c H001 7690   4.452   0.166   3.035
   424G12c O000 7691   4.476   0.373   3.043
   424G12c C01A 7692   4.510   0.466   3.141
   424G12c C02K 7693   4.633   0.538   3.123
   424G12c O00G 7694   4.721   0.493   3.029
   424G12c C02M 7695   4.834   0.564   2.995
   424G12c H01G 7696   4.907   0.574   3.076
   424G12c H01F 7697   4.823   0.664   2.953
   424G12c H01E 7698   4.887   0.517   2.912
   424G12c C02J 7699   4.650   0.641   3.219
   424G12c H01H 7700   4.738   0.703   3.206
   424G12c C02I 7701   4.569   0.673   3.329
   424G12c C02N 7702   4.605   0.785   3.411
   424G12c H01M 7703   4.688   0.848   3.381
   424G12c C02O 7704   4.543   0.812   3.525
   424G12c H01L 7705   4.465   0.748   3.564
   424G12c C02P 7706   4.585   0.919   3.623
   424G12c H01K 7707   4.655   0.990   3.579
   424G12c H01J 7708   4.496   0.977   3.648
   424G12c O00H 7709   4.641   0.857   3.740
   424G12c H01I 7710   4.595   0.778   3.765
   424G12c C02H 7711   4.449   0.598   3.339
   424G12c H01C 7712   4.378   0.625   3.416
   424G12c C02L 7713   4.419   0.496   3.250
   424G12c H01D 7714   4.327   0.447   3.274
   424G12c C013 7715   3.988   0.223   2.929
   424G12c H000 7716   4.063   0.253   2.857
   424G12c C014 7717   3.854   0.237   2.886
   424G12c C00F 7718   3.805   0.312   2.774
   424G12c C00H 7719   3.585   0.207   2.798
   424G12c C00I 7720   3.454   0.188   2.758
   424G12c C00J 7721   3.369   0.112   2.842
   424G12c C00Z 7722   3.701   0.032   3.166
   424G12c C00Y 7723   3.737   6.506   3.298
   424G12c H006 7724   3.837   6.494   3.338
   424G12c C00X 7725   3.635   6.466   3.389
   424G12c O003 7726   3.669   6.398   3.506
   424G12c C01B 7727   3.728   6.267   3.488
   424G12c H009 7728   3.739   6.222   3.586
   424G12c H008 7729   3.822   6.264   3.432
   424G12c H007 7730   3.656   6.207   3.432
   424G12c C00W 7731   3.505   6.479   3.348
   424G12c O004 7732   3.406   6.444   3.436
   424G12c C01C 7733   3.286   6.509   3.420
   424G12c H00A 7734   3.225   6.482   3.505
   424G12c C00P 7735   3.232   0.017   3.296
   424G12c C00O 7736   3.092   0.059   3.276
   424G12c C01D 7737   3.018   0.086   3.396
   424G12c H00S 7738   3.053   0.063   3.496
   424G12c C01E 7739   2.896   0.173   3.389
   424G12c O008 7740   2.841   0.228   3.508
   424G12c C01V 7741   2.929   0.254   3.613
   424G12c C01Z 7742   2.941   0.142   3.727
   424G12c H00R 7743   2.931   0.044   3.680
   424G12c H00Q 7744   3.039   0.149   3.773
   424G12c O009 7745   2.829   0.147   3.813
   424G12c H00P 7746   2.757   0.130   3.754
   424G12c C01W 7747   3.004   0.370   3.610
   424G12c H00O 7748   2.978   0.433   3.526
   424G12c C01X 7749   3.107   0.431   3.704
   424G12c H00N 7750   3.075   0.536   3.702
   424G12c H00M 7751   3.084   0.392   3.804
   424G12c C01Y 7752   3.249   0.428   3.655
   424G12c C02D 7753   3.287   0.355   3.543
   424G12c H019 7754   3.210   0.303   3.487
   424G12c C02C 7755   3.421   0.330   3.506
   424G12c H01A 7756   3.467   0.265   3.433
   424G12c C02B 7757   3.517   0.385   3.596
   424G12c O00E 7758   3.647   0.354   3.574
   424G12c H01B 7759   3.715   0.408   3.612
   424G12c C02F 7760   3.485   0.471   3.700
   424G12c O00F 7761   3.590   0.531   3.769
   424G12c C02G 7762   3.562   0.632   3.863
   424G12c H017 7763   3.507   0.718   3.826
   424G12c H016 7764   3.653   0.668   3.911
   424G12c H015 7765   3.499   0.601   3.947
   424G12c C02E 7766   3.347   0.495   3.730
   424G12c H018 7767   3.318   0.560   3.811
   424G12c C01F 7768   2.841   0.197   3.263
   424G12c C01G 7769   2.741   0.302   3.241
   424G12c H00L 7770   2.707   0.366   3.321
   424G12c C01H 7771   2.711   0.344   3.109
   424G12c H00B 7772   2.654   0.434   3.093
   424G12c C01I 7773   2.785   0.284   3.001
   424G12c C01U 7774   2.879   0.129   3.149
   424G12c C00S 7775   3.412   0.049   2.958
   424G12c C00K 7776   3.229   0.119   2.845
   424G12c C00N 7777   3.018   0.085   3.153
   424G12c C000 7778   2.842   0.153   3.019
   424G12c C01J 7779   2.855   0.338   2.888
   424G12c C01K 7780   2.834   0.473   2.838
   424G12c C01P 7781   2.716   0.561   2.841
   424G12c C01Q 7782   2.576   0.504   2.868
   424G12c H00G 7783   2.550   0.400   2.855
   424G12c C01R 7784   2.484   0.588   2.921
   424G12c H00F 7785   2.495   0.691   2.951
   424G12c C01S 7786   2.338   0.538   2.932
   424G12c H00E 7787   2.269   0.620   2.947
   424G12c H00D 7788   2.309   0.493   2.837
   424G12c O005 7789   2.323   0.448   3.040
   424G12c H00C 7790   2.237   0.409   3.034
   424G12c C01O 7791   2.723   0.697   2.799
   424G12c H00H 7792   2.628   0.747   2.783
   424G12c C01N 7793   2.840   0.751   2.746
   424G12c O006 7794   2.849   0.876   2.704
   424G12c C01T 7795   2.735   0.955   2.697
   424G12c H00K 7796   2.691   0.962   2.797
   424G12c H00J 7797   2.664   0.917   2.624
   424G12c H00I 7798   2.757   1.060   2.682
   424G12c C01M 7799   2.949   0.660   2.729
   424G12c C020 7800   3.188   0.228   2.754
   424G12c C021 7801   3.266   0.278   2.648
   424G12c C01L 7802   2.943   0.518   2.764
   424G12c O007 7803   3.058   0.726   2.675
   424G12c C022 7804   3.258   0.414   2.608
   424G12c C023 7805   3.404   0.254   2.645
   424G12c C00G 7806   3.669   0.297   2.729
   424G12c C00E 7807   3.885   0.406   2.703
   424G12c O00A 7808   4.003   0.448   2.746
   424G12c C024 7809   4.002   0.544   2.854
   424G12c H00V 7810   4.104   0.579   2.867
   424G12c H00U 7811   3.958   0.494   2.941
   424G12c H00T 7812   3.933   0.624   2.826
   434G12c C00D 7813   4.863   1.089   7.796
   434G12c O00B 7814   4.847   1.146   7.922
   434G12c C025 7815   4.815   1.065   8.028
   434G12c C026 7816   4.928   1.019   8.115
   434G12c H00Y 7817   5.023   1.006   8.065
   434G12c H00X 7818   4.904   0.920   8.156
   434G12c O00C 7819   4.944   1.118   8.216
   434G12c H00W 7820   4.890   1.192   8.193
   434G12c C027 7821   4.683   1.036   8.055
   434G12c O00D 7822   4.587   1.098   7.979
   434G12c H00Z 7823   4.635   1.162   7.930
   434G12c C028 7824   4.633   0.941   8.154
   434G12c C029 7825   4.550   0.834   8.105
   434G12c H010 7826   4.540   0.819   7.999
   434G12c C02T 7827   4.494   0.741   8.196
   434G12c H01O 7828   4.436   0.655   8.163
   434G12c C02S 7829   4.528   0.753   8.330
   434G12c O00J 7830   4.470   0.661   8.409
   434G12c H01P 7831   4.501   0.680   8.496
   434G12c C02R 7832   4.625   0.838   8.375
   434G12c O00I 7833   4.653   0.826   8.505
   434G12c C02Q 7834   4.770   0.890   8.557
   434G12c H01N 7835   4.767   0.999   8.565
   434G12c H01R 7836   4.865   0.861   8.511
   434G12c H01Q 7837   4.783   0.847   8.656
   434G12c C02A 7838   4.675   0.937   8.292
   434G12c H011 7839   4.739   1.015   8.331
   434G12c C00C 7840   4.911   1.184   7.711
   434G12c H012 7841   4.936   1.281   7.751
   434G12c C00B 7842   4.967   1.150   7.588
   434G12c C00A 7843   5.059   1.231   7.507
   434G12c C009 7844   5.052   1.373   7.487
   434G12c C008 7845   4.977   1.476   7.541
   434G12c H013 7846   4.931   1.460   7.638
   434G12c C007 7847   4.958   1.590   7.458
   434G12c H014 7848   4.892   1.665   7.498
   434G12c C006 7849   5.011   1.606   7.328
   434G12c C005 7850   5.087   1.503   7.282
   434G12c C004 7851   5.119   1.486   7.145
   434G12c C003 7852   5.157   1.360   7.096
   434G12c C002 7853   5.175   1.358   6.953
   434G12c C001 7854   5.228   1.258   6.869
   434G12c C00M 7855   5.186   1.116   6.867
   434G12c C00L 7856   5.169   1.050   6.987
   434G12c C00R 7857   5.090   0.930   7.003
   434G12c C00Q 7858   5.023   0.845   6.915
   434G12c C00V 7859   4.941   0.754   6.979
   434G12c C00U 7860   4.909   0.755   7.117
   434G12c C00T 7861   4.970   0.845   7.199
   434G12c C016 7862   4.937   0.873   7.335
   434G12c C015 7863   4.843   0.794   7.397
   434G12c C010 7864   4.786   0.691   7.317
   434G12c C011 7865   4.687   0.611   7.381
   434G12c H005 7866   4.651   0.523   7.329
   434G12c C012 7867   4.662   0.627   7.515
   434G12c C017 7868   4.575   0.534   7.584
   434G12c O002 7869   4.444   0.524   7.545
   434G12c H004 7870   4.408   0.461   7.605
   434G12c C018 7871   4.627   0.455   7.681
   434G12c O001 7872   4.763   0.455   7.706
   434G12c H003 7873   4.804   0.498   7.633
   434G12c C019 7874   4.549   0.357   7.765
   434G12c H002 7875   4.598   0.260   7.755
   434G12c H001 7876   4.543   0.391   7.868
   434G12c O000 7877   4.411   0.359   7.744
   434G12c C01A 7878   4.348   0.257   7.682
   434G12c C02K 7879   4.232   0.291   7.609
   434G12c O00G 7880   4.185   0.421   7.620
   434G12c C02M 7881   4.052   0.446   7.667
   434G12c H01G 7882   3.972   0.397   7.612
   434G12c H01F 7883   4.041   0.553   7.684
   434G12c H01E 7884   4.056   0.410   7.770
   434G12c C02J 7885   4.164   0.198   7.532
   434G12c H01H 7886   4.087   0.237   7.468
   434G12c C02I 7887   4.215   0.068   7.521
   434G12c C02N 7888   4.160   6.500   7.425
   434G12c H01M 7889   4.135   6.398   7.452
   434G12c C02O 7890   4.110   0.018   7.309
   434G12c H01L 7891   4.122   0.120   7.273
   434G12c C02P 7892   4.059   6.445   7.202
   434G12c H01K 7893   4.051   6.340   7.231
   434G12c H01J 7894   3.959   6.477   7.173
   434G12c O00H 7895   4.141   6.452   7.084
   434G12c H01I 7896   4.121   0.007   7.032
   434G12c C02H 7897   4.323   0.033   7.603
   434G12c H01C 7898   4.352   6.451   7.596
   434G12c C02L 7899   4.390   0.125   7.690
   434G12c H01D 7900   4.467   0.105   7.763
   434G12c C013 7901   4.702   0.741   7.584
   434G12c H000 7902   4.662   0.749   7.684
   434G12c C014 7903   4.807   0.819   7.532
   434G12c C00F 7904   4.862   0.931   7.599
   434G12c C00H 7905   4.996   0.980   7.402
   434G12c C00I 7906   5.095   1.058   7.333
   434G12c C00J 7907   5.140   1.018   7.205
   434G12c C00Z 7908   4.812   0.676   7.181
   434G12c C00Y 7909   4.752   0.581   7.100
   434G12c H006 7910   4.672   0.517   7.133
   434G12c C00X 7911   4.770   0.574   6.958
   434G12c O003 7912   4.714   0.473   6.875
   434G12c C01B 7913   4.648   0.369   6.943
   434G12c H009 7914   4.711   0.324   7.020
   434G12c H008 7915   4.635   0.277   6.886
   434G12c H007 7916   4.551   0.404   6.976
   434G12c C00W 7917   4.864   0.665   6.898
   434G12c O004 7918   4.868   0.663   6.763
   434G12c C01C 7919   4.970   0.730   6.705
   434G12c H00A 7920   5.014   0.706   6.610
   434G12c C00P 7921   5.023   0.847   6.770
   434G12c C00O 7922   5.058   0.962   6.691
   434G12c C01D 7923   5.015   0.973   6.550
   434G12c H00S 7924   4.963   0.892   6.502
   434G12c C01E 7925   5.011   1.098   6.479
   434G12c O008 7926   4.949   1.103   6.351
   434G12c C01V 7927   4.955   1.000   6.260
   434G12c C01Z 7928   4.821   0.991   6.188
   434G12c H00R 7929   4.813   0.912   6.114
   434G12c H00Q 7930   4.739   0.972   6.258
   434G12c O009 7931   4.792   1.113   6.127
   434G12c H00P 7932   4.834   1.177   6.183
   434G12c C01W 7933   5.069   0.930   6.239
   434G12c H00O 7934   5.160   0.968   6.283
   434G12c C01X 7935   5.083   0.809   6.152
   434G12c H00N 7936   5.019   0.805   6.064
   434G12c H00M 7937   5.184   0.820   6.112
   434G12c C01Y 7938   5.063   0.677   6.221
   434G12c C02D 7939   5.145   0.567   6.197
   434G12c H019 7940   5.229   0.571   6.128
   434G12c C02C 7941   5.127   0.446   6.266
   434G12c H01A 7942   5.187   0.357   6.254
   434G12c C02B 7943   5.016   0.435   6.355
   434G12c O00E 7944   4.992   0.317   6.418
   434G12c H01B 7945   4.920   0.333   6.477
   434G12c C02F 7946   4.931   0.543   6.383
   434G12c O00F 7947   4.829   0.531   6.477
   434G12c C02G 7948   4.723   0.628   6.495
   434G12c H017 7949   4.681   0.647   6.396
   434G12c H016 7950   4.748   0.732   6.520
   434G12c H015 7951   4.651   0.609   6.575
   434G12c C02E 7952   4.951   0.661   6.307
   434G12c H018 7953   4.885   0.747   6.314
   434G12c C01F 7954   5.057   1.217   6.547
   434G12c C01G 7955   5.023   1.355   6.519
   434G12c H00L 7956   4.964   1.369   6.430
   434G12c C01H 7957   5.046   1.458   6.614
   434G12c H00B 7958   4.978   1.542   6.610
   434G12c C01I 7959   5.130   1.425   6.731
   434G12c C01U 7960   5.139   1.192   6.658
   434G12c C00S 7961   5.081   0.911   7.143
   434G12c C00K 7962   5.180   1.115   7.112
   434G12c C00N 7963   5.126   1.078   6.738
   434G12c C000 7964   5.196   1.300   6.734
   434G12c C01J 7965   5.136   1.470   6.868
   434G12c C01K 7966   5.101   1.602   6.919
   434G12c C01P 7967   5.076   1.723   6.848
   434G12c C01Q 7968   5.102   1.743   6.709
   434G12c H00G 7969   5.186   1.703   6.654
   434G12c C01R 7970   5.010   1.804   6.629
   434G12c H00F 7971   4.911   1.828   6.667
   434G12c C01S 7972   5.031   1.830   6.484
   434G12c H00E 7973   5.130   1.803   6.447
   434G12c H00D 7974   4.962   1.774   6.421
   434G12c O005 7975   5.004   1.970   6.475
   434G12c H00C 7976   5.060   2.007   6.408
   434G12c C01O 7977   5.031   1.836   6.917
   434G12c H00H 7978   5.013   1.927   6.862
   434G12c C01N 7979   4.998   1.828   7.052
   434G12c O006 7980   4.966   1.947   7.120
   434G12c C01T 7981   4.911   2.062   7.053
   434G12c H00K 7982   4.883   2.140   7.124
   434G12c H00J 7983   4.827   2.028   6.992
   434G12c H00I 7984   4.990   2.108   6.994
   434G12c C01M 7985   5.029   1.710   7.124
   434G12c C020 7986   5.189   1.247   7.174
   434G12c C021 7987   5.172   1.275   7.312
   434G12c C01L 7988   5.087   1.597   7.059
   434G12c O007 7989   4.993   1.713   7.253
   434G12c C022 7990   5.114   1.389   7.359
   434G12c C023 7991   5.125   1.177   7.396
   434G12c C00G 7992   4.945   1.021   7.527
   434G12c C00E 7993   4.834   0.960   7.738
   434G12c O00A 7994   4.778   0.872   7.826
   434G12c C024 7995   4.875   0.777   7.877
   434G12c H00V 7996   4.828   0.716   7.954
   434G12c H00U 7997   4.966   0.823   7.916
   434G12c H00T 7998   4.921   0.714   7.801
   444G12c C00D 7999   6.216   0.201   7.436
   444G12c O00B 8000   6.089   0.236   7.393
   444G12c C025 8001   6.070   0.338   7.308
   444G12c C026 8002   6.014   0.300   7.171
   444G12c H00Y 8003   6.090   0.290   7.093
   444G12c H00X 8004   5.965   0.383   7.121
   444G12c O00C 8005   5.925   0.189   7.184
   444G12c H00W 8006   5.893   0.197   7.273
   444G12c C027 8007   6.112   0.454   7.348
   444G12c O00D 8008   6.147   0.479   7.476
   444G12c H00Z 8009   6.114   0.407   7.528
   444G12c C028 8010   6.110   0.573   7.264
   444G12c C029 8011   6.163   0.571   7.132
   444G12c H010 8012   6.217   0.481   7.105
   444G12c C02T 8013   6.144   0.686   7.049
   444G12c H01O 8014   6.170   0.676   6.944
   444G12c C02S 8015   6.104   0.807   7.101
   444G12c O00J 8016   6.100   0.916   7.023
   444G12c H01P 8017   6.083   0.990   7.079
   444G12c C02R 8018   6.048   0.815   7.229
   444G12c O00I 8019   5.983   0.928   7.273
   444G12c C02Q 8020   5.898   0.918   7.388
   444G12c H01N 8021   5.797   0.885   7.364
   444G12c H01R 8022   5.878   1.021   7.415
   444G12c H01Q 8023   5.947   0.876   7.476
   444G12c C02A 8024   6.059   0.697   7.309
   444G12c H011 8025   6.039   0.691   7.415
   444G12c C00C 8026   6.231   0.169   7.568
   444G12c H012 8027   6.147   0.193   7.632
   444G12c C00B 8028   6.344   0.107   7.619
   444G12c C00A 8029   6.372   0.081   7.755
   444G12c C009 8030   6.325   0.144   7.877
   444G12c C008 8031   6.231   0.247   7.903
   444G12c H013 8032   6.160   0.270   7.825
   444G12c C007 8033   6.251   0.336   8.016
   444G12c H014 8034   6.176   0.413   8.022
   444G12c C006 8035   6.358   0.316   8.105
   444G12c C005 8036   6.448   0.211   8.078
   444G12c C004 8037   0.050   0.191   8.147
   444G12c C003 8038   0.151   0.096   8.097
   444G12c C002 8039   0.271   0.084   8.171
   444G12c C001 8040   0.393   0.017   8.149
   444G12c C00M 8041   0.457   0.008   8.018
   444G12c C00L 8042   0.387   6.489   7.903
   444G12c C00R 8043   0.427   6.508   7.769
   444G12c C00Q 8044   0.553   0.025   7.708
   444G12c C00V 8045   0.542   0.043   7.572
   444G12c C00U 8046   0.424   0.041   7.492
   444G12c C00T 8047   0.304   0.021   7.557
   444G12c C016 8048   0.177   0.037   7.507
   444G12c C015 8049   0.175   0.083   7.371
   444G12c C010 8050   0.298   0.091   7.302
   444G12c C011 8051   0.286   0.121   7.164
   444G12c H005 8052   0.370   0.121   7.096
   444G12c C012 8053   0.162   0.150   7.105
   444G12c C017 8054   0.143   0.179   6.964
   444G12c O002 8055   0.230   0.265   6.906
   444G12c H004 8056   0.190   0.273   6.821
   444G12c C018 8057   0.056   0.113   6.884
   444G12c O001 8058   0.005   6.518   6.935
   444G12c H003 8059   0.043   6.501   7.020
   444G12c C019 8060   0.037   0.133   6.737
   444G12c H002 8061   0.102   0.067   6.679
   444G12c H001 8062   6.457   0.109   6.705
   444G12c O000 8063   0.080   0.261   6.704
   444G12c C01A 8064   0.024   0.319   6.595
   444G12c C02K 8065   6.420   0.387   6.608
   444G12c O00G 8066   6.357   0.387   6.731
   444G12c C02M 8067   6.223   0.431   6.731
   444G12c H01G 8068   6.182   0.429   6.832
   444G12c H01F 8069   6.158   0.372   6.667
   444G12c H01E 8070   6.215   0.535   6.699
   444G12c C02J 8071   6.375   0.457   6.489
   444G12c H01H 8072   6.282   0.512   6.504
   444G12c C02I 8073   6.438   0.439   6.359
   444G12c C02N 8074   6.398   0.515   6.241
   444G12c H01M 8075   6.444   0.503   6.143
   444G12c C02O 8076   6.297   0.606   6.257
   444G12c H01L 8077   6.233   0.614   6.343
   444G12c C02P 8078   6.249   0.695   6.148
   444G12c H01K 8079   6.198   0.777   6.197
   444G12c H01J 8080   6.338   0.735   6.099
   444G12c O00H 8081   6.171   0.624   6.057
   444G12c H01I 8082   6.107   0.684   6.023
   444G12c C02H 8083   0.038   0.357   6.358
   444G12c H01C 8084   0.093   0.345   6.266
   444G12c C02L 8085   0.095   0.308   6.477
   444G12c H01D 8086   0.188   0.253   6.478
   444G12c C013 8087   0.052   0.169   7.184
   444G12c H000 8088   6.493   0.219   7.131
   444G12c C014 8089   0.050   0.122   7.313
   444G12c C00F 8090   6.451   0.121   7.397
   444G12c C00H 8091   0.058   0.034   7.587
   444G12c C00I 8092   0.071   6.516   7.717
   444G12c C00J 8093   0.200   6.486   7.766
   444G12c C00Z 8094   0.421   0.074   7.364
   444G12c C00Y 8095   0.539   0.107   7.296
   444G12c H006 8096   0.542   0.138   7.193
   444G12c C00X 8097   0.665   0.103   7.362
   444G12c O003 8098   0.787   0.115   7.299
   444G12c C01B 8099   0.790   0.119   7.155
   444G12c H009 8100   0.891   0.097   7.121
   444G12c H008 8101   0.760   0.217   7.118
   444G12c H007 8102   0.731   0.036   7.115
   444G12c C00W 8103   0.664   0.069   7.499
   444G12c O004 8104   0.793   0.064   7.551
   444G12c C01C 8105   0.799   0.058   7.688
   444G12c H00A 8106   0.894   0.047   7.737
   444G12c C00P 8107   0.681   0.053   7.773
   444G12c C00O 8108   0.688   0.090   7.910
   444G12c C01D 8109   0.796   0.171   7.952
   444G12c H00S 8110   0.882   0.187   7.888
   444G12c C01E 8111   0.794   0.248   8.075
   444G12c O008 8112   0.883   0.346   8.115
   444G12c C01V 8113   1.012   0.350   8.061
   444G12c C01Z 8114   1.045   0.462   7.967
   444G12c H00R 8115   1.015   0.558   8.008
   444G12c H00Q 8116   1.153   0.469   7.950
   444G12c O009 8117   0.985   0.443   7.843
   444G12c H00P 8118   0.895   0.451   7.871
   444G12c C01W 8119   1.099   0.248   8.085
   444G12c H00O 8120   1.069   0.157   8.136
   444G12c C01X 8121   1.238   0.233   8.033
   444G12c H00N 8122   1.291   0.329   8.028
   444G12c H00M 8123   1.283   0.169   8.108
   444G12c C01Y 8124   1.237   0.171   7.898
   444G12c C02D 8125   1.155   0.058   7.872
   444G12c H019 8126   1.091   0.016   7.949
   444G12c C02C 8127   1.169   6.506   7.753
   444G12c H01A 8128   1.109   6.420   7.723
   444G12c C02B 8129   1.264   0.020   7.653
   444G12c O00E 8130   1.275   6.476   7.537
   444G12c H01B 8131   1.342   6.516   7.484
   444G12c C02F 8132   1.333   0.146   7.671
   444G12c O00F 8133   1.419   0.184   7.570
   444G12c C02G 8134   1.469   0.316   7.562
   444G12c H017 8135   1.529   0.337   7.474
   444G12c H016 8136   1.540   0.337   7.642
   444G12c H015 8137   1.396   0.397   7.558
   444G12c C02E 8138   1.326   0.214   7.794
   444G12c H018 8139   1.382   0.306   7.801
   444G12c C01F 8140   0.684   0.234   8.163
   444G12c C01G 8141   0.640   0.335   8.250
   444G12c H00L 8142   0.699   0.426   8.249
   444G12c C01H 8143   0.514   0.324   8.316
   444G12c H00B 8144   0.481   0.415   8.364
   444G12c C01I 8145   0.438   0.206   8.293
   444G12c C01U 8146   0.603   0.116   8.148
   444G12c C00S 8147   0.314   6.502   7.691
   444G12c C00K 8148   0.239   6.492   7.901
   444G12c C00N 8149   0.592   0.067   8.014
   444G12c C000 8150   0.492   0.091   8.226
   444G12c C01J 8151   0.297   0.182   8.278
   444G12c C01K 8152   0.197   0.271   8.331
   444G12c C01P 8153   0.200   0.353   8.450
   444G12c C01Q 8154   0.304   0.333   8.553
   444G12c H00G 8155   0.346   0.234   8.564
   444G12c C01R 8156   0.354   0.430   8.626
   444G12c H00F 8157   0.317   0.531   8.629
   444G12c C01S 8158   0.468   0.415   8.727
   444G12c H00E 8159   0.547   0.489   8.708
   444G12c H00D 8160   0.430   0.428   8.828
   444G12c O005 8161   0.522   0.284   8.732
   444G12c H00C 8162   0.496   0.246   8.815
   444G12c C01O 8163   0.096   0.445   8.474
   444G12c H00H 8164   0.101   0.500   8.566
   444G12c C01N 8165   6.512   0.471   8.382
   444G12c O006 8166   6.416   0.565   8.425
   444G12c C01T 8167   6.279   0.537   8.404
   444G12c H00K 8168   6.249   0.579   8.308
   444G12c H00J 8169   6.220   0.579   8.486
   444G12c H00I 8170   6.257   0.430   8.407
   444G12c C01M 8171   6.497   0.377   8.284
   444G12c C020 8172   0.126   0.018   7.978
   444G12c C021 8173   6.509   0.017   7.938
   444G12c C01L 8174   0.076   0.278   8.251
   444G12c O007 8175   6.386   0.404   8.202
   444G12c C022 8176   6.422   0.112   7.977
   444G12c C023 8177   6.480   0.004   7.797
   444G12c C00G 8178   6.457   0.082   7.536
   444G12c C00E 8179   6.322   0.167   7.346
   444G12c O00A 8180   6.300   0.185   7.218
   444G12c C024 8181   6.252   0.077   7.141
   444G12c H00V 8182   6.154   0.042   7.172
   444G12c H00U 8183   6.316   6.511   7.152
   444G12c H00T 8184   6.243   0.095   7.033
   454G12c C00D 8185   4.315   2.278   3.965
   454G12c O00B 8186   4.378   2.207   3.863
   454G12c C025 8187   4.404   2.077   3.886
   454G12c C026 8188   4.280   1.982   3.887
   454G12c H00Y 8189   4.291   1.896   3.822
   454G12c H00X 8190   4.186   2.032   3.862
   454G12c O00C 8191   4.265   1.912   4.006
   454G12c H00W 8192   4.340   1.860   4.030
   454G12c C027 8193   4.532   2.048   3.909
   454G12c O00D 8194   4.619   2.150   3.912
   454G12c H00Z 8195   4.562   2.226   3.903
   454G12c C028 8196   4.584   1.914   3.930
   454G12c C029 8197   4.547   1.801   3.858
   454G12c H010 8198   4.472   1.812   3.781
   454G12c C02T 8199   4.603   1.676   3.888
   454G12c H01O 8200   4.560   1.595   3.832
   454G12c C02S 8201   4.706   1.663   3.987
   454G12c O00J 8202   4.758   1.543   4.014
   454G12c H01P 8203   4.842   1.556   4.057
   454G12c C02R 8204   4.743   1.775   4.058
   454G12c O00I 8205   4.856   1.753   4.137
   454G12c C02Q 8206   4.909   1.863   4.205
   454G12c H01N 8207   4.845   1.895   4.288
   454G12c H01R 8208   4.945   1.946   4.145
   454G12c H01Q 8209   5.002   1.829   4.251
   454G12c C02A 8210   4.685   1.900   4.029
   454G12c H011 8211   4.724   1.987   4.079
   454G12c C00C 8212   4.275   2.233   4.093
   454G12c H012 8213   4.302   2.133   4.123
   454G12c C00B 8214   4.218   2.318   4.190
   454G12c C00A 8215   4.185   2.290   4.326
   454G12c C009 8216   4.144   2.164   4.380
   454G12c C008 8217   4.131   2.025   4.331
   454G12c H013 8218   4.191   1.993   4.248
   454G12c C007 8219   4.048   1.934   4.405
   454G12c H014 8220   4.039   1.829   4.381
   454G12c C006 8221   3.968   1.981   4.515
   454G12c C005 8222   3.976   2.116   4.546
   454G12c C004 8223   3.869   2.171   4.618
   454G12c C003 8224   3.856   2.314   4.621
   454G12c C002 8225   3.744   2.365   4.697
   454G12c C001 8226   3.694   2.500   4.722
   454G12c C00M 8227   3.690   2.611   4.624
   454G12c C00L 8228   3.796   2.620   4.528
   454G12c C00R 8229   3.795   2.712   4.422
   454G12c C00Q 8230   3.696   2.790   4.356
   454G12c C00V 8231   3.744   2.841   4.232
   454G12c C00U 8232   3.869   2.810   4.173
   454G12c C00T 8233   3.959   2.725   4.231
   454G12c C016 8234   4.062   2.658   4.167
   454G12c C015 8235   4.092   2.699   4.041
   454G12c C010 8236   4.038   2.821   3.991
   454G12c C011 8237   4.098   2.878   3.879
   454G12c H005 8238   4.052   2.966   3.836
   454G12c C012 8239   4.205   2.818   3.806
   454G12c C017 8240   4.255   2.885   3.687
   454G12c O002 8241   4.270   2.805   3.577
   454G12c H004 8242   4.198   2.823   3.518
   454G12c C018 8243   4.279   3.021   3.690
   454G12c O001 8244   4.279   3.091   3.809
   454G12c H003 8245   4.278   3.026   3.878
   454G12c C019 8246   4.312   3.103   3.565
   454G12c H002 8247   4.420   3.118   3.570
   454G12c H001 8248   4.280   3.040   3.482
   454G12c O000 8249   4.240   3.225   3.552
   454G12c C01A 8250   4.242   3.297   3.433
   454G12c C02K 8251   4.161   3.411   3.435
   454G12c O00G 8252   4.104   3.445   3.551
   454G12c C02M 8253   4.008   3.555   3.550
   454G12c H01G 8254   3.971   3.565   3.652
   454G12c H01F 8255   3.922   3.526   3.490
   454G12c H01E 8256   4.039   3.653   3.513
   454G12c C02J 8257   4.132   3.476   3.308
   454G12c H01H 8258   4.081   3.571   3.308
   454G12c C02I 8259   4.193   3.435   3.189
   454G12c C02N 8260   4.166   3.485   3.059
   454G12c H01M 8261   4.160   3.425   2.969
   454G12c C02O 8262   4.153   3.617   3.042
   454G12c H01L 8263   4.166   3.680   3.129
   454G12c C02P 8264   4.118   3.682   2.914
   454G12c H01K 8265   4.175   3.770   2.883
   454G12c H01J 8266   4.128   3.609   2.834
   454G12c O00H 8267   3.984   3.721   2.928
   454G12c H01I 8268   3.961   3.756   2.843
   454G12c C02H 8269   4.288   3.329   3.194
   454G12c H01C 8270   4.339   3.299   3.103
   454G12c C02L 8271   4.316   3.262   3.315
   454G12c H01D 8272   4.380   3.174   3.312
   454G12c C013 8273   4.240   2.686   3.853
   454G12c H000 8274   4.337   2.652   3.822
   454G12c C014 8275   4.181   2.623   3.972
   454G12c C00F 8276   4.218   2.493   4.013
   454G12c C00H 8277   4.115   2.538   4.224
   454G12c C00I 8278   4.091   2.511   4.357
   454G12c C00J 8279   4.000   2.599   4.422
   454G12c C00Z 8280   3.921   2.870   4.057
   454G12c C00Y 8281   3.850   2.983   4.006
   454G12c H006 8282   3.891   3.037   3.922
   454G12c C00X 8283   3.724   3.016   4.068
   454G12c O003 8284   3.646   3.125   4.036
   454G12c C01B 8285   3.709   3.225   3.967
   454G12c H009 8286   3.794   3.268   4.019
   454G12c H008 8287   3.638   3.308   3.959
   454G12c H007 8288   3.741   3.200   3.866
   454G12c C00W 8289   3.670   2.943   4.174
   454G12c O004 8290   3.545   2.980   4.219
   454G12c C01C 8291   3.478   2.893   4.300
   454G12c H00A 8292   3.377   2.864   4.277
   454G12c C00P 8293   3.556   2.802   4.386
   454G12c C00O 8294   3.492   2.729   4.497
   454G12c C01D 8295   3.350   2.722   4.506
   454G12c H00S 8296   3.292   2.778   4.434
   454G12c C01E 8297   3.276   2.634   4.588
   454G12c O008 8298   3.139   2.621   4.592
   454G12c C01V 8299   3.064   2.720   4.530
   454G12c C01Z 8300   2.974   2.670   4.414
   454G12c H00R 8301   2.973   2.561   4.409
   454G12c H00Q 8302   2.871   2.704   4.423
   454G12c O009 8303   3.009   2.726   4.298
   454G12c H00P 8304   3.097   2.692   4.288
   454G12c C01W 8305   3.064   2.849   4.575
   454G12c H00O 8306   3.120   2.891   4.657
   454G12c C01X 8307   2.993   2.968   4.518
   454G12c H00N 8308   2.895   2.935   4.485
   454G12c H00M 8309   2.974   3.025   4.609
   454G12c C01Y 8310   3.073   3.032   4.399
   454G12c C02D 8311   3.199   3.098   4.428
   454G12c H019 8312   3.237   3.108   4.529
   454G12c C02C 8313   3.275   3.143   4.319
   454G12c H01A 8314   3.372   3.187   4.335
   454G12c C02B 8315   3.235   3.124   4.188
   454G12c O00E 8316   3.320   3.174   4.088
   454G12c H01B 8317   3.302   3.125   4.009
   454G12c C02F 8318   3.113   3.064   4.158
   454G12c O00F 8319   3.089   3.060   4.027
   454G12c C02G 8320   2.956   3.029   3.991
   454G12c H017 8321   2.933   2.927   4.022
   454G12c H016 8322   2.946   3.039   3.883
   454G12c H015 8323   2.885   3.099   4.035
   454G12c C02E 8324   3.027   3.016   4.260
   454G12c H018 8325   2.938   2.965   4.230
   454G12c C01F 8326   3.350   2.537   4.659
   454G12c C01G 8327   3.300   2.410   4.704
   454G12c H00L 8328   3.195   2.393   4.686
   454G12c C01H 8329   3.387   2.311   4.759
   454G12c H00B 8330   3.348   2.213   4.781
   454G12c C01I 8331   3.525   2.344   4.771
   454G12c C01U 8332   3.482   2.569   4.683
   454G12c C00S 8333   3.924   2.694   4.365
   454G12c C00K 8334   3.917   2.543   4.526
   454G12c C00N 8335   3.555   2.654   4.598
   454G12c C000 8336   3.561   2.484   4.764
   454G12c C01J 8337   3.648   2.274   4.746
   454G12c C01K 8338   3.664   2.130   4.757
   454G12c C01P 8339   3.596   2.029   4.839
   454G12c C01Q 8340   3.517   2.074   4.954
   454G12c H00G 8341   3.479   2.175   4.958
   454G12c C01R 8342   3.492   1.989   5.059
   454G12c H00F 8343   3.526   1.887   5.060
   454G12c C01S 8344   3.419   2.036   5.187
   454G12c H00E 8345   3.479   2.031   5.277
   454G12c H00D 8346   3.378   2.135   5.163
   454G12c O005 8347   3.315   1.951   5.213
   454G12c H00C 8348   3.302   1.954   5.306
   454G12c C01O 8349   3.624   1.892   4.812
   454G12c H00H 8350   3.570   1.816   4.867
   454G12c C01N 8351   3.715   1.852   4.717
   454G12c O006 8352   3.736   1.723   4.679
   454G12c C01T 8353   3.672   1.619   4.748
   454G12c H00K 8354   3.722   1.618   4.844
   454G12c H00J 8355   3.702   1.522   4.708
   454G12c H00I 8356   3.564   1.629   4.756
   454G12c C01M 8357   3.792   1.946   4.653
   454G12c C020 8358   3.949   2.405   4.561
   454G12c C021 8359   4.070   2.340   4.520
   454G12c C01L 8360   3.777   2.085   4.679
   454G12c O007 8361   3.881   1.898   4.564
   454G12c C022 8362   4.070   2.206   4.496
   454G12c C023 8363   4.139   2.389   4.411
   454G12c C00G 8364   4.190   2.449   4.147
   454G12c C00E 8365   4.286   2.407   3.923
   454G12c O00A 8366   4.302   2.435   3.788
   454G12c C024 8367   4.181   2.419   3.716
   454G12c H00V 8368   4.124   2.329   3.736
   454G12c H00U 8369   4.198   2.434   3.609
   454G12c H00T 8370   4.111   2.502   3.726
   464G12c C00D 8371   1.582   1.615   7.741
   464G12c O00B 8372   1.675   1.706   7.793
   464G12c C025 8373   1.677   1.832   7.739
   464G12c C026 8374   1.797   1.861   7.646
   464G12c H00Y 8375   1.880   1.802   7.684
   464G12c H00X 8376   1.821   1.966   7.663
   464G12c O00C 8377   1.760   1.842   7.512
   464G12c H00W 8378   1.841   1.837   7.464
   464G12c C027 8379   1.581   1.917   7.776
   464G12c O00D 8380   1.498   1.883   7.882
   464G12c H00Z 8381   1.502   1.789   7.891
   464G12c C028 8382   1.578   2.050   7.722
   464G12c C029 8383   1.576   2.170   7.801
   464G12c H010 8384   1.587   2.160   7.908
   464G12c C02T 8385   1.577   2.299   7.745
   464G12c H01O 8386   1.575   2.383   7.812
   464G12c C02S 8387   1.580   2.308   7.605
   464G12c O00J 8388   1.582   2.424   7.541
   464G12c H01P 8389   1.583   2.495   7.603
   464G12c C02R 8390   1.579   2.196   7.524
   464G12c O00I 8391   1.587   2.218   7.384
   464G12c C02Q 8392   1.609   2.115   7.298
   464G12c H01N 8393   1.518   2.057   7.314
   464G12c H01R 8394   1.702   2.060   7.313
   464G12c H01Q 8395   1.607   2.144   7.193
   464G12c C02A 8396   1.579   2.069   7.584
   464G12c H011 8397   1.568   1.980   7.524
   464G12c C00C 8398   1.509   1.645   7.628
   464G12c H012 8399   1.509   1.742   7.581
   464G12c C00B 8400   1.436   1.559   7.553
   464G12c C00A 8401   1.374   1.573   7.422
   464G12c C009 8402   1.313   1.692   7.364
   464G12c C008 8403   1.302   1.828   7.394
   464G12c H013 8404   1.355   1.872   7.478
   464G12c C007 8405   1.204   1.905   7.330
   464G12c H014 8406   1.198   2.008   7.362
   464G12c C006 8407   1.111   1.842   7.242
   464G12c C005 8408   1.127   1.710   7.212
   464G12c C004 8409   1.026   1.634   7.149
   464G12c C003 8410   1.032   1.494   7.153
   464G12c C002 8411   0.916   1.425   7.103
   464G12c C001 8412   0.887   1.287   7.092
   464G12c C00M 8413   0.905   1.183   7.192
   464G12c C00L 8414   1.027   1.171   7.259
   464G12c C00R 8415   1.039   1.105   7.388
   464G12c C00Q 8416   0.951   1.015   7.462
   464G12c C00V 8417   1.012   0.973   7.588
   464G12c C00U 8418   1.129   1.035   7.642
   464G12c C00T 8419   1.200   1.131   7.575
   464G12c C016 8420   1.293   1.220   7.627
   464G12c C015 8421   1.329   1.202   7.755
   464G12c C010 8422   1.281   1.090   7.823
   464G12c C011 8423   1.329   1.062   7.956
   464G12c H005 8424   1.297   0.973   8.007
   464G12c C012 8425   1.429   1.142   8.013
   464G12c C017 8426   1.486   1.121   8.141
   464G12c O002 8427   1.488   1.237   8.217
   464G12c H004 8428   1.541   1.221   8.293
   464G12c C018 8429   1.543   1.007   8.179
   464G12c O001 8430   1.564   0.908   8.085
   464G12c H003 8431   1.517   0.927   8.005
   464G12c C019 8432   1.601   0.974   8.316
   464G12c H002 8433   1.516   0.915   8.348
   464G12c H001 8434   1.698   0.926   8.319
   464G12c O000 8435   1.610   1.097   8.388
   464G12c C01A 8436   1.562   1.097   8.516
   464G12c C02K 8437   1.541   1.224   8.577
   464G12c O00G 8438   1.566   1.333   8.496
   464G12c C02M 8439   1.571   1.461   8.548
   464G12c H01G 8440   1.605   1.529   8.469
   464G12c H01F 8441   1.624   1.479   8.642
   464G12c H01E 8442   1.470   1.491   8.573
   464G12c C02J 8443   1.499   1.226   8.706
   464G12c H01H 8444   1.479   1.324   8.749
   464G12c C02I 8445   1.487   1.109   8.784
   464G12c C02N 8446   1.431   1.123   8.917
   464G12c H01M 8447   1.441   1.212   8.976
   464G12c C02O 8448   1.344   1.031   8.959
   464G12c H01L 8449   1.313   0.951   8.893
   464G12c C02P 8450   1.259   1.027   9.081
   464G12c H01K 8451   1.156   1.025   9.047
   464G12c H01J 8452   1.286   0.935   9.134
   464G12c O00H 8453   1.280   1.139   9.167
   464G12c H01I 8454   1.236   1.211   9.123
   464G12c C02H 8455   1.514   0.984   8.726
   464G12c H01C 8456   1.518   0.891   8.781
   464G12c C02L 8457   1.554   0.976   8.592
   464G12c H01D 8458   1.578   0.883   8.542
   464G12c C013 8459   1.461   1.258   7.941
   464G12c H000 8460   1.530   1.316   8.001
   464G12c C014 8461   1.419   1.290   7.812
   464G12c C00F 8462   1.460   1.407   7.744
   464G12c C00H 8463   1.338   1.334   7.554
   464G12c C00I 8464   1.297   1.345   7.418
   464G12c C00J 8465   1.211   1.252   7.366
   464G12c C00Z 8466   1.169   1.020   7.774
   464G12c C00Y 8467   1.086   0.944   7.857
   464G12c H006 8468   1.110   0.929   7.962
   464G12c C00X 8469   0.978   0.868   7.807
   464G12c O003 8470   0.914   0.788   7.906
   464G12c C01B 8471   0.809   0.698   7.871
   464G12c H009 8472   0.845   0.629   7.795
   464G12c H008 8473   0.726   0.756   7.831
   464G12c H007 8474   0.778   0.646   7.962
   464G12c C00W 8475   0.939   0.886   7.672
   464G12c O004 8476   0.819   0.833   7.639
   464G12c C01C 8477   0.767   0.859   7.517
   464G12c H00A 8478   0.695   0.784   7.485
   464G12c C00P 8479   0.818   0.968   7.438
   464G12c C00O 8480   0.737   1.034   7.334
   464G12c C01D 8481   0.599   1.013   7.341
   464G12c H00S 8482   0.548   0.951   7.414
   464G12c C01E 8483   0.504   1.093   7.269
   464G12c O008 8484   0.374   1.076   7.293
   464G12c C01V 8485   0.286   1.049   7.188
   464G12c C01Z 8486   0.140   1.065   7.228
   464G12c H00R 8487   0.126   1.135   7.310
   464G12c H00Q 8488   0.070   1.086   7.147
   464G12c O009 8489   0.096   0.935   7.281
   464G12c H00P 8490   0.157   0.869   7.253
   464G12c C01W 8491   0.318   1.018   7.065
   464G12c H00O 8492   0.422   1.013   7.034
   464G12c C01X 8493   0.222   0.983   6.949
   464G12c H00N 8494   0.270   0.906   6.887
   464G12c H00M 8495   0.123   0.949   6.978
   464G12c C01Y 8496   0.207   1.118   6.877
   464G12c C02D 8497   0.087   1.183   6.868
   464G12c H019 8498   6.519   1.140   6.911
   464G12c C02C 8499   0.072   1.297   6.784
   464G12c H01A 8500   6.491   1.331   6.775
   464G12c C02B 8501   0.188   1.345   6.713
   464G12c O00E 8502   0.179   1.441   6.621
   464G12c H01B 8503   0.257   1.435   6.568
   464G12c C02F 8504   0.310   1.294   6.744
   464G12c O00F 8505   0.418   1.354   6.683
   464G12c C02G 8506   0.552   1.296   6.703
   464G12c H017 8507   0.622   1.356   6.645
   464G12c H016 8508   0.561   1.190   6.679
   464G12c H015 8509   0.595   1.309   6.802
   464G12c C02E 8510   0.318   1.180   6.825
   464G12c H018 8511   0.414   1.135   6.846
   464G12c C01F 8512   0.556   1.194   7.178
   464G12c C01G 8513   0.482   1.312   7.140
   464G12c H00L 8514   0.380   1.310   7.175
   464G12c C01H 8515   0.559   1.423   7.098
   464G12c H00B 8516   0.510   1.519   7.092
   464G12c C01I 8517   0.694   1.408   7.055
   464G12c C01U 8518   0.691   1.192   7.139
   464G12c C00S 8519   1.156   1.152   7.445
   464G12c C00K 8520   1.118   1.284   7.263
   464G12c C00N 8521   0.779   1.126   7.228
   464G12c C000 8522   0.758   1.283   7.054
   464G12c C01J 8523   0.805   1.493   7.055
   464G12c C01K 8524   0.801   1.638   7.044
   464G12c C01P 8525   0.695   1.719   6.993
   464G12c C01Q 8526   0.588   1.665   6.908
   464G12c H00G 8527   0.605   1.577   6.848
   464G12c C01R 8528   0.468   1.721   6.905
   464G12c H00F 8529   0.454   1.817   6.952
   464G12c C01S 8530   0.352   1.663   6.828
   464G12c H00E 8531   0.278   1.740   6.809
   464G12c H00D 8532   0.387   1.634   6.729
   464G12c O005 8533   0.295   1.561   6.908
   464G12c H00C 8534   0.326   1.477   6.876
   464G12c C01O 8535   0.699   1.858   7.012
   464G12c H00H 8536   0.621   1.919   6.969
   464G12c C01N 8537   0.802   1.923   7.078
   464G12c O006 8538   0.802   2.055   7.109
   464G12c C01T 8539   0.716   2.142   7.034
   464G12c H00K 8540   0.714   2.242   7.076
   464G12c H00J 8541   0.613   2.108   7.049
   464G12c H00I 8542   0.745   2.143   6.929
   464G12c C01M 8543   0.910   1.849   7.119
   464G12c C020 8544   1.133   1.415   7.212
   464G12c C021 8545   1.252   1.497   7.244
   464G12c C01L 8546   0.914   1.704   7.096
   464G12c O007 8547   1.012   1.913   7.182
   464G12c C022 8548   1.240   1.635   7.254
   464G12c C023 8549   1.334   1.462   7.353
   464G12c C00G 8550   1.415   1.434   7.611
   464G12c C00E 8551   1.562   1.490   7.799
   464G12c O00A 8552   1.649   1.466   7.902
   464G12c C024 8553   1.761   1.388   7.866
   464G12c H00V 8554   1.808   1.355   7.958
   464G12c H00U 8555   1.828   1.442   7.798
   464G12c H00T 8556   1.733   1.295   7.816
   474G12c C00D 8557   1.049   2.328   5.609
   474G12c O00B 8558   0.953   2.267   5.684
   474G12c C025 8559   0.862   2.189   5.619
   474G12c C026 8560   0.914   2.053   5.568
   474G12c H00Y 8561   0.835   1.979   5.583
   474G12c H00X 8562   0.992   2.020   5.637
   474G12c O00C 8563   0.962   2.048   5.435
   474G12c H00W 8564   1.051   2.020   5.451
   474G12c C027 8565   0.740   2.238   5.608
   474G12c O00D 8566   0.713   2.352   5.668
   474G12c H00Z 8567   0.795   2.375   5.708
   474G12c C028 8568   0.633   2.166   5.543
   474G12c C029 8569   0.511   2.140   5.614
   474G12c H010 8570   0.491   2.178   5.713
   474G12c C02T 8571   0.408   2.062   5.556
   474G12c H01O 8572   0.319   2.032   5.609
   474G12c C02S 8573   0.420   2.024   5.416
   474G12c O00J 8574   0.312   1.970   5.354
   474G12c H01P 8575   0.325   1.950   5.262
   474G12c C02R 8576   0.533   2.061   5.344
   474G12c O00I 8577   0.543   2.041   5.209
   474G12c C02Q 8578   0.650   2.101   5.144
   474G12c H01N 8579   0.745   2.055   5.170
   474G12c H01R 8580   0.645   2.208   5.165
   474G12c H01Q 8581   0.634   2.098   5.036
   474G12c C02A 8582   0.641   2.123   5.414
   474G12c H011 8583   0.731   2.143   5.358
   474G12c C00C 8584   1.046   2.336   5.471
   474G12c H012 8585   0.957   2.299   5.424
   474G12c C00B 8586   1.162   2.377   5.394
   474G12c C00A 8587   1.177   2.370   5.248
   474G12c C009 8588   1.122   2.270   5.161
   474G12c C008 8589   1.023   2.172   5.164
   474G12c H013 8590   0.938   2.177   5.231
   474G12c C007 8591   1.023   2.059   5.082
   474G12c H014 8592   0.936   1.996   5.087
   474G12c C006 8593   1.136   2.040   4.995
   474G12c C005 8594   1.230   2.147   4.984
   474G12c C004 8595   1.348   2.140   4.907
   474G12c C003 8596   1.447   2.236   4.920
   474G12c C002 8597   1.570   2.212   4.849
   474G12c C001 8598   1.696   2.278   4.847
   474G12c C00M 8599   1.767   2.326   4.964
   474G12c C00L 8600   1.692   2.376   5.068
   474G12c C00R 8601   1.749   2.404   5.197
   474G12c C00Q 8602   1.871   2.378   5.259
   474G12c C00V 8603   1.875   2.411   5.401
   474G12c C00U 8604   1.764   2.451   5.473
   474G12c C00T 8605   1.640   2.466   5.408
   474G12c C016 8606   1.517   2.473   5.470
   474G12c C015 8607   1.516   2.476   5.605
   474G12c C010 8608   1.639   2.475   5.679
   474G12c C011 8609   1.640   2.463   5.818
   474G12c H005 8610   1.729   2.434   5.871
   474G12c C012 8611   1.521   2.481   5.890
   474G12c C017 8612   1.511   2.470   6.035
   474G12c O002 8613   1.397   2.418   6.078
   474G12c H004 8614   1.416   2.404   6.170
   474G12c C018 8615   1.613   2.498   6.120
   474G12c O001 8616   1.725   2.567   6.082
   474G12c H003 8617   1.751   2.634   6.144
   474G12c C019 8618   1.619   2.460   6.265
   474G12c H002 8619   1.695   2.384   6.285
   474G12c H001 8620   1.627   2.548   6.329
   474G12c O000 8621   1.506   2.387   6.304
   474G12c C01A 8622   1.482   2.357   6.437
   474G12c C02K 8623   1.366   2.286   6.458
   474G12c O00G 8624   1.277   2.250   6.359
   474G12c C02M 8625   1.190   2.364   6.347
   474G12c H01G 8626   1.106   2.346   6.280
   474G12c H01F 8627   1.241   2.453   6.313
   474G12c H01E 8628   1.134   2.395   6.435
   474G12c C02J 8629   1.343   2.240   6.590
   474G12c H01H 8630   1.258   2.175   6.606
   474G12c C02I 8631   1.416   2.276   6.702
   474G12c C02N 8632   1.378   2.239   6.833
   474G12c H01M 8633   1.365   2.300   6.921
   474G12c C02O 8634   1.359   2.110   6.854
   474G12c H01L 8635   1.380   2.033   6.781
   474G12c C02P 8636   1.300   2.057   6.981
   474G12c H01K 8637   1.369   1.996   7.039
   474G12c H01J 8638   1.266   2.140   7.043
   474G12c O00H 8639   1.180   1.989   6.949
   474G12c H01I 8640   1.113   2.019   7.009
   474G12c C02H 8641   1.535   2.356   6.675
   474G12c H01C 8642   1.611   2.382   6.747
   474G12c C02L 8643   1.573   2.384   6.541
   474G12c H01D 8644   1.659   2.446   6.524
   474G12c C013 8645   1.398   2.493   5.815
   474G12c H000 8646   1.310   2.495   5.877
   474G12c C014 8647   1.394   2.471   5.674
   474G12c C00F 8648   1.277   2.431   5.602
   474G12c C00H 8649   1.396   2.454   5.398
   474G12c C00I 8650   1.402   2.460   5.252
   474G12c C00J 8651   1.532   2.471   5.192
   474G12c C00Z 8652   1.762   2.463   5.614
   474G12c C00Y 8653   1.888   2.466   5.679
   474G12c H006 8654   1.892   2.501   5.781
   474G12c C00X 8655   2.008   2.451   5.603
   474G12c O003 8656   2.137   2.471   5.645
   474G12c C01B 8657   2.155   2.526   5.780
   474G12c H009 8658   2.091   2.614   5.788
   474G12c H008 8659   2.259   2.555   5.797
   474G12c H007 8660   2.121   2.468   5.865
   474G12c C00W 8661   1.998   2.407   5.468
   474G12c O004 8662   2.111   2.381   5.401
   474G12c C01C 8663   2.100   2.299   5.294
   474G12c H00A 8664   2.182   2.230   5.283
   474G12c C00P 8665   1.987   2.309   5.210
   474G12c C00O 8666   1.991   2.246   5.081
   474G12c C01D 8667   2.097   2.153   5.046
   474G12c H00S 8668   2.170   2.135   5.123
   474G12c C01E 8669   2.080   2.055   4.944
   474G12c O008 8670   2.170   1.959   4.927
   474G12c C01V 8671   2.304   1.996   4.911
   474G12c C01Z 8672   2.337   2.041   4.767
   474G12c H00R 8673   2.407   1.972   4.719
   474G12c H00Q 8674   2.248   2.049   4.704
   474G12c O009 8675   2.383   2.170   4.758
   474G12c H00P 8676   2.385   2.209   4.843
   474G12c C01W 8677   2.396   1.989   5.008
   474G12c H00O 8678   2.363   1.950   5.104
   474G12c C01X 8679   2.544   2.007   4.999
   474G12c H00N 8680   2.587   1.929   5.061
   474G12c H00M 8681   2.577   1.983   4.898
   474G12c C01Y 8682   2.596   2.138   5.060
   474G12c C02D 8683   2.647   2.249   4.978
   474G12c H019 8684   2.650   2.234   4.871
   474G12c C02C 8685   2.691   2.366   5.033
   474G12c H01A 8686   2.725   2.445   4.968
   474G12c C02B 8687   2.698   2.375   5.170
   474G12c O00E 8688   2.735   2.497   5.229
   474G12c H01B 8689   2.750   2.472   5.318
   474G12c C02F 8690   2.662   2.269   5.261
   474G12c O00F 8691   2.666   2.297   5.391
   474G12c C02G 8692   2.633   2.201   5.489
   474G12c H017 8693   2.690   2.111   5.470
   474G12c H016 8694   2.526   2.178   5.492
   474G12c H015 8695   2.658   2.239   5.588
   474G12c C02E 8696   2.617   2.148   5.201
   474G12c H018 8697   2.594   2.067   5.269
   474G12c C01F 8698   1.976   2.061   4.851
   474G12c C01G 8699   1.932   1.954   4.769
   474G12c H00L 8700   1.987   1.861   4.763
   474G12c C01H 8701   1.800   1.956   4.718
   474G12c H00B 8702   1.752   1.864   4.688
   474G12c C01I 8703   1.723   2.073   4.740
   474G12c C01U 8704   1.895   2.173   4.859
   474G12c C00S 8705   1.646   2.460   5.269
   474G12c C00K 8706   1.557   2.408   5.068
   474G12c C00N 8707   1.895   2.256   4.976
   474G12c C000 8708   1.787   2.195   4.778
   474G12c C01J 8709   1.584   2.094   4.766
   474G12c C01K 8710   1.474   1.993   4.743
   474G12c C01P 8711   1.466   1.880   4.656
   474G12c C01Q 8712   1.552   1.880   4.537
   474G12c H00G 8713   1.596   1.977   4.518
   474G12c C01R 8714   1.548   1.784   4.445
   474G12c H00F 8715   1.490   1.693   4.442
   474G12c C01S 8716   1.623   1.790   4.323
   474G12c H00E 8717   1.549   1.826   4.252
   474G12c H00D 8718   1.698   1.869   4.332
   474G12c O005 8719   1.675   1.661   4.290
   474G12c H00C 8720   1.598   1.607   4.284
   474G12c C01O 8721   1.358   1.792   4.658
   474G12c H00H 8722   1.348   1.713   4.585
   474G12c C01N 8723   1.247   1.820   4.739
   474G12c O006 8724   1.140   1.734   4.728
   474G12c C01T 8725   1.166   1.593   4.773
   474G12c H00K 8726   1.069   1.556   4.804
   474G12c H00J 8727   1.221   1.591   4.868
   474G12c H00I 8728   1.209   1.525   4.699
   474G12c C01M 8729   1.246   1.928   4.825
   474G12c C020 8730   1.441   2.350   5.009
   474G12c C021 8731   1.309   2.371   5.056
   474G12c C01L 8732   1.361   2.021   4.827
   474G12c O007 8733   1.139   1.931   4.914
   474G12c C022 8734   1.217   2.268   5.056
   474G12c C023 8735   1.286   2.426   5.183
   474G12c C00G 8736   1.279   2.425   5.462
   474G12c C00E 8737   1.162   2.383   5.677
   474G12c O00A 8738   1.155   2.370   5.808
   474G12c C024 8739   1.191   2.242   5.867
   474G12c H00V 8740   1.295   2.220   5.846
   474G12c H00U 8741   1.126   2.175   5.811
   474G12c H00T 8742   1.168   2.220   5.971
   484G12c C00D 8743   0.716   6.506   6.231
   484G12c O00B 8744   0.717   0.108   6.168
   484G12c C025 8745   0.611   0.113   6.080
   484G12c C026 8746   0.469   0.094   6.132
   484G12c H00Y 8747   0.468   6.506   6.135
   484G12c H00X 8748   0.394   0.146   6.072
   484G12c O00C 8749   0.461   0.145   6.263
   484G12c H00W 8750   0.490   0.235   6.256
   484G12c C027 8751   0.641   0.137   5.947
   484G12c O00D 8752   0.770   0.161   5.904
   484G12c H00Z 8753   0.829   0.175   5.976
   484G12c C028 8754   0.543   0.139   5.849
   484G12c C029 8755   0.454   0.035   5.833
   484G12c H010 8756   0.462   6.471   5.899
   484G12c C02T 8757   0.349   0.042   5.743
   484G12c H01O 8758   0.285   6.476   5.753
   484G12c C02S 8759   0.339   0.157   5.666
   484G12c O00J 8760   0.234   0.180   5.579
   484G12c H01P 8761   0.250   0.260   5.532
   484G12c C02R 8762   0.432   0.260   5.674
   484G12c O00I 8763   0.413   0.361   5.581
   484G12c C02Q 8764   0.527   0.433   5.550
   484G12c H01N 8765   0.563   0.496   5.632
   484G12c H01R 8766   0.489   0.508   5.480
   484G12c H01Q 8767   0.604   0.368   5.510
   484G12c C02A 8768   0.536   0.257   5.768
   484G12c H011 8769   0.606   0.338   5.772
   484G12c C00C 8770   0.700   6.503   6.367
   484G12c H012 8771   0.693   0.076   6.421
   484G12c C00B 8772   0.713   6.386   6.445
   484G12c C00A 8773   0.733   6.368   6.586
   484G12c C009 8774   0.793   6.451   6.685
   484G12c C008 8775   0.853   0.062   6.682
   484G12c H013 8776   0.830   0.137   6.607
   484G12c C007 8777   0.953   0.097   6.772
   484G12c H014 8778   1.001   0.193   6.765
   484G12c C006 8779   0.995   6.521   6.870
   484G12c C005 8780   0.925   6.399   6.878
   484G12c C004 8781   0.977   6.290   6.948
   484G12c C003 8782   0.930   6.160   6.925
   484G12c C002 8783   1.005   6.052   6.995
   484G12c C001 8784   0.987   5.908   7.002
   484G12c C00M 8785   0.978   5.824   6.884
   484G12c C00L 8786   0.889   5.864   6.782
   484G12c C00R 8787   0.897   5.813   6.650
   484G12c C00Q 8788   0.972   5.704   6.591
   484G12c C00V 8789   0.960   5.701   6.450
   484G12c C00U 8790   0.907   5.809   6.373
   484G12c C00T 8791   0.842   5.911   6.436
   484G12c C016 8792   0.792   6.025   6.374
   484G12c C015 8793   0.795   6.024   6.233
   484G12c C010 8794   0.843   5.913   6.163
   484G12c C011 8795   0.826   5.912   6.022
   484G12c H005 8796   0.865   5.830   5.964
   484G12c C012 8797   0.772   6.020   5.956
   484G12c C017 8798   0.773   6.014   5.811
   484G12c O002 8799   0.886   5.956   5.756
   484G12c H004 8800   0.933   5.936   5.836
   484G12c C018 8801   0.685   6.079   5.735
   484G12c O001 8802   0.583   6.155   5.783
   484G12c H003 8803   0.557   6.217   5.715
   484G12c C019 8804   0.683   6.060   5.584
   484G12c H002 8805   0.769   6.001   5.552
   484G12c H001 8806   0.598   6.011   5.538
   484G12c O000 8807   0.662   6.184   5.529
   484G12c C01A 8808   0.765   6.268   5.515
   484G12c C02K 8809   0.736   6.402   5.490
   484G12c O00G 8810   0.605   6.438   5.458
   484G12c C02M 8811   0.559   0.052   5.468
   484G12c H01G 8812   0.450   0.052   5.469
   484G12c H01F 8813   0.601   0.120   5.394
   484G12c H01E 8814   0.586   0.091   5.566
   484G12c C02J 8815   0.841   6.499   5.500
   484G12c H01H 8816   0.824   0.084   5.485
   484G12c C02I 8817   0.977   6.462   5.531
   484G12c C02N 8818   1.075   0.047   5.526
   484G12c H01M 8819   1.042   0.143   5.487
   484G12c C02O 8820   1.199   0.023   5.570
   484G12c H01L 8821   1.225   6.446   5.608
   484G12c C02P 8822   1.298   0.135   5.562
   484G12c H01K 8823   1.252   0.226   5.524
   484G12c H01J 8824   1.336   0.160   5.662
   484G12c O00H 8825   1.414   0.106   5.476
   484G12c H01I 8826   1.459   0.026   5.500
   484G12c C02H 8827   1.004   6.326   5.558
   484G12c H01C 8828   1.105   6.297   5.581
   484G12c C02L 8829   0.902   6.231   5.545
   484G12c H01D 8830   0.937   6.131   5.562
   484G12c C013 8831   0.732   6.132   6.030
   484G12c H000 8832   0.699   6.222   5.979
   484G12c C014 8833   0.750   6.137   6.170
   484G12c C00F 8834   0.740   6.261   6.239
   484G12c C00H 8835   0.752   6.134   6.445
   484G12c C00I 8836   0.731   6.120   6.582
   484G12c C00J 8837   0.761   5.990   6.640
   484G12c C00Z 8838   0.909   5.811   6.235
   484G12c C00Y 8839   0.963   5.700   6.172
   484G12c H006 8840   0.956   5.693   6.064
   484G12c C00X 8841   1.027   5.597   6.240
   484G12c O003 8842   1.083   5.487   6.170
   484G12c C01B 8843   1.073   5.484   6.028
   484G12c H009 8844   1.132   5.570   5.997
   484G12c H008 8845   0.969   5.492   5.996
   484G12c H007 8846   1.117   5.387   6.006
   484G12c C00W 8847   1.026   5.598   6.380
   484G12c O004 8848   1.096   5.494   6.436
   484G12c C01C 8849   1.111   5.505   6.571
   484G12c H00A 8850   1.135   5.408   6.613
   484G12c C00P 8851   1.065   5.612   6.649
   484G12c C00O 8852   1.121   5.631   6.781
   484G12c C01D 8853   1.242   5.564   6.813
   484G12c H00S 8854   1.284   5.484   6.754
   484G12c C01E 8855   1.332   5.601   6.922
   484G12c O008 8856   1.445   5.523   6.929
   484G12c C01V 8857   1.567   5.582   6.944
   484G12c C01Z 8858   1.624   5.552   7.077
   484G12c H00R 8859   1.683   5.633   7.119
   484G12c H00Q 8860   1.546   5.530   7.150
   484G12c O009 8861   1.709   5.441   7.067
   484G12c H00P 8862   1.675   5.358   7.099
   484G12c C01W 8863   1.612   5.676   6.857
   484G12c H00O 8864   1.550   5.686   6.769
   484G12c C01X 8865   1.737   5.762   6.857
   484G12c H00N 8866   1.817   5.721   6.918
   484G12c H00M 8867   1.786   5.772   6.760
   484G12c C01Y 8868   1.694   5.899   6.902
   484G12c C02D 8869   1.709   5.942   7.037
   484G12c H019 8870   1.747   5.879   7.116
   484G12c C02C 8871   1.659   6.071   7.078
   484G12c H01A 8872   1.667   6.106   7.180
   484G12c C02B 8873   1.599   6.153   6.985
   484G12c O00E 8874   1.541   6.267   7.025
   484G12c H01B 8875   1.516   6.318   6.950
   484G12c C02F 8876   1.598   6.118   6.846
   484G12c O00F 8877   1.543   6.215   6.764
   484G12c C02G 8878   1.546   6.201   6.627
   484G12c H017 8879   1.650   6.192   6.595
   484G12c H016 8880   1.504   6.292   6.583
   484G12c H015 8881   1.501   6.110   6.586
   484G12c C02E 8882   1.641   5.990   6.804
   484G12c H018 8883   1.629   5.966   6.700
   484G12c C01F 8884   1.294   5.714   7.002
   484G12c C01G 8885   1.375   5.803   7.079
   484G12c H00L 8886   1.482   5.789   7.090
   484G12c C01H 8887   1.324   5.929   7.125
   484G12c H00B 8888   1.392   6.009   7.149
   484G12c C01I 8889   1.186   5.959   7.116
   484G12c C01U 8890   1.155   5.758   6.996
   484G12c C00S 8891   0.807   5.883   6.565
   484G12c C00K 8892   0.824   5.992   6.770
   484G12c C00N 8893   1.080   5.724   6.879
   484G12c C000 8894   1.098   5.858   7.072
   484G12c C01J 8895   1.114   6.083   7.089
   484G12c C01K 8896   1.154   6.220   7.118
   484G12c C01P 8897   1.245   6.270   7.216
   484G12c C01Q 8898   1.297   6.182   7.318
   484G12c H00G 8899   1.242   6.100   7.363
   484G12c C01R 8900   1.426   6.195   7.350
   484G12c H00F 8901   1.490   6.281   7.332
   484G12c C01S 8902   1.495   6.124   7.456
   484G12c H00E 8903   1.453   6.147   7.554
   484G12c H00D 8904   1.478   6.016   7.452
   484G12c O005 8905   1.632   6.150   7.479
   484G12c H00C 8906   1.654   6.237   7.451
   484G12c C01O 8907   1.288   6.404   7.216
   484G12c H00H 8908   1.349   6.442   7.297
   484G12c C01N 8909   1.228   6.497   7.134
   484G12c O006 8910   1.271   0.105   7.152
   484G12c C01T 8911   1.176   0.177   7.223
   484G12c H00K 8912   1.228   0.268   7.256
   484G12c H00J 8913   1.145   0.122   7.312
   484G12c H00I 8914   1.090   0.213   7.167
   484G12c C01M 8915   1.130   6.455   7.041
   484G12c C020 8916   0.827   6.123   6.830
   484G12c C021 8917   0.761   6.238   6.778
   484G12c C01L 8918   1.092   6.319   7.031
   484G12c O007 8919   1.092   0.033   6.955
   484G12c C022 8920   0.811   6.365   6.796
   484G12c C023 8921   0.717   6.243   6.646
   484G12c C00G 8922   0.726   6.261   6.378
   484G12c C00E 8923   0.739   6.385   6.168
   484G12c O00A 8924   0.770   6.405   6.040
   484G12c C024 8925   0.904   6.407   6.020
   484G12c H00V 8926   0.938   6.510   6.033
   484G12c H00U 8927   0.923   6.395   5.913
   484G12c H00T 8928   0.968   6.330   6.065
   494G12c C00D 8929   1.014   2.675   6.673
   494G12c O00B 8930   0.917   2.649   6.768
   494G12c C025 8931   0.945   2.650   6.902
   494G12c C026 8932   0.939   2.513   6.960
   494G12c H00Y 8933   0.953   2.513   7.069
   494G12c H00X 8934   1.024   2.464   6.912
   494G12c O00C 8935   0.818   2.464   6.935
   494G12c H00W 8936   0.774   2.534   6.890
   494G12c C027 8937   0.970   2.763   6.971
   494G12c O00D 8938   0.958   2.892   6.925
   494G12c H00Z 8939   0.936   2.892   6.833
   494G12c C028 8940   1.057   2.749   7.089
   494G12c C029 8941   1.175   2.670   7.082
   494G12c H010 8942   1.205   2.606   6.999
   494G12c C02T 8943   1.248   2.650   7.201
   494G12c H01O 8944   1.329   2.579   7.203
   494G12c C02S 8945   1.211   2.717   7.319
   494G12c O00J 8946   1.281   2.688   7.431
   494G12c H01P 8947   1.226   2.720   7.502
   494G12c C02R 8948   1.097   2.797   7.328
   494G12c O00I 8949   1.059   2.853   7.447
   494G12c C02Q 8950   0.939   2.930   7.442
   494G12c H01N 8951   0.843   2.883   7.420
   494G12c H01R 8952   0.947   3.014   7.373
   494G12c H01Q 8953   0.917   2.968   7.542
   494G12c C02A 8954   1.030   2.818   7.209
   494G12c H011 8955   0.944   2.883   7.201
   494G12c C00C 8956   1.142   2.716   6.708
   494G12c H012 8957   1.169   2.738   6.810
   494G12c C00B 8958   1.244   2.724   6.611
   494G12c C00A 8959   1.381   2.758   6.632
   494G12c C009 8960   1.440   2.845   6.735
   494G12c C008 8961   1.391   2.916   6.850
   494G12c H013 8962   1.290   2.894   6.881
   494G12c C007 8963   1.462   3.025   6.904
   494G12c H014 8964   1.424   3.084   6.986
   494G12c C006 8965   1.569   3.076   6.837
   494G12c C005 8966   1.612   3.018   6.715
   494G12c C004 8967   1.695   3.081   6.615
   494G12c C003 8968   1.722   3.017   6.488
   494G12c C002 8969   1.796   3.096   6.394
   494G12c C001 8970   1.836   3.078   6.257
   494G12c C00M 8971   1.749   3.032   6.148
   494G12c C00L 8972   1.669   2.916   6.170
   494G12c C00R 8973   1.559   2.882   6.084
   494G12c C00Q 8974   1.516   2.928   5.955
   494G12c C00V 8975   1.390   2.871   5.915
   494G12c C00U 8976   1.305   2.796   6.003
   494G12c C00T 8977   1.342   2.766   6.132
   494G12c C016 8978   1.258   2.724   6.236
   494G12c C015 8979   1.132   2.688   6.199
   494G12c C010 8980   1.095   2.700   6.062
   494G12c C011 8981   0.964   2.668   6.032
   494G12c H005 8982   0.914   2.684   5.937
   494G12c C012 8983   0.875   2.608   6.124
   494G12c C017 8984   0.742   2.558   6.092
   494G12c O002 8985   0.642   2.592   6.177
   494G12c H004 8986   0.562   2.553   6.145
   494G12c C018 8987   0.715   2.495   5.979
   494G12c O001 8988   0.824   2.450   5.895
   494G12c H003 8989   0.909   2.487   5.913
   494G12c C019 8990   0.578   2.448   5.940
   494G12c H002 8991   0.584   2.491   5.840
   494G12c H001 8992   0.574   2.340   5.926
   494G12c O000 8993   0.467   2.494   6.020
   494G12c C01A 8994   0.345   2.444   5.983
   494G12c C02K 8995   0.242   2.475   6.073
   494G12c O00G 8996   0.266   2.559   6.181
   494G12c C02M 8997   0.323   2.480   6.285
   494G12c H01G 8998   0.369   2.533   6.368
   494G12c H01F 8999   0.400   2.414   6.245
   494G12c H01E 9000   0.242   2.417   6.323
   494G12c C02J 9001   0.112   2.417   6.058
   494G12c H01H 9002   0.042   2.435   6.139
   494G12c C02I 9003   0.078   2.353   5.937
   494G12c C02N 9004   6.458   2.314   5.915
   494G12c H01M 9005   6.392   2.307   6.000
   494G12c C02O 9006   6.419   2.283   5.787
   494G12c H01L 9007   6.477   2.302   5.698
   494G12c C02P 9008   6.276   2.228   5.759
   494G12c H01K 9009   6.281   2.158   5.676
   494G12c H01J 9010   6.235   2.175   5.845
   494G12c O00H 9011   6.186   2.332   5.726
   494G12c H01I 9012   6.195   2.348   5.633
   494G12c C02H 9013   0.181   2.338   5.838
   494G12c H01C 9014   0.157   2.289   5.745
   494G12c C02L 9015   0.313   2.379   5.864
   494G12c H01D 9016   0.392   2.368   5.791
   494G12c C013 9017   0.918   2.608   6.255
   494G12c H000 9018   0.839   2.573   6.321
   494G12c C014 9019   1.043   2.650   6.300
   494G12c C00F 9020   1.082   2.656   6.439
   494G12c C00H 9021   1.303   2.718   6.368
   494G12c C00I 9022   1.440   2.746   6.395
   494G12c C00J 9023   1.528   2.772   6.285
   494G12c C00Z 9024   1.180   2.752   5.966
   494G12c C00Y 9025   1.134   2.779   5.829
   494G12c H006 9026   1.033   2.763   5.794
   494G12c C00X 9027   1.213   2.861   5.745
   494G12c O003 9028   1.183   2.891   5.615
   494G12c C01B 9029   1.199   2.791   5.513
   494G12c H009 9030   1.140   2.708   5.550
   494G12c H008 9031   1.301   2.762   5.486
   494G12c H007 9032   1.150   2.813   5.418
   494G12c C00W 9033   1.333   2.905   5.791
   494G12c O004 9034   1.409   2.972   5.697
   494G12c C01C 9035   1.518   3.044   5.741
   494G12c H00A 9036   1.590   3.068   5.665
   494G12c C00P 9037   1.565   3.033   5.877
   494G12c C00O 9038   1.658   3.136   5.926
   494G12c C01D 9039   1.655   3.262   5.857
   494G12c H00S 9040   1.583   3.265   5.777
   494G12c C01E 9041   1.718   3.375   5.913
   494G12c O008 9042   1.708   3.502   5.870
   494G12c C01V 9043   1.649   3.522   5.747
   494G12c C01Z 9044   1.537   3.622   5.758
   494G12c H00R 9045   1.566   3.708   5.697
   494G12c H00Q 9046   1.442   3.587   5.718
   494G12c O009 9047   1.521   3.653   5.900
   494G12c H00P 9048   1.605   3.642   5.942
   494G12c C01W 9049   1.699   3.464   5.634
   494G12c H00O 9050   1.769   3.383   5.651
   494G12c C01X 9051   1.640   3.488   5.491
   494G12c H00N 9052   1.612   3.386   5.463
   494G12c H00M 9053   1.552   3.552   5.490
   494G12c C01Y 9054   1.739   3.554   5.397
   494G12c C02D 9055   1.839   3.637   5.449
   494G12c H019 9056   1.844   3.661   5.554
   494G12c C02C 9057   1.935   3.688   5.360
   494G12c H01A 9058   2.013   3.753   5.398
   494G12c C02B 9059   1.924   3.662   5.221
   494G12c O00E 9060   2.024   3.712   5.144
   494G12c H01B 9061   2.024   3.667   5.061
   494G12c C02F 9062   1.824   3.581   5.167
   494G12c O00F 9063   1.828   3.556   5.032
   494G12c C02G 9064   1.694   3.514   4.979
   494G12c H017 9065   1.623   3.591   5.009
   494G12c H016 9066   1.652   3.420   5.014
   494G12c H015 9067   1.685   3.506   4.870
   494G12c C02E 9068   1.732   3.529   5.262
   494G12c H018 9069   1.652   3.463   5.231
   494G12c C01F 9070   1.787   3.358   6.037
   494G12c C01G 9071   1.801   3.466   6.128
   494G12c H00L 9072   1.785   3.566   6.090
   494G12c C01H 9073   1.833   3.441   6.262
   494G12c H00B 9074   1.842   3.523   6.331
   494G12c C01I 9075   1.854   3.306   6.304
   494G12c C01U 9076   1.825   3.231   6.083
   494G12c C00S 9077   1.480   2.789   6.156
   494G12c C00K 9078   1.635   2.867   6.298
   494G12c C00N 9079   1.737   3.126   6.042
   494G12c C000 9080   1.880   3.209   6.208
   494G12c C01J 9081   1.827   3.230   6.428
   494G12c C01K 9082   1.810   3.287   6.556
   494G12c C01P 9083   1.870   3.409   6.601
   494G12c C01Q 9084   1.987   3.469   6.533
   494G12c H00G 9085   1.994   3.575   6.513
   494G12c C01R 9086   2.080   3.390   6.474
   494G12c H00F 9087   2.072   3.282   6.467
   494G12c C01S 9088   2.207   3.439   6.400
   494G12c H00E 9089   2.285   3.386   6.454
   494G12c H00D 9090   2.203   3.413   6.294
   494G12c O005 9091   2.229   3.579   6.411
   494G12c H00C 9092   2.159   3.637   6.385
   494G12c C01O 9093   1.832   3.464   6.728
   494G12c H00H 9094   1.880   3.556   6.758
   494G12c C01N 9095   1.747   3.392   6.815
   494G12c O006 9096   1.706   3.445   6.937
   494G12c C01T 9097   1.757   3.579   6.972
   494G12c H00K 9098   1.752   3.656   6.895
   494G12c H00J 9099   1.850   3.576   7.028
   494G12c H00I 9100   1.694   3.614   7.054
   494G12c C01M 9101   1.707   3.263   6.775
   494G12c C020 9102   1.657   2.902   6.441
   494G12c C021 9103   1.588   2.833   6.551
   494G12c C01L 9104   1.744   3.204   6.647
   494G12c O007 9105   1.629   3.191   6.868
   494G12c C022 9106   1.563   2.891   6.674
   494G12c C023 9107   1.476   2.749   6.526
   494G12c C00G 9108   1.213   2.692   6.475
   494G12c C00E 9109   0.985   2.644   6.544
   494G12c O00A 9110   0.859   2.593   6.523
   494G12c C024 9111   0.846   2.457   6.555
   494G12c H00V 9112   0.872   2.435   6.659
   494G12c H00U 9113   0.908   2.388   6.497
   494G12c H00T 9114   0.744   2.421   6.539
   504G12c C00D 9115   2.439   2.603   8.428
   504G12c O00B 9116   2.327   2.524   8.459
   504G12c C025 9117   2.204   2.565   8.414
   504G12c C026 9118   2.150   2.667   8.521
   504G12c H00Y 9119   2.072   2.737   8.492
   504G12c H00X 9120   2.236   2.731   8.544
   504G12c O00C 9121   2.102   2.599   8.634
   504G12c H00W 9122   2.120   2.508   8.616
   504G12c C027 9123   2.159   2.548   8.288
   504G12c O00D 9124   2.225   2.474   8.193
   504G12c H00Z 9125   2.180   2.469   8.109
   504G12c C028 9126   2.049   2.625   8.236
   504G12c C029 9127   1.930   2.621   8.303
   504G12c H010 9128   1.927   2.568   8.397
   504G12c C02T 9129   1.819   2.690   8.261
   504G12c H01O 9130   1.729   2.684   8.319
   504G12c C02S 9131   1.818   2.756   8.137
   504G12c O00J 9132   1.705   2.815   8.088
   504G12c H01P 9133   1.621   2.780   8.116
   504G12c C02R 9134   1.930   2.742   8.054
   504G12c O00I 9135   1.925   2.800   7.934
   504G12c C02Q 9136   2.052   2.815   7.867
   504G12c H01N 9137   2.068   2.736   7.794
   504G12c H01R 9138   2.146   2.821   7.922
   504G12c H01Q 9139   2.047   2.905   7.806
   504G12c C02A 9140   2.044   2.685   8.109
   504G12c H011 9141   2.137   2.683   8.055
   504G12c C00C 9142   2.452   2.671   8.309
   504G12c H012 9143   2.366   2.666   8.244
   504G12c C00B 9144   2.570   2.734   8.272
   504G12c C00A 9145   2.594   2.809   8.154
   504G12c C009 9146   2.546   2.782   8.020
   504G12c C008 9147   2.472   2.677   7.961
   504G12c H013 9148   2.408   2.609   8.016
   504G12c C007 9149   2.494   2.649   7.819
   504G12c H014 9150   2.443   2.564   7.778
   504G12c C006 9151   2.603   2.709   7.751
   504G12c C005 9152   2.674   2.812   7.813
   504G12c C004 9153   2.793   2.865   7.761
   504G12c C003 9154   2.877   2.946   7.839
   504G12c C002 9155   3.009   2.984   7.782
   504G12c C001 9156   3.124   3.067   7.827
   504G12c C00M 9157   3.186   3.038   7.956
   504G12c C00L 9158   3.105   3.021   8.072
   504G12c C00R 9159   3.146   2.965   8.198
   504G12c C00Q 9160   3.279   2.931   8.243
   504G12c C00V 9161   3.280   2.868   8.371
   504G12c C00U 9162   3.158   2.826   8.433
   504G12c C00T 9163   3.029   2.852   8.380
   504G12c C016 9164   2.907   2.797   8.416
   504G12c C015 9165   2.907   2.707   8.522
   504G12c C010 9166   3.032   2.687   8.590
   504G12c C011 9167   3.039   2.588   8.690
   504G12c H005 9168   3.128   2.551   8.738
   504G12c C012 9169   2.924   2.521   8.734
   504G12c C017 9170   2.926   2.415   8.830
   504G12c O002 9171   2.831   2.411   8.926
   504G12c H004 9172   2.843   2.339   8.986
   504G12c C018 9173   3.019   2.318   8.823
   504G12c O001 9174   3.123   2.313   8.729
   504G12c H003 9175   3.093   2.341   8.645
   504G12c C019 9176   3.023   2.196   8.919
   504G12c H002 9177   3.045   2.106   8.863
   504G12c H001 9178   3.111   2.223   8.977
   504G12c O000 9179   2.907   2.184   9.002
   504G12c C01A 9180   2.884   2.060   9.049
   504G12c C02K 9181   2.750   2.016   9.050
   504G12c O00G 9182   2.652   2.111   9.010
   504G12c C02M 9183   2.512   2.069   9.015
   504G12c H01G 9184   2.487   2.036   9.116
   504G12c H01F 9185   2.492   1.993   8.940
   504G12c H01E 9186   2.448   2.156   9.001
   504G12c C02J 9187   2.719   1.883   9.083
   504G12c H01H 9188   2.616   1.851   9.075
   504G12c C02I 9189   2.825   1.789   9.121
   504G12c C02N 9190   2.790   1.654   9.157
   504G12c H01M 9191   2.715   1.599   9.103
   504G12c C02O 9192   2.861   1.588   9.250
   504G12c H01L 9193   2.945   1.626   9.307
   504G12c C02P 9194   2.854   1.439   9.280
   504G12c H01K 9195   2.829   1.409   9.381
   504G12c H01J 9196   2.779   1.402   9.210
   504G12c O00H 9197   2.971   1.375   9.241
   504G12c H01I 9198   2.972   1.367   9.147
   504G12c C02H 9199   2.957   1.835   9.124
   504G12c H01C 9200   3.042   1.771   9.143
   504G12c C02L 9201   2.982   1.968   9.091
   504G12c H01D 9202   3.086   1.996   9.078
   504G12c C013 9203   2.801   2.562   8.680
   504G12c H000 9204   2.717   2.509   8.721
   504G12c C014 9205   2.790   2.644   8.561
   504G12c C00F 9206   2.673   2.668   8.483
   504G12c C00H 9207   2.791   2.816   8.338
   504G12c C00I 9208   2.800   2.902   8.230
   504G12c C00J 9209   2.922   2.968   8.205
   504G12c C00Z 9210   3.151   2.749   8.551
   504G12c C00Y 9211   3.278   2.730   8.611
   504G12c H006 9212   3.281   2.699   8.715
   504G12c C00X 9213   3.403   2.758   8.552
   504G12c O003 9214   3.527   2.744   8.608
   504G12c C01B 9215   3.538   2.634   8.696
   504G12c H009 9216   3.504   2.548   8.639
   504G12c H008 9217   3.480   2.636   8.789
   504G12c H007 9218   3.642   2.623   8.728
   504G12c C00W 9219   3.398   2.826   8.430
   504G12c O004 9220   3.517   2.840   8.374
   504G12c C01C 9221   3.523   2.899   8.249
   504G12c H00A 9222   3.617   2.940   8.214
   504G12c C00P 9223   3.405   2.924   8.165
   504G12c C00O 9224   3.420   2.944   8.025
   504G12c C01D 9225   3.533   2.889   7.963
   504G12c H00S 9226   3.621   2.853   8.016
   504G12c C01E 9227   3.534   2.862   7.827
   504G12c O008 9228   3.621   2.771   7.778
   504G12c C01V 9229   3.601   2.634   7.792
   504G12c C01Z 9230   3.689   2.557   7.693
   504G12c H00R 9231   3.796   2.549   7.716
   504G12c H00Q 9232   3.654   2.454   7.699
   504G12c O009 9233   3.671   2.595   7.562
   504G12c H00P 9234   3.663   2.524   7.501
   504G12c C01W 9235   3.510   2.575   7.880
   504G12c H00O 9236   3.446   2.643   7.935
   504G12c C01X 9237   3.470   2.429   7.903
   504G12c H00N 9238   3.363   2.433   7.921
   504G12c H00M 9239   3.474   2.368   7.813
   504G12c C01Y 9240   3.548   2.364   8.018
   504G12c C02D 9241   3.491   2.249   8.081
   504G12c H019 9242   3.393   2.215   8.051
   504G12c C02C 9243   3.576   2.170   8.161
   504G12c H01A 9244   3.540   2.088   8.222
   504G12c C02B 9245   3.708   2.205   8.175
   504G12c O00E 9246   3.789   2.131   8.252
   504G12c H01B 9247   3.878   2.157   8.235
   504G12c C02F 9248   3.760   2.318   8.114
   504G12c O00F 9249   3.893   2.349   8.131
   504G12c C02G 9250   3.968   2.393   8.017
   504G12c H017 9251   3.933   2.494   7.995
   504G12c H016 9252   3.961   2.337   7.924
   504G12c H015 9253   4.069   2.398   8.058
   504G12c C02E 9254   3.679   2.402   8.042
   504G12c H018 9255   3.728   2.486   7.995
   504G12c C01F 9256   3.434   2.907   7.743
   504G12c C01G 9257   3.410   2.861   7.611
   504G12c H00L 9258   3.475   2.790   7.561
   504G12c C01H 9259   3.283   2.882   7.551
   504G12c H00B 9260   3.264   2.819   7.465
   504G12c C01I 9261   3.178   2.956   7.623
   504G12c C01U 9262   3.334   2.996   7.797
   504G12c C00S 9263   3.035   2.938   8.276
   504G12c C00K 9264   2.963   3.002   8.073
   504G12c C00N 9265   3.322   2.991   7.937
   504G12c C000 9266   3.221   3.047   7.726
   504G12c C01J 9267   3.042   2.934   7.648
   504G12c C01K 9268   2.949   2.860   7.564
   504G12c C01P 9269   2.965   2.832   7.423
   504G12c C01Q 9270   3.068   2.897   7.347
   504G12c H00G 9271   3.091   3.001   7.369
   504G12c C01R 9272   3.104   2.848   7.233
   504G12c H00F 9273   3.076   2.751   7.195
   504G12c C01S 9274   3.176   2.936   7.129
   504G12c H00E 9275   3.190   3.036   7.170
   504G12c H00D 9276   3.279   2.903   7.117
   504G12c O005 9277   3.097   2.938   7.012
   504G12c H00C 9278   3.132   2.861   6.970
   504G12c C01O 9279   2.866   2.752   7.361
   504G12c H00H 9280   2.869   2.742   7.254
   504G12c C01N 9281   2.763   2.686   7.435
   504G12c O006 9282   2.678   2.604   7.374
   504G12c C01T 9283   2.715   2.468   7.367
   504G12c H00K 9284   2.640   2.419   7.304
   504G12c H00J 9285   2.717   2.414   7.462
   504G12c H00I 9286   2.807   2.446   7.314
   504G12c C01M 9287   2.746   2.728   7.569
   504G12c C020 9288   2.853   2.979   7.982
   504G12c C021 9289   2.716   2.944   8.018
   504G12c C01L 9290   2.832   2.820   7.634
   504G12c O007 9291   2.644   2.669   7.631
   504G12c C022 9292   2.636   2.865   7.941
   504G12c C023 9293   2.691   2.908   8.146
   504G12c C00G 9294   2.678   2.742   8.364
   504G12c C00E 9295   2.554   2.592   8.503
   504G12c O00A 9296   2.535   2.506   8.608
   504G12c C024 9297   2.474   2.566   8.720
   504G12c H00V 9298   2.496   2.505   8.807
   504G12c H00U 9299   2.366   2.576   8.711
   504G12c H00T 9300   2.511   2.668   8.734
   514G12c C00D 9301   5.358   5.779   3.573
   514G12c O00B 9302   5.441   5.853   3.487
   514G12c C025 9303   5.383   5.966   3.419
   514G12c C026 9304   5.408   5.945   3.274
   514G12c H00Y 9305   5.327   5.993   3.219
   514G12c H00X 9306   5.400   5.838   3.253
   514G12c O00C 9307   5.534   5.987   3.244
   514G12c H00W 9308   5.598   5.931   3.285
   514G12c C027 9309   5.297   6.052   3.480
   514G12c O00D 9310   5.288   6.057   3.615
   514G12c H00Z 9311   5.357   6.003   3.653
   514G12c C028 9312   5.222   6.153   3.406
   514G12c C029 9313   5.275   6.232   3.302
   514G12c H010 9314   5.371   6.214   3.257
   514G12c C02T 9315   5.202   6.343   3.254
   514G12c H01O 9316   5.248   6.407   3.180
   514G12c C02S 9317   5.076   6.377   3.303
   514G12c O00J 9318   5.015   6.488   3.260
   514G12c H01P 9319   4.922   6.473   3.249
   514G12c C02R 9320   5.013   6.290   3.391
   514G12c O00I 9321   4.886   6.322   3.437
   514G12c C02Q 9322   4.831   6.260   3.548
   514G12c H01N 9323   4.821   6.151   3.539
   514G12c H01R 9324   4.726   6.283   3.567
   514G12c H01Q 9325   4.881   6.281   3.642
   514G12c C02A 9326   5.090   6.180   3.446
   514G12c H011 9327   5.045   6.121   3.524
   514G12c C00C 9328   5.224   5.751   3.546
   514G12c H012 9329   5.190   5.791   3.452
   514G12c C00B 9330   5.139   5.673   3.627
   514G12c C00A 9331   5.002   5.643   3.606
   514G12c C009 9332   4.902   5.698   3.519
   514G12c C008 9333   4.900   5.818   3.442
   514G12c H013 9334   4.988   5.866   3.404
   514G12c C007 9335   4.773   5.878   3.431
   514G12c H014 9336   4.750   5.968   3.376
   514G12c C006 9337   4.655   5.833   3.504
   514G12c C005 9338   4.667   5.712   3.570
   514G12c C004 9339   4.572   5.675   3.667
   514G12c C003 9340   4.601   5.574   3.763
   514G12c C002 9341   4.494   5.542   3.856
   514G12c C001 9342   4.483   5.455   3.971
   514G12c C00M 9343   4.586   5.454   4.069
   514G12c C00L 9344   4.717   5.437   4.033
   514G12c C00R 9345   4.829   5.456   4.120
   514G12c C00Q 9346   4.841   5.497   4.258
   514G12c C00V 9347   4.973   5.519   4.297
   514G12c C00U 9348   5.086   5.529   4.211
   514G12c C00T 9349   5.071   5.505   4.076
   514G12c C016 9350   5.160   5.541   3.977
   514G12c C015 9351   5.282   5.596   4.022
   514G12c C010 9352   5.307   5.600   4.159
   514G12c C011 9353   5.443   5.636   4.201
   514G12c H005 9354   5.481   5.622   4.301
   514G12c C012 9355   5.537   5.671   4.105
   514G12c C017 9356   5.673   5.688   4.153
   514G12c O002 9357   5.695   5.789   4.244
   514G12c H004 9358   5.654   5.861   4.199
   514G12c C018 9359   5.769   5.602   4.116
   514G12c O001 9360   5.739   5.509   4.010
   514G12c H003 9361   5.644   5.506   4.014
   514G12c C019 9362   5.890   5.590   4.205
   514G12c H002 9363   5.846   5.585   4.305
   514G12c H001 9364   5.942   5.496   4.188
   514G12c O000 9365   5.979   5.700   4.194
   514G12c C01A 9366   6.064   5.719   4.305
   514G12c C02K 9367   6.090   5.843   4.355
   514G12c O00G 9368   6.030   5.943   4.287
   514G12c C02M 9369   5.937   6.027   4.359
   514G12c H01G 9370   5.907   6.112   4.298
   514G12c H01F 9371   5.977   6.088   4.440
   514G12c H01E 9372   5.845   5.972   4.379
   514G12c C02J 9373   6.185   5.874   4.455
   514G12c H01H 9374   6.185   5.975   4.492
   514G12c C02I 9375   6.249   5.759   4.520
   514G12c C02N 9376   6.329   5.765   4.645
   514G12c H01M 9377   6.363   5.677   4.698
   514G12c C02O 9378   6.348   5.878   4.714
   514G12c H01L 9379   6.322   5.974   4.673
   514G12c C02P 9380   6.409   5.883   4.859
   514G12c H01K 9381   6.508   5.929   4.859
   514G12c H01J 9382   6.354   5.952   4.923
   514G12c O00H 9383   6.408   5.758   4.928
   514G12c H01I 9384   6.329   5.719   4.894
   514G12c C02H 9385   6.228   5.630   4.467
   514G12c H01C 9386   6.282   5.547   4.510
   514G12c C02L 9387   6.139   5.607   4.359
   514G12c H01D 9388   6.127   5.507   4.321
   514G12c C013 9389   5.495   5.694   3.977
   514G12c H000 9390   5.570   5.746   3.920
   514G12c C014 9391   5.370   5.655   3.930
   514G12c C00F 9392   5.323   5.671   3.791
   514G12c C00H 9393   5.119   5.554   3.843
   514G12c C00I 9394   4.991   5.498   3.808
   514G12c C00J 9395   4.910   5.433   3.908
   514G12c C00Z 9396   5.211   5.568   4.254
   514G12c C00Y 9397   5.238   5.582   4.391
   514G12c H006 9398   5.332   5.615   4.435
   514G12c C00X 9399   5.129   5.554   4.488
   514G12c O003 9400   5.156   5.556   4.622
   514G12c C01B 9401   5.292   5.568   4.665
   514G12c H009 9402   5.332   5.666   4.640
   514G12c H008 9403   5.352   5.490   4.617
   514G12c H007 9404   5.306   5.543   4.770
   514G12c C00W 9405   4.998   5.535   4.436
   514G12c O004 9406   4.902   5.517   4.533
   514G12c C01C 9407   4.780   5.559   4.490
   514G12c H00A 9408   4.737   5.644   4.540
   514G12c C00P 9409   4.737   5.526   4.350
   514G12c C00O 9410   4.595   5.539   4.321
   514G12c C01D 9411   4.507   5.602   4.413
   514G12c H00S 9412   4.547   5.624   4.511
   514G12c C01E 9413   4.387   5.658   4.376
   514G12c O008 9414   4.307   5.737   4.459
   514G12c C01V 9415   4.335   5.728   4.592
   514G12c C01Z 9416   4.272   5.610   4.666
   514G12c H00R 9417   4.246   5.637   4.768
   514G12c H00Q 9418   4.185   5.569   4.616
   514G12c O009 9419   4.353   5.501   4.670
   514G12c H00P 9420   4.379   5.494   4.579
   514G12c C01W 9421   4.407   5.820   4.655
   514G12c H00O 9422   4.445   5.905   4.600
   514G12c C01X 9423   4.456   5.836   4.801
   514G12c H00N 9424   4.454   5.940   4.832
   514G12c H00M 9425   4.392   5.773   4.863
   514G12c C01Y 9426   4.591   5.776   4.823
   514G12c C02D 9427   4.596   5.638   4.854
   514G12c H019 9428   4.509   5.575   4.853
   514G12c C02C 9429   4.723   5.580   4.861
   514G12c H01A 9430   4.741   5.475   4.875
   514G12c C02B 9431   4.832   5.657   4.841
   514G12c O00E 9432   4.957   5.595   4.846
   514G12c H01B 9433   5.015   5.669   4.837
   514G12c C02F 9434   4.831   5.796   4.823
   514G12c O00F 9435   4.949   5.868   4.816
   514G12c C02G 9436   5.017   5.856   4.687
   514G12c H017 9437   4.967   5.908   4.605
   514G12c H016 9438   5.034   5.755   4.651
   514G12c H015 9439   5.109   5.914   4.693
   514G12c C02E 9440   4.710   5.854   4.805
   514G12c H018 9441   4.700   5.961   4.795
   514G12c C01F 9442   4.336   5.632   4.248
   514G12c C01G 9443   4.232   5.692   4.179
   514G12c H00L 9444   4.177   5.772   4.226
   514G12c C01H 9445   4.217   5.690   4.037
   514G12c H00B 9446   4.153   5.768   4.000
   514G12c C01I 9447   4.299   5.601   3.968
   514G12c C01U 9448   4.401   5.533   4.169
   514G12c C00S 9449   4.947   5.442   4.041
   514G12c C00K 9450   4.768   5.448   3.900
   514G12c C00N 9451   4.536   5.505   4.195
   514G12c C000 9452   4.364   5.498   4.036
   514G12c C01J 9453   4.373   5.612   3.840
   514G12c C01K 9454   4.336   5.695   3.729
   514G12c C01P 9455   4.205   5.752   3.695
   514G12c C01Q 9456   4.083   5.703   3.749
   514G12c H00G 9457   4.014   5.757   3.812
   514G12c C01R 9458   4.066   5.571   3.741
   514G12c H00F 9459   4.135   5.504   3.693
   514G12c C01S 9460   3.934   5.509   3.797
   514G12c H00E 9461   3.954   5.469   3.897
   514G12c H00D 9462   3.870   5.594   3.822
   514G12c O005 9463   3.867   5.419   3.706
   514G12c H00C 9464   3.923   5.351   3.673
   514G12c C01O 9465   4.190   5.848   3.591
   514G12c H00H 9466   4.091   5.889   3.578
   514G12c C01N 9467   4.305   5.910   3.536
   514G12c O006 9468   4.303   6.026   3.457
   514G12c C01T 9469   4.184   6.043   3.377
   514G12c H00K 9470   4.147   5.959   3.320
   514G12c H00J 9471   4.194   6.129   3.310
   514G12c H00I 9472   4.098   6.059   3.443
   514G12c C01M 9473   4.435   5.854   3.569
   514G12c C020 9474   4.726   5.500   3.769
   514G12c C021 9475   4.808   5.528   3.654
   514G12c C01L 9476   4.449   5.740   3.662
   514G12c O007 9477   4.542   5.905   3.504
   514G12c C022 9478   4.780   5.633   3.566
   514G12c C023 9479   4.942   5.537   3.681
   514G12c C00G 9480   5.196   5.629   3.754
   514G12c C00E 9481   5.412   5.734   3.695
   514G12c O00A 9482   5.547   5.742   3.706
   514G12c C024 9483   5.603   5.622   3.674
   514G12c H00V 9484   5.555   5.553   3.743
   514G12c H00U 9485   5.711   5.637   3.681
   514G12c H00T 9486   5.583   5.580   3.575
   524G12c C00D 9487   4.620   2.212   7.506
   524G12c O00B 9488   4.668   2.329   7.566
   524G12c C025 9489   4.749   2.423   7.502
   524G12c C026 9490   4.666   2.544   7.465
   524G12c H00Y 9491   4.586   2.507   7.401
   524G12c H00X 9492   4.730   2.599   7.397
   524G12c O00C 9493   4.627   2.621   7.579
   524G12c H00W 9494   4.707   2.633   7.629
   524G12c C027 9495   4.881   2.399   7.483
   524G12c O00D 9496   4.927   2.278   7.508
   524G12c H00Z 9497   4.861   2.215   7.481
   524G12c C028 9498   4.963   2.488   7.409
   524G12c C029 9499   4.974   2.622   7.436
   524G12c H010 9500   4.929   2.668   7.523
   524G12c C02T 9501   5.030   2.707   7.338
   524G12c H01O 9502   5.025   2.815   7.349
   524G12c C02S 9503   5.107   2.651   7.234
   524G12c O00J 9504   5.153   2.728   7.126
   524G12c H01P 9505   5.209   2.672   7.074
   524G12c C02R 9506   5.120   2.511   7.221
   524G12c O00I 9507   5.208   2.462   7.132
   524G12c C02Q 9508   5.194   2.321   7.097
   524G12c H01N 9509   5.250   2.273   7.176
   524G12c H01R 9510   5.250   2.311   7.004
   524G12c H01Q 9511   5.094   2.293   7.063
   524G12c C02A 9512   5.046   2.429   7.309
   524G12c H011 9513   5.053   2.322   7.295
   524G12c C00C 9514   4.614   2.207   7.366
   524G12c H012 9515   4.657   2.293   7.316
   524G12c C00B 9516   4.551   2.097   7.299
   524G12c C00A 9517   4.526   2.082   7.154
   524G12c C009 9518   4.524   2.177   7.048
   524G12c C008 9519   4.538   2.316   7.045
   524G12c H013 9520   4.590   2.350   7.133
   524G12c C007 9521   4.476   2.393   6.945
   524G12c H014 9522   4.483   2.501   6.943
   524G12c C006 9523   4.406   2.328   6.842
   524G12c C005 9524   4.391   2.189   6.857
   524G12c C004 9525   4.285   2.124   6.792
   524G12c C003 9526   4.256   1.992   6.828
   524G12c C002 9527   4.133   1.939   6.766
   524G12c C001 9528   4.081   1.809   6.767
   524G12c C00M 9529   4.052   1.735   6.887
   524G12c C00L 9530   4.143   1.726   6.993
   524G12c C00R 9531   4.109   1.690   7.129
   524G12c C00Q 9532   3.994   1.641   7.198
   524G12c C00V 9533   4.010   1.630   7.339
   524G12c C00U 9534   4.116   1.684   7.407
   524G12c C00T 9535   4.220   1.744   7.338
   524G12c C016 9536   4.321   1.821   7.396
   524G12c C015 9537   4.328   1.826   7.533
   524G12c C010 9538   4.238   1.743   7.612
   524G12c C011 9539   4.260   1.730   7.752
   524G12c H005 9540   4.185   1.685   7.815
   524G12c C012 9541   4.372   1.787   7.816
   524G12c C017 9542   4.405   1.763   7.957
   524G12c O002 9543   4.464   1.866   8.021
   524G12c H004 9544   4.476   1.829   8.107
   524G12c C018 9545   4.393   1.645   8.017
   524G12c O001 9546   4.352   1.525   7.952
   524G12c H003 9547   4.357   1.557   7.863
   524G12c C019 9548   4.429   1.632   8.167
   524G12c H002 9549   4.344   1.658   8.230
   524G12c H001 9550   4.454   1.528   8.189
   524G12c O000 9551   4.558   1.683   8.194
   524G12c C01A 9552   4.582   1.723   8.323
   524G12c C02K 9553   4.536   1.844   8.374
   524G12c O00G 9554   4.455   1.921   8.295
   524G12c C02M 9555   4.382   2.029   8.350
   524G12c H01G 9556   4.446   2.117   8.354
   524G12c H01F 9557   4.349   1.992   8.448
   524G12c H01E 9558   4.287   2.054   8.303
   524G12c C02J 9559   4.571   1.883   8.505
   524G12c H01H 9560   4.563   1.984   8.542
   524G12c C02I 9561   4.642   1.801   8.596
   524G12c C02N 9562   4.665   1.848   8.737
   524G12c H01M 9563   4.634   1.947   8.770
   524G12c C02O 9564   4.724   1.770   8.833
   524G12c H01L 9565   4.765   1.671   8.822
   524G12c C02P 9566   4.741   1.824   8.977
   524G12c H01K 9567   4.741   1.932   8.993
   524G12c H01J 9568   4.659   1.782   9.036
   524G12c O00H 9569   4.870   1.785   9.025
   524G12c H01I 9570   4.928   1.857   9.008
   524G12c C02H 9571   4.674   1.673   8.548
   524G12c H01C 9572   4.720   1.605   8.617
   524G12c C02L 9573   4.646   1.634   8.411
   524G12c H01D 9574   4.681   1.538   8.376
   524G12c C013 9575   4.448   1.879   7.733
   524G12c H000 9576   4.528   1.929   7.786
   524G12c C014 9577   4.426   1.901   7.594
   524G12c C00F 9578   4.500   2.001   7.519
   524G12c C00H 9579   4.415   1.892   7.320
   524G12c C00I 9580   4.412   1.873   7.182
   524G12c C00J 9581   4.318   1.783   7.125
   524G12c C00Z 9582   4.128   1.683   7.546
   524G12c C00Y 9583   4.026   1.614   7.619
   524G12c H006 9584   4.023   1.620   7.727
   524G12c C00X 9585   3.917   1.556   7.553
   524G12c O003 9586   3.823   1.492   7.618
   524G12c C01B 9587   3.852   1.437   7.745
   524G12c H009 9588   3.850   1.524   7.811
   524G12c H008 9589   3.952   1.396   7.757
   524G12c H007 9590   3.776   1.364   7.773
   524G12c C00W 9591   3.909   1.561   7.415
   524G12c O004 9592   3.804   1.493   7.351
   524G12c C01C 9593   3.776   1.522   7.215
   524G12c H00A 9594   3.693   1.463   7.178
   524G12c C00P 9595   3.870   1.603   7.134
   524G12c C00O 9596   3.823   1.658   7.005
   524G12c C01D 9597   3.684   1.662   6.971
   524G12c H00S 9598   3.608   1.635   7.043
   524G12c C01E 9599   3.630   1.727   6.857
   524G12c O008 9600   3.496   1.754   6.849
   524G12c C01V 9601   3.415   1.661   6.783
   524G12c C01Z 9602   3.303   1.732   6.712
   524G12c H00R 9603   3.325   1.720   6.606
   524G12c H00Q 9604   3.204   1.689   6.724
   524G12c O009 9605   3.302   1.873   6.734
   524G12c H00P 9606   3.383   1.882   6.782
   524G12c C01W 9607   3.444   1.533   6.750
   524G12c H00O 9608   3.530   1.483   6.790
   524G12c C01X 9609   3.376   1.453   6.641
   524G12c H00N 9610   3.380   1.351   6.681
   524G12c H00M 9611   3.271   1.480   6.631
   524G12c C01Y 9612   3.435   1.468   6.501
   524G12c C02D 9613   3.371   1.409   6.389
   524G12c H019 9614   3.278   1.356   6.401
   524G12c C02C 9615   3.410   1.441   6.260
   524G12c H01A 9616   3.370   1.392   6.173
   524G12c C02B 9617   3.515   1.534   6.240
   524G12c O00E 9618   3.563   1.575   6.113
   524G12c H01B 9619   3.630   1.638   6.136
   524G12c C02F 9620   3.583   1.589   6.348
   524G12c O00F 9621   3.689   1.671   6.309
   524G12c C02G 9622   3.767   1.738   6.403
   524G12c H017 9623   3.706   1.802   6.467
   524G12c H016 9624   3.835   1.803   6.350
   524G12c H015 9625   3.830   1.672   6.463
   524G12c C02E 9626   3.549   1.548   6.479
   524G12c H018 9627   3.616   1.581   6.557
   524G12c C01F 9628   3.722   1.800   6.775
   524G12c C01G 9629   3.685   1.913   6.701
   524G12c H00L 9630   3.584   1.941   6.677
   524G12c C01H 9631   3.790   1.992   6.650
   524G12c H00B 9632   3.771   2.095   6.623
   524G12c C01I 9633   3.931   1.952   6.660
   524G12c C01U 9634   3.859   1.769   6.789
   524G12c C00S 9635   4.215   1.729   7.200
   524G12c C00K 9636   4.259   1.806   6.994
   524G12c C00N 9637   3.910   1.708   6.903
   524G12c C000 9638   3.960   1.816   6.704
   524G12c C01J 9639   4.054   2.020   6.682
   524G12c C01K 9640   4.097   2.147   6.639
   524G12c C01P 9641   4.040   2.218   6.524
   524G12c C01Q 9642   3.969   2.143   6.427
   524G12c H00G 9643   3.865   2.115   6.430
   524G12c C01R 9644   4.018   2.129   6.305
   524G12c H00F 9645   4.119   2.161   6.285
   524G12c C01S 9646   3.953   2.057   6.197
   524G12c H00E 9647   3.869   2.000   6.238
   524G12c H00D 9648   3.922   2.122   6.115
   524G12c O005 9649   4.041   1.973   6.139
   524G12c H00C 9650   4.072   1.923   6.213
   524G12c C01O 9651   4.078   2.353   6.496
   524G12c H00H 9652   4.038   2.413   6.416
   524G12c C01N 9653   4.179   2.413   6.573
   524G12c O006 9654   4.204   2.548   6.540
   524G12c C01T 9655   4.292   2.630   6.619
   524G12c H00K 9656   4.294   2.729   6.572
   524G12c H00J 9657   4.397   2.600   6.618
   524G12c H00I 9658   4.252   2.639   6.720
   524G12c C01M 9659   4.244   2.336   6.673
   524G12c C020 9660   4.327   1.910   6.923
   524G12c C021 9661   4.446   1.972   6.962
   524G12c C01L 9662   4.204   2.198   6.703
   524G12c O007 9663   4.336   2.396   6.747
   524G12c C022 9664   4.470   2.108   6.941
   524G12c C023 9665   4.485   1.959   7.098
   524G12c C00G 9666   4.490   1.997   7.380
   524G12c C00E 9667   4.568   2.111   7.583
   524G12c O00A 9668   4.572   2.127   7.716
   524G12c C024 9669   4.688   2.168   7.788
   524G12c H00V 9670   4.784   2.125   7.760
   524G12c H00U 9671   4.668   2.151   7.893
   524G12c H00T 9672   4.709   2.275   7.786
   534G12c C00D 9673   6.339   6.217   7.617
   534G12c O00B 9674   6.218   6.217   7.554
   534G12c C025 9675   6.108   6.189   7.630
   534G12c C026 9676   6.004   6.298   7.647
   534G12c H00Y 9677   5.959   6.303   7.746
   534G12c H00X 9678   5.923   6.275   7.577
   534G12c O00C 9679   6.062   6.424   7.620
   534G12c H00W 9680   6.077   6.425   7.527
   534G12c C027 9681   6.089   6.071   7.682
   534G12c O00D 9682   6.180   5.965   7.669
   534G12c H00Z 9683   6.215   5.997   7.587
   534G12c C028 9684   5.979   6.055   7.774
   534G12c C029 9685   5.847   6.025   7.735
   534G12c H010 9686   5.822   6.033   7.631
   534G12c C02T 9687   5.743   5.996   7.832
   534G12c H01O 9688   5.643   5.975   7.796
   534G12c C02S 9689   5.771   5.986   7.968
   534G12c O00J 9690   5.679   5.951   8.062
   534G12c H01P 9691   5.727   5.950   8.143
   534G12c C02R 9692   5.904   6.007   8.007
   534G12c O00I 9693   5.919   5.997   8.138
   534G12c C02Q 9694   6.030   6.061   8.195
   534G12c H01N 9695   6.123   6.010   8.170
   534G12c H01R 9696   6.026   6.089   8.300
   534G12c H01Q 9697   6.036   6.160   8.151
   534G12c C02A 9698   6.003   6.044   7.911
   534G12c H011 9699   6.102   6.050   7.953
   534G12c C00C 9700   6.355   6.226   7.753
   534G12c H012 9701   6.271   6.243   7.820
   534G12c C00B 9702   6.472   6.192   7.817
   534G12c C00A 9703   6.494   6.177   7.964
   534G12c C009 9704   6.423   6.233   8.074
   534G12c C008 9705   6.319   6.329   8.085
   534G12c H013 9706   6.250   6.358   8.007
   534G12c C007 9707   6.317   6.418   8.197
   534G12c H014 9708   6.240   6.494   8.209
   534G12c C006 9709   6.419   6.406   8.293
   534G12c C005 9710   0.003   6.317   8.277
   534G12c C004 9711   0.121   6.316   8.354
   534G12c C003 9712   0.227   6.232   8.317
   534G12c C002 9713   0.349   6.245   8.402
   534G12c C001 9714   0.483   6.196   8.387
   534G12c C00M 9715   0.555   6.181   8.260
   534G12c C00L 9716   0.497   6.130   8.144
   534G12c C00R 9717   0.551   6.142   8.011
   534G12c C00Q 9718   0.679   6.194   7.959
   534G12c C00V 9719   0.671   6.200   7.818
   534G12c C00U 9720   0.559   6.184   7.731
   534G12c C00T 9721   0.437   6.149   7.784
   534G12c C016 9722   0.312   6.147   7.728
   534G12c C015 9723   0.310   6.167   7.592
   534G12c C010 9724   0.431   6.180   7.524
   534G12c C011 9725   0.430   6.200   7.386
   534G12c H005 9726   0.519   6.213   7.326
   534G12c C012 9727   0.309   6.195   7.308
   534G12c C017 9728   0.322   6.204   7.171
   534G12c O002 9729   0.417   6.137   7.107
   534G12c H004 9730   0.433   6.178   7.023
   534G12c C018 9731   0.235   6.273   7.097
   534G12c O001 9732   0.140   6.353   7.151
   534G12c H003 9733   0.174   6.382   7.235
   534G12c C019 9734   0.237   6.294   6.947
   534G12c H002 9735   0.140   6.272   6.903
   534G12c H001 9736   0.266   6.400   6.948
   534G12c O000 9737   0.332   6.217   6.874
   534G12c C01A 9738   0.321   6.246   6.739
   534G12c C02K 9739   0.368   6.371   6.687
   534G12c O00G 9740   0.433   6.457   6.772
   534G12c C02M 9741   0.476   0.057   6.723
   534G12c H01G 9742   0.553   0.061   6.646
   534G12c H01F 9743   0.504   0.118   6.809
   534G12c H01E 9744   0.388   0.107   6.681
   534G12c C02J 9745   0.350   6.389   6.539
   534G12c H01H 9746   0.379   6.479   6.487
   534G12c C02I 9747   0.292   6.287   6.454
   534G12c C02N 9748   0.292   6.309   6.313
   534G12c H01M 9749   0.274   6.406   6.269
   534G12c C02O 9750   0.353   6.216   6.231
   534G12c H01L 9751   0.381   6.117   6.265
   534G12c C02P 9752   0.378   6.231   6.083
   534G12c H01K 9753   0.479   6.264   6.058
   534G12c H01J 9754   0.377   6.132   6.036
   534G12c O00H 9755   0.284   6.327   6.021
   534G12c H01I 9756   0.193   6.303   6.025
   534G12c C02H 9757   0.259   6.164   6.514
   534G12c H01C 9758   0.213   6.078   6.468
   534G12c C02L 9759   0.259   6.148   6.656
   534G12c H01D 9760   0.212   6.059   6.693
   534G12c C013 9761   0.190   6.182   7.382
   534G12c H000 9762   0.106   6.171   7.315
   534G12c C014 9763   0.184   6.176   7.526
   534G12c C00F 9764   0.070   6.178   7.599
   534G12c C00H 9765   0.194   6.134   7.802
   534G12c C00I 9766   0.204   6.112   7.941
   534G12c C00J 9767   0.333   6.097   7.994
   534G12c C00Z 9768   0.558   6.189   7.597
   534G12c C00Y 9769   0.681   6.224   7.530
   534G12c H006 9770   0.683   6.248   7.425
   534G12c C00X 9771   0.799   6.250   7.606
   534G12c O003 9772   0.917   6.290   7.544
   534G12c C01B 9773   0.927   6.288   7.406
   534G12c H009 9774   0.903   6.190   7.364
   534G12c H008 9775   1.019   6.331   7.367
   534G12c H007 9776   0.849   6.351   7.363
   534G12c C00W 9777   0.796   6.236   7.750
   534G12c O004 9778   0.907   6.272   7.812
   534G12c C01C 9779   0.906   6.273   7.953
   534G12c H00A 9780   1.005   6.279   7.995
   534G12c C00P 9781   0.790   6.250   8.032
   534G12c C00O 9782   0.781   6.298   8.170
   534G12c C01D 9783   0.870   6.407   8.206
   534G12c H00S 9784   0.935   6.441   8.127
   534G12c C01E 9785   0.848   6.483   8.323
   534G12c O008 9786   0.909   0.084   8.342
   534G12c C01V 9787   1.019   0.078   8.431
   534G12c C01Z 9788   1.117   0.189   8.410
   534G12c H00R 9789   1.076   0.262   8.340
   534G12c H00Q 9790   1.124   0.239   8.507
   534G12c O009 9791   1.244   0.142   8.379
   534G12c H00P 9792   1.245   0.052   8.407
   534G12c C01W 9793   1.031   6.503   8.527
   534G12c H00O 9794   0.961   6.423   8.546
   534G12c C01X 9795   1.129   6.496   8.642
   534G12c H00N 9796   1.149   0.078   8.673
   534G12c H00M 9797   1.085   6.449   8.730
   534G12c C01Y 9798   1.249   6.418   8.608
   534G12c C02D 9799   1.227   6.289   8.567
   534G12c H019 9800   1.128   6.247   8.565
   534G12c C02C 9801   1.333   6.206   8.537
   534G12c H01A 9802   1.314   6.104   8.506
   534G12c C02B 9803   1.463   6.258   8.536
   534G12c O00E 9804   1.573   6.192   8.493
   534G12c H01B 9805   1.642   6.256   8.493
   534G12c C02F 9806   1.488   6.390   8.577
   534G12c O00F 9807   1.622   6.434   8.582
   534G12c C02G 9808   1.655   0.049   8.584
   534G12c H017 9809   1.629   0.105   8.495
   534G12c H016 9810   1.762   0.066   8.599
   534G12c H015 9811   1.599   0.088   8.669
   534G12c C02E 9812   1.376   6.472   8.614
   534G12c H018 9813   1.383   0.055   8.644
   534G12c C01F 9814   0.736   6.446   8.405
   534G12c C01G 9815   0.675   0.016   8.501
   534G12c H00L 9816   0.717   0.115   8.510
   534G12c C01H 9817   0.547   6.512   8.554
   534G12c H00B 9818   0.495   0.073   8.604
   534G12c C01I 9819   0.480   6.387   8.532
   534G12c C01U 9820   0.668   6.324   8.391
   534G12c C00S 9821   0.444   6.132   7.926
   534G12c C00K 9822   0.353   6.112   8.135
   534G12c C00N 9823   0.681   6.261   8.265
   534G12c C000 9824   0.556   6.293   8.465
   534G12c C01J 9825   0.343   6.340   8.511
   534G12c C01K 9826   0.230   6.424   8.546
   534G12c C01P 9827   0.210   6.512   8.657
   534G12c C01Q 9828   0.310   6.510   8.762
   534G12c H00G 9829   0.374   6.423   8.768
   534G12c C01R 9830   0.324   0.090   8.847
   534G12c H00F 9831   0.270   0.183   8.840
   534G12c C01S 9832   0.414   0.081   8.970
   534G12c H00E 9833   0.373   0.126   9.060
   534G12c H00D 9834   0.453   6.501   8.982
   534G12c O005 9835   0.532   0.170   8.965
   534G12c H00C 9836   0.562   0.168   9.055
   534G12c C01O 9837   0.102   0.079   8.670
   534G12c H00H 9838   0.088   0.158   8.742
   534G12c C01N 9839   0.004   0.080   8.571
   534G12c O006 9840   6.415   0.167   8.564
   534G12c C01T 9841   6.405   0.265   8.667
   534G12c H00K 9842   6.308   0.314   8.658
   534G12c H00J 9843   6.482   0.340   8.652
   534G12c H00I 9844   6.417   0.227   8.768
   534G12c C01M 9845   0.013   6.499   8.475
   534G12c C020 9846   0.235   6.150   8.204
   534G12c C021 9847   0.107   6.133   8.149
   534G12c C01L 9848   0.123   6.410   8.457
   534G12c O007 9849   6.422   6.494   8.394
   534G12c C022 9850   6.515   6.214   8.182
   534G12c C023 9851   0.085   6.107   8.014
   534G12c C00G 9852   0.073   6.164   7.738
   534G12c C00E 9853   6.460   6.203   7.538
   534G12c O00A 9854   6.436   6.198   7.405
   534G12c C024 9855   6.425   6.322   7.343
   534G12c H00V 9856   6.518   6.377   7.359
   534G12c H00U 9857   6.345   6.381   7.387
   534G12c H00T 9858   6.400   6.308   7.238
   544G12c C00D 9859   3.340   5.133   7.623
   544G12c O00B 9860   3.336   5.243   7.705
   544G12c C025 9861   3.424   5.351   7.677
   544G12c C026 9862   3.550   5.351   7.769
   544G12c H00Y 9863   3.642   5.370   7.714
   544G12c H00X 9864   3.575   5.250   7.800
   544G12c O00C 9865   3.542   5.443   7.877
   544G12c H00W 9866   3.463   5.419   7.924
   544G12c C027 9867   3.393   5.434   7.571
   544G12c O00D 9868   3.287   5.404   7.492
   544G12c H00Z 9869   3.227   5.343   7.533
   544G12c C028 9870   3.494   5.537   7.540
   544G12c C029 9871   3.557   5.545   7.413
   544G12c H010 9872   3.534   5.462   7.348
   544G12c C02T 9873   3.653   5.641   7.379
   544G12c H01O 9874   3.706   5.643   7.285
   544G12c C02S 9875   3.677   5.738   7.474
   544G12c O00J 9876   3.752   5.844   7.453
   544G12c H01P 9877   3.749   5.892   7.534
   544G12c C02R 9878   3.615   5.738   7.597
   544G12c O00I 9879   3.657   5.833   7.688
   544G12c C02Q 9880   3.560   5.882   7.779
   544G12c H01N 9881   3.463   5.903   7.733
   544G12c H01R 9882   3.588   5.973   7.833
   544G12c H01Q 9883   3.547   5.807   7.857
   544G12c C02A 9884   3.515   5.645   7.629
   544G12c H011 9885   3.464   5.642   7.724
   544G12c C00C 9886   3.412   5.115   7.505
   544G12c H012 9887   3.470   5.193   7.459
   544G12c C00B 9888   3.422   4.996   7.431
   544G12c C00A 9889   3.479   4.982   7.300
   544G12c C009 9890   3.487   5.073   7.190
   544G12c C008 9891   3.473   5.208   7.178
   544G12c H013 9892   3.470   5.266   7.269
   544G12c C007 9893   3.441   5.270   7.052
   544G12c H014 9894   3.431   5.377   7.037
   544G12c C006 9895   3.425   5.184   6.942
   544G12c C005 9896   3.440   5.047   6.959
   544G12c C004 9897   3.404   4.951   6.867
   544G12c C003 9898   3.397   4.812   6.900
   544G12c C002 9899   3.355   4.722   6.793
   544G12c C001 9900   3.329   4.586   6.787
   544G12c C00M 9901   3.259   4.514   6.899
   544G12c C00L 9902   3.311   4.521   7.031
   544G12c C00R 9903   3.243   4.469   7.144
   544G12c C00Q 9904   3.117   4.398   7.158
   544G12c C00V 9905   3.091   4.376   7.292
   544G12c C00U 9906   3.139   4.459   7.399
   544G12c C00T 9907   3.236   4.549   7.376
   544G12c C016 9908   3.272   4.655   7.460
   544G12c C015 9909   3.206   4.660   7.580
   544G12c C010 9910   3.130   4.545   7.626
   544G12c C011 9911   3.069   4.553   7.751
   544G12c H005 9912   3.010   4.472   7.790
   544G12c C012 9913   3.089   4.669   7.830
   544G12c C017 9914   3.045   4.671   7.973
   544G12c O002 9915   3.149   4.719   8.052
   544G12c H004 9916   3.129   4.713   8.144
   544G12c C018 9917   2.926   4.630   8.012
   544G12c O001 9918   2.830   4.587   7.925
   544G12c H003 9919   2.758   4.566   7.983
   544G12c C019 9920   2.895   4.627   8.164
   544G12c H002 9921   2.941   4.553   8.230
   544G12c H001 9922   2.912   4.723   8.213
   544G12c O000 9923   2.754   4.601   8.174
   544G12c C01A 9924   2.686   4.634   8.293
   544G12c C02K 9925   2.548   4.653   8.282
   544G12c O00G 9926   2.487   4.634   8.162
   544G12c C02M 9927   2.511   4.734   8.072
   544G12c H01G 9928   2.486   4.832   8.114
   544G12c H01F 9929   2.456   4.718   7.979
   544G12c H01E 9930   2.613   4.742   8.036
   544G12c C02J 9931   2.472   4.676   8.398
   544G12c H01H 9932   2.365   4.684   8.381
   544G12c C02I 9933   2.536   4.699   8.523
   544G12c C02N 9934   2.471   4.744   8.646
   544G12c H01M 9935   2.502   4.722   8.747
   544G12c C02O 9936   2.345   4.803   8.633
   544G12c H01L 9937   2.294   4.835   8.543
   544G12c C02P 9938   2.270   4.844   8.759
   544G12c H01K 9939   2.328   4.836   8.851
   544G12c H01J 9940   2.239   4.948   8.754
   544G12c O00H 9941   2.165   4.747   8.776
   544G12c H01I 9942   2.097   4.762   8.712
   544G12c C02H 9943   2.674   4.676   8.528
   544G12c H01C 9944   2.726   4.675   8.623
   544G12c C02L 9945   2.748   4.641   8.415
   544G12c H01D 9946   2.854   4.623   8.423
   544G12c C013 9947   3.163   4.781   7.776
   544G12c H000 9948   3.169   4.865   7.844
   544G12c C014 9949   3.213   4.778   7.648
   544G12c C00F 9950   3.267   4.897   7.596
   544G12c C00H 9951   3.362   4.755   7.419
   544G12c C00I 9952   3.427   4.740   7.297
   544G12c C00J 9953   3.389   4.631   7.215
   544G12c C00Z 9954   3.094   4.447   7.531
   544G12c C00Y 9955   3.015   4.329   7.562
   544G12c H006 9956   2.985   4.314   7.665
   544G12c C00X 9957   2.969   4.244   7.461
   544G12c O003 9958   2.875   4.143   7.484
   544G12c C01B 9959   2.878   4.089   7.608
   544G12c H009 9960   2.851   4.159   7.687
   544G12c H008 9961   2.965   4.029   7.636
   544G12c H007 9962   2.802   4.011   7.610
   544G12c C00W 9963   3.004   4.267   7.326
   544G12c O004 9964   2.933   4.206   7.225
   544G12c C01C 9965   2.910   4.274   7.110
   544G12c H00A 9966   2.810   4.315   7.105
   544G12c C00P 9967   3.022   4.353   7.056
   544G12c C00O 9968   3.029   4.390   6.921
   544G12c C01D 9969   2.910   4.381   6.841
   544G12c H00S 9970   2.823   4.336   6.886
   544G12c C01E 9971   2.887   4.454   6.720
   544G12c O008 9972   2.761   4.463   6.657
   544G12c C01V 9973   2.652   4.415   6.726
   544G12c C01Z 9974   2.594   4.282   6.685
   544G12c H00R 9975   2.499   4.266   6.736
   544G12c H00Q 9976   2.576   4.269   6.578
   544G12c O009 9977   2.679   4.176   6.717
   544G12c H00P 9978   2.723   4.154   6.636
   544G12c C01W 9979   2.605   4.487   6.828
   544G12c H00O 9980   2.660   4.580   6.837
   544G12c C01X 9981   2.480   4.462   6.914
   544G12c H00N 9982   2.415   4.548   6.924
   544G12c H00M 9983   2.407   4.391   6.875
   544G12c C01Y 9984   2.522   4.408   7.050
   544G12c C02D 9985   2.557   4.506   7.144
   544G12c H019 9986   2.558   4.611   7.122
   544G12c C02C 9987   2.605   4.465   7.267
   544G12c H01A 9988   2.629   4.539   7.342
   544G12c C02B 9989   2.606   4.331   7.304
   544G12c O00E 9990   2.652   4.293   7.423
   544G12c H01B 9991   2.656   4.202   7.447
   544G12c C02F 9992   2.565   4.236   7.211
   544G12c O00F 9993   2.582   4.108   7.249
   544G12c C02G 9994   2.559   4.005   7.154
   544G12c H017 9995   2.457   3.994   7.118
   544G12c H016 9996   2.591   3.908   7.194
   544G12c H015 9997   2.624   4.019   7.067
   544G12c C02E 9998   2.529   4.274   7.079
   544G12c H018 9999   2.495   4.189   7.022
   544G12c C01F10000   2.996   4.524   6.658
   544G12c C01G10001   2.986   4.624   6.552
   544G12c H00L10002   2.893   4.648   6.504
   544G12c C01H10003   3.103   4.715   6.536
   544G12c H00B10004   3.085   4.803   6.476
   544G12c C01I10005   3.226   4.693   6.604
   544G12c C01U10006   3.129   4.501   6.720
   544G12c C00S10007   3.303   4.532   7.255
   544G12c C00K10008   3.391   4.632   7.071
   544G12c C00N10009   3.136   4.458   6.857
   544G12c C00010010   3.247   4.571   6.676
   544G12c C01J10011   3.314   4.783   6.669
   544G12c C01K10012   3.325   4.922   6.633
   544G12c C01P10013   3.311   4.983   6.500
   544G12c C01Q10014   3.306   4.903   6.383
   544G12c H00G10015   3.228   4.921   6.310
   544G12c C01R10016   3.403   4.811   6.360
   544G12c H00F10017   3.489   4.808   6.426
   544G12c C01S10018   3.425   4.721   6.238
   544G12c H00E10019   3.513   4.756   6.185
   544G12c H00D10020   3.446   4.619   6.270
   544G12c O00510021   3.310   4.723   6.157
   544G12c H00C10022   3.246   4.710   6.225
   544G12c C01O10023   3.315   5.118   6.486
   544G12c H00H10024   3.298   5.164   6.390
   544G12c C01N10025   3.329   5.202   6.599
   544G12c O00610026   3.333   5.339   6.597
   544G12c C01T10027   3.340   5.404   6.475
   544G12c H00K10028   3.248   5.386   6.420
   544G12c H00J10029   3.424   5.369   6.416
   544G12c H00I10030   3.353   5.512   6.486
   544G12c C01M10031   3.351   5.142   6.725
   544G12c C02010032   3.437   4.756   7.023
   544G12c C02110033   3.497   4.860   7.107
   544G12c C01L10034   3.361   4.999   6.741
   544G12c O00710035   3.377   5.234   6.828
   544G12c C02210036   3.491   4.993   7.076
   544G12c C02310037   3.490   4.852   7.246
   544G12c C00G10038   3.354   4.885   7.482
   544G12c C00E10039   3.255   5.027   7.659
   544G12c O00A10040   3.156   5.061   7.747
   544G12c C02410041   3.028   5.060   7.695
   544G12c H00V10042   3.014   5.116   7.603
   544G12c H00U10043   2.949   5.088   7.764
   544G12c H00T10044   3.007   4.958   7.660
   554G12c C00D10045   3.976   0.221   5.569
   554G12c O00B10046   3.882   0.248   5.664
   554G12c C02510047   3.926   0.277   5.793
   554G12c C02610048   4.039   0.380   5.818
   554G12c H00Y10049   4.033   0.424   5.918
   554G12c H00X10050   4.030   0.457   5.742
   554G12c O00C10051   4.161   0.319   5.796
   554G12c H00W10052   4.152   0.226   5.781
   554G12c C02710053   3.868   0.205   5.895
   554G12c O00D10054   3.767   0.110   5.872
   554G12c H00Z10055   3.744   0.103   5.780
   554G12c C02810056   3.912   0.215   6.033
   554G12c C02910057   3.833   0.287   6.127
   554G12c H01010058   3.739   0.329   6.094
   554G12c C02T10059   3.860   0.297   6.267
   554G12c H01O10060   3.804   0.356   6.339
   554G12c C02S10061   3.977   0.228   6.314
   554G12c O00J10062   4.012   0.213   6.446
   554G12c H01P10063   4.103   0.184   6.445
   554G12c C02R10064   4.061   0.157   6.225
   554G12c O00I10065   4.164   0.083   6.282
   554G12c C02Q10066   4.266   0.036   6.191
   554G12c H01N10067   4.342   6.498   6.241
   554G12c H01R10068   4.314   0.124   6.149
   554G12c H01Q10069   4.233   6.485   6.116
   554G12c C02A10070   4.028   0.148   6.090
   554G12c H01110071   4.093   0.102   6.016
   554G12c C00C10072   3.959   0.290   5.449
   554G12c H01210073   3.878   0.361   5.435
   554G12c C00B10074   4.048   0.282   5.344
   554G12c C00A10075   4.048   0.363   5.228
   554G12c C00910076   3.943   0.429   5.155
   554G12c C00810077   3.802   0.446   5.171
   554G12c H01310078   3.748   0.413   5.259
   554G12c C00710079   3.717   0.474   5.061
   554G12c H01410080   3.610   0.480   5.059
   554G12c C00610081   3.775   0.492   4.930
   554G12c C00510082   3.912   0.479   4.918
   554G12c C00410083   3.975   0.434   4.796
   554G12c C00310084   4.112   0.382   4.789
   554G12c C00210085   4.157   0.346   4.658
   554G12c C00110086   4.266   0.276   4.611
   554G12c C00M10087   4.327   0.163   4.680
   554G12c C00L10088   4.358   0.162   4.813
   554G12c C00R10089   4.408   0.055   4.890
   554G12c C00Q10090   4.432   6.440   4.860
   554G12c C00V10091   4.458   6.360   4.972
   554G12c C00U10092   4.435   6.404   5.105
   554G12c C00T10093   4.387   0.008   5.128
   554G12c C01610094   4.327   0.047   5.247
   554G12c C01510095   4.334   6.484   5.355
   554G12c C01010096   4.403   6.361   5.341
   554G12c C01110097   4.433   6.291   5.463
   554G12c H00510098   4.504   6.210   5.461
   554G12c C01210099   4.391   6.343   5.583
   554G12c C01710100   4.439   6.277   5.703
   554G12c O00210101   4.448   6.143   5.708
   554G12c H00410102   4.432   6.103   5.624
   554G12c C01810103   4.461   6.346   5.818
   554G12c O00110104   4.454   6.481   5.826
   554G12c H00310105   4.508   6.508   5.899
   554G12c C01910106   4.504   6.294   5.957
   554G12c H00210107   4.407   6.273   6.003
   554G12c H00110108   4.558   6.200   5.946
   554G12c O00010109   4.579   6.390   6.022
   554G12c C01A10110   4.625   6.376   6.147
   554G12c C02K10111   4.588   6.285   6.249
   554G12c O00G10112   4.500   6.183   6.221
   554G12c C02M10113   4.475   6.085   6.318
   554G12c H01G10114   4.429   6.130   6.406
   554G12c H01F10115   4.561   6.028   6.353
   554G12c H01E10116   4.422   6.006   6.263
   554G12c C02J10117   4.660   6.290   6.370
   554G12c H01H10118   4.636   6.218   6.447
   554G12c C02I10119   4.746   6.400   6.402
   554G12c C02N10120   4.805   6.411   6.535
   554G12c H01M10121   4.749   6.374   6.620
   554G12c C02O10122   4.914   6.486   6.558
   554G12c H01L10123   4.977   0.000   6.477
   554G12c C02P10124   4.959   0.008   6.696
   554G12c H01K10125   4.976   0.115   6.699
   554G12c H01J10126   4.889   6.488   6.769
   554G12c O00H10127   5.087   6.483   6.726
   554G12c H01I10128   5.149   0.023   6.690
   554G12c C02H10129   4.773   6.496   6.308
   554G12c H01C10130   4.834   0.062   6.328
   554G12c C02L10131   4.726   6.473   6.177
   554G12c H01D10132   4.748   0.013   6.090
   554G12c C01310133   4.300   6.451   5.585
   554G12c H00010134   4.259   6.472   5.683
   554G12c C01410135   4.262   6.519   5.467
   554G12c C00F10136   4.165   0.098   5.467
   554G12c C00H10137   4.245   0.163   5.249
   554G12c C00I10138   4.255   0.249   5.137
   554G12c C00J10139   4.343   0.219   5.029
   554G12c C00Z10140   4.444   6.316   5.213
   554G12c C00Y10141   4.489   6.184   5.196
   554G12c H00610142   4.502   6.115   5.278
   554G12c C00X10143   4.526   6.137   5.066
   554G12c O00310144   4.572   6.007   5.047
   554G12c C01B10145   4.585   5.911   5.150
   554G12c H00910146   4.487   5.871   5.175
   554G12c H00810147   4.631   5.945   5.243
   554G12c H00710148   4.648   5.826   5.124
   554G12c C00W10149   4.500   6.222   4.956
   554G12c O00410150   4.530   6.166   4.833
   554G12c C01C10151   4.473   6.233   4.724
   554G12c H00A10152   4.466   6.175   4.633
   554G12c C00P10153   4.435   6.375   4.729
   554G12c C00O10154   4.379   6.435   4.605
   554G12c C01D10155   4.360   6.358   4.484
   554G12c H00S10156   4.390   6.255   4.471
   554G12c C01E10157   4.266   6.391   4.382
   554G12c O00810158   4.223   6.303   4.280
   554G12c C01V10159   4.318   6.225   4.209
   554G12c C01Z10160   4.253   6.099   4.154
   554G12c H00R10161   4.316   6.038   4.088
   554G12c H00Q10162   4.232   6.038   4.241
   554G12c O00910163   4.127   6.131   4.097
   554G12c H00P10164   4.089   6.200   4.149
   554G12c C01W10165   4.446   6.266   4.192
   554G12c H00O10166   4.477   6.363   4.229
   554G12c C01X10167   4.548   6.204   4.097
   554G12c H00N10168   4.505   6.135   4.023
   554G12c H00M10169   4.592   6.283   4.036
   554G12c C01Y10170   4.656   6.110   4.158
   554G12c C02D10171   4.687   6.107   4.299
   554G12c H01910172   4.635   6.181   4.359
   554G12c C02C10173   4.774   6.007   4.354
   554G12c H01A10174   4.802   5.998   4.458
   554G12c C02B10175   4.826   5.909   4.264
   554G12c O00E10176   4.903   5.808   4.318
   554G12c H01B10177   4.959   5.770   4.251
   554G12c C02F10178   4.809   5.916   4.122
   554G12c O00F10179   4.868   5.826   4.036
   554G12c C02G10180   4.824   5.815   3.897
   554G12c H01710181   4.716   5.802   3.894
   554G12c H01610182   4.861   5.720   3.860
   554G12c H01510183   4.854   5.894   3.828
   554G12c C02E10184   4.729   6.020   4.072
   554G12c H01810185   4.712   6.017   3.966
   554G12c C01F10186   4.222   0.006   4.384
   554G12c C01G10187   4.105   0.057   4.309
   554G12c H00L10188   4.044   6.506   4.256
   554G12c C01H10189   4.050   0.186   4.345
   554G12c H00B10190   3.947   0.200   4.317
   554G12c C01I10191   4.112   0.272   4.441
   554G12c C01U10192   4.292   0.103   4.467
   554G12c C00S10193   4.403   0.096   5.024
   554G12c C00K10194   4.302   0.252   4.901
   554G12c C00N10195   4.338   0.053   4.592
   554G12c C00010196   4.241   0.235   4.486
   554G12c C01J10197   4.067   0.366   4.548
   554G12c C01K10198   3.944   0.437   4.547
   554G12c C01P10199   3.856   0.478   4.436
   554G12c C01Q10200   3.899   0.476   4.298
   554G12c H00G10201   4.001   0.495   4.267
   554G12c C01R10202   3.809   0.447   4.202
   554G12c H00F10203   3.714   0.401   4.225
   554G12c C01S10204   3.828   0.446   4.051
   554G12c H00E10205   3.759   0.373   4.010
   554G12c H00D10206   3.804   0.544   4.010
   554G12c O00510207   3.957   0.415   4.014
   554G12c H00C10208   3.961   0.321   4.009
   554G12c C01O10209   3.732   0.543   4.461
   554G12c H00H10210   3.666   0.577   4.383
   554G12c C01N10211   3.691   0.557   4.593
   554G12c O00610212   3.576   0.626   4.626
   554G12c C01T10213   3.474   0.649   4.528
   554G12c H00K10214   3.496   0.726   4.455
   554G12c H00J10215   3.389   0.694   4.579
   554G12c H00I10216   3.439   0.561   4.474
   554G12c C01M10217   3.767   0.517   4.700
   554G12c C02010218   4.193   0.354   4.900
   554G12c C02110219   4.128   0.409   5.016
   554G12c C01L10220   3.898   0.462   4.681
   554G12c O00710221   3.708   0.530   4.821
   554G12c C02210222   4.002   0.463   5.029
   554G12c C02310223   4.159   0.360   5.140
   554G12c C00G10224   4.153   0.185   5.351
   554G12c C00E10225   4.075   0.119   5.580
   554G12c O00A10226   4.074   0.034   5.684
   554G12c C02410227   3.985   6.448   5.682
   554G12c H00V10228   3.883   6.461   5.646
   554G12c H00U10229   3.971   6.421   5.787
   554G12c H00T10230   4.044   6.367   5.638
   564G12c C00D10231   5.520   3.825   6.058
   564G12c O00B10232   5.517   3.734   6.154
   564G12c C02510233   5.457   3.757   6.280
   564G12c C02610234   5.548   3.821   6.379
   564G12c H00Y10235   5.490   3.858   6.464
   564G12c H00X10236   5.572   3.912   6.325
   564G12c O00C10237   5.662   3.741   6.403
   564G12c H00W10238   5.689   3.696   6.325
   564G12c C02710239   5.322   3.744   6.296
   564G12c O00D10240   5.244   3.708   6.189
   564G12c H00Z10241   5.169   3.661   6.222
   564G12c C02810242   5.259   3.774   6.422
   564G12c C02910243   5.306   3.727   6.541
   564G12c H01010244   5.391   3.660   6.546
   564G12c C02T10245   5.241   3.760   6.660
   564G12c H01O10246   5.265   3.706   6.751
   564G12c C02S10247   5.122   3.831   6.663
   564G12c O00J10248   5.056   3.852   6.778
   564G12c H01P10249   4.981   3.907   6.760
   564G12c C02R10250   5.064   3.874   6.544
   564G12c O00I10251   4.939   3.930   6.551
   564G12c C02Q10252   4.867   3.966   6.434
   564G12c H01N10253   4.820   3.877   6.392
   564G12c H01R10254   4.919   4.010   6.350
   564G12c H01Q10255   4.788   4.030   6.473
   564G12c C02A10256   5.142   3.852   6.425
   564G12c H01110257   5.103   3.883   6.329
   564G12c C00C10258   5.496   3.963   6.076
   564G12c H01210259   5.472   3.997   6.176
   564G12c C00B10260   5.499   4.053   5.973
   564G12c C00A10261   5.428   4.182   5.971
   564G12c C00910262   5.314   4.232   6.048
   564G12c C00810263   5.232   4.180   6.148
   564G12c H01310264   5.259   4.096   6.210
   564G12c C00710265   5.109   4.245   6.170
   564G12c H01410266   5.054   4.209   6.256
   564G12c C00610267   5.057   4.347   6.086
   564G12c C00510268   5.140   4.378   5.979
   564G12c C00410269   5.090   4.459   5.874
   564G12c C00310270   5.165   4.459   5.751
   564G12c C00210271   5.100   4.525   5.640
   564G12c C00110272   5.132   4.546   5.497
   564G12c C00M10273   5.210   4.459   5.411
   564G12c C00L10274   5.320   4.387   5.462
   564G12c C00R10275   5.389   4.285   5.393
   564G12c C00Q10276   5.356   4.209   5.269
   564G12c C00V10277   5.436   4.090   5.258
   564G12c C00U10278   5.516   4.034   5.360
   564G12c C00T10279   5.529   4.097   5.481
   564G12c C01610280   5.571   4.035   5.600
   564G12c C01510281   5.614   3.905   5.591
   564G12c C01010282   5.628   3.846   5.464
   564G12c C01110283   5.701   3.724   5.451
   564G12c H00510284   5.723   3.685   5.353
   564G12c C01210285   5.749   3.657   5.567
   564G12c C01710286   5.828   3.539   5.549
   564G12c O00210287   5.944   3.557   5.483
   564G12c H00410288   5.930   3.534   5.392
   564G12c C01810289   5.780   3.416   5.590
   564G12c O00110290   5.652   3.407   5.639
   564G12c H00310291   5.638   3.314   5.648
   564G12c C01910292   5.854   3.283   5.563
   564G12c H00210293   5.946   3.308   5.510
   564G12c H00110294   5.868   3.242   5.664
   564G12c O00010295   5.784   3.195   5.490
   564G12c C01A10296   5.842   3.067   5.468
   564G12c C02K10297   5.798   2.991   5.358
   564G12c O00G10298   5.701   3.050   5.275
   564G12c C02M10299   5.645   2.968   5.175
   564G12c H01G10300   5.712   2.937   5.095
   564G12c H01F10301   5.555   3.013   5.133
   564G12c H01E10302   5.612   2.878   5.226
   564G12c C02J10303   5.850   2.863   5.326
   564G12c H01H10304   5.824   2.810   5.236
   564G12c C02I10305   5.952   2.805   5.400
   564G12c C02N10306   6.013   2.682   5.353
   564G12c H01M10307   6.003   2.651   5.250
   564G12c C02O10308   6.082   2.606   5.436
   564G12c H01L10309   6.098   2.630   5.540
   564G12c C02P10310   6.131   2.464   5.401
   564G12c H01K10311   6.083   2.396   5.471
   564G12c H01J10312   6.100   2.437   5.300
   564G12c O00H10313   6.275   2.445   5.413
   564G12c H01I10314   6.319   2.525   5.391
   564G12c C02H10315   5.991   2.878   5.518
   564G12c H01C10316   6.065   2.832   5.581
   564G12c C02L10317   5.945   3.012   5.549
   564G12c H01D10318   5.975   3.063   5.640
   564G12c C01310319   5.713   3.703   5.690
   564G12c H00010320   5.747   3.645   5.774
   564G12c C01410321   5.639   3.829   5.701
   564G12c C00F10322   5.584   3.874   5.824
   564G12c C00H10323   5.545   4.092   5.725
   564G12c C00I10324   5.496   4.223   5.731
   564G12c C00J10325   5.465   4.286   5.611
   564G12c C00Z10326   5.576   3.906   5.353
   564G12c C00Y10327   5.588   3.852   5.224
   564G12c H00610328   5.656   3.774   5.196
   564G12c C00X10329   5.516   3.909   5.118
   564G12c O00310330   5.517   3.845   4.995
   564G12c C01B10331   5.483   3.705   4.994
   564G12c H00910332   5.458   3.665   4.896
   564G12c H00810333   5.387   3.702   5.046
   564G12c H00710334   5.553   3.645   5.051
   564G12c C00W10335   5.435   4.018   5.134
   564G12c O00410336   5.350   4.050   5.030
   564G12c C01C10337   5.249   4.132   5.063
   564G12c H00A10338   5.172   4.131   4.988
   564G12c C00P10339   5.248   4.226   5.176
   564G12c C00O10340   5.129   4.308   5.201
   564G12c C01D10341   5.004   4.270   5.142
   564G12c H00S10342   4.999   4.190   5.070
   564G12c C01E10343   4.877   4.307   5.202
   564G12c O00810344   4.762   4.248   5.160
   564G12c C01V10345   4.691   4.176   5.249
   564G12c C01Z10346   4.548   4.153   5.194
   564G12c H00R10347   4.487   4.223   5.251
   564G12c H00Q10348   4.548   4.196   5.094
   564G12c O00910349   4.500   4.029   5.210
   564G12c H00P10350   4.551   3.965   5.162
   564G12c C01W10351   4.738   4.121   5.360
   564G12c H00O10352   4.842   4.121   5.387
   564G12c C01X10353   4.665   4.035   5.465
   564G12c H00N10354   4.591   3.968   5.421
   564G12c H00M10355   4.734   3.967   5.515
   564G12c C01Y10356   4.617   4.131   5.565
   564G12c C02D10357   4.704   4.172   5.669
   564G12c H01910358   4.802   4.129   5.677
   564G12c C02C10359   4.655   4.257   5.768
   564G12c H01A10360   4.714   4.285   5.855
   564G12c C02B10361   4.520   4.299   5.767
   564G12c O00E10362   4.470   4.375   5.869
   564G12c H01B10363   4.379   4.392   5.849
   564G12c C02F10364   4.432   4.253   5.666
   564G12c O00F10365   4.295   4.279   5.686
   564G12c C02G10366   4.208   4.272   5.569
   564G12c H01710367   4.263   4.264   5.476
   564G12c H01610368   4.140   4.357   5.574
   564G12c H01510369   4.150   4.181   5.587
   564G12c C02E10370   4.481   4.164   5.568
   564G12c H01810371   4.410   4.114   5.504
   564G12c C01F10372   4.876   4.409   5.298
   564G12c C01G10373   4.758   4.441   5.371
   564G12c H00L10374   4.660   4.403   5.344
   564G12c C01H10375   4.769   4.520   5.488
   564G12c H00B10376   4.686   4.514   5.557
   564G12c C01I10377   4.891   4.567   5.527
   564G12c C01U10378   4.994   4.476   5.339
   564G12c C00S10379   5.481   4.230   5.484
   564G12c C00K10380   5.356   4.382   5.598
   564G12c C00N10381   5.119   4.410   5.306
   564G12c C00010382   5.002   4.571   5.438
   564G12c C01J10383   4.958   4.560   5.654
   564G12c C01K10384   4.890   4.571   5.778
   564G12c C01P10385   4.771   4.639   5.811
   564G12c C01Q10386   4.710   4.727   5.718
   564G12c H00G10387   4.771   4.795   5.661
   564G12c C01R10388   4.575   4.721   5.711
   564G12c H00F10389   4.511   4.651   5.763
   564G12c C01S10390   4.491   4.809   5.623
   564G12c H00E10391   4.439   4.896   5.664
   564G12c H00D10392   4.562   4.855   5.554
   564G12c O00510393   4.398   4.735   5.550
   564G12c H00C10394   4.428   4.755   5.463
   564G12c C01O10395   4.707   4.622   5.934
   564G12c H00H10396   4.613   4.666   5.964
   564G12c C01N10397   4.768   4.546   6.033
   564G12c O00610398   4.712   4.521   6.153
   564G12c C01T10399   4.658   4.629   6.228
   564G12c H00K10400   4.599   4.697   6.166
   564G12c H00J10401   4.733   4.699   6.263
   564G12c H00I10402   4.601   4.591   6.313
   564G12c C01M10403   4.888   4.482   6.008
   564G12c C02010404   5.303   4.416   5.732
   564G12c C02110405   5.353   4.365   5.856
   564G12c C01L10406   4.957   4.507   5.882
   564G12c O00710407   4.937   4.405   6.108
   564G12c C02210408   5.277   4.342   5.966
   564G12c C02310409   5.459   4.266   5.862
   564G12c C00G10410   5.554   4.010   5.842
   564G12c C00E10411   5.557   3.784   5.928
   564G12c O00A10412   5.554   3.648   5.898
   564G12c C02410413   5.443   3.593   5.837
   564G12c H00V10414   5.425   3.656   5.750
   564G12c H00U10415   5.352   3.601   5.897
   564G12c H00T10416   5.447   3.488   5.810
   574G12c C00D10417   4.449   6.423   3.462
   574G12c O00B10418   4.366   6.323   3.510
   574G12c C02510419   4.293   6.352   3.624
   574G12c C02610420   4.349   6.279   3.748
   574G12c H00Y10421   4.295   6.296   3.841
   574G12c H00X10422   4.449   6.321   3.761
   574G12c O00C10423   4.336   6.141   3.722
   574G12c H00W10424   4.358   6.118   3.632
   574G12c C02710425   4.185   6.419   3.620
   574G12c O00D10426   4.134   6.460   3.501
   574G12c H00Z10427   4.185   6.425   3.430
   574G12c C02810428   4.116   6.466   3.742
   574G12c C02910429   4.169   0.039   3.827
   574G12c H01010430   4.268   0.077   3.806
   574G12c C02T10431   4.096   0.090   3.940
   574G12c H01O10432   4.146   0.154   4.012
   574G12c C02S10433   3.967   0.056   3.962
   574G12c O00J10434   3.901   0.113   4.066
   574G12c H01P10435   3.808   0.098   4.054
   574G12c C02R10436   3.906   6.475   3.884
   574G12c O00I10437   3.783   6.429   3.922
   574G12c C02Q10438   3.728   6.320   3.851
   574G12c H01N10439   3.699   6.343   3.748
   574G12c H01R10440   3.643   6.273   3.899
   574G12c H01Q10441   3.795   6.235   3.841
   574G12c C02A10442   3.981   6.421   3.769
   574G12c H01110443   3.944   6.341   3.707
   574G12c C00C10444   4.503   6.399   3.331
   574G12c H01210445   4.462   6.312   3.282
   574G12c C00B10446   4.585   6.484   3.262
   574G12c C00A10447   4.660   6.455   3.140
   574G12c C00910448   4.718   6.331   3.105
   574G12c C00810449   4.706   6.201   3.159
   574G12c H01310450   4.629   6.168   3.227
   574G12c C00710451   4.812   6.115   3.128
   574G12c H01410452   4.821   6.014   3.166
   574G12c C00610453   4.928   6.151   3.054
   574G12c C00510454   4.924   6.277   3.002
   574G12c C00410455   5.044   6.336   2.955
   574G12c C00310456   5.057   6.479   2.936
   574G12c C00210457   5.190   0.009   2.911
   574G12c C00110458   5.248   0.138   2.901
   574G12c C00M10459   5.221   0.239   3.002
   574G12c C00L10460   5.092   0.275   3.035
   574G12c C00R10461   5.056   0.361   3.143
   574G12c C00Q10462   5.136   0.441   3.231
   574G12c C00V10463   5.058   0.504   3.333
   574G12c C00U10464   4.930   0.458   3.370
   574G12c C00T10465   4.868   0.366   3.298
   574G12c C01610466   4.750   0.293   3.332
   574G12c C01510467   4.690   0.326   3.450
   574G12c C01010468   4.739   0.443   3.514
   574G12c C01110469   4.669   0.486   3.628
   574G12c H00510470   4.699   0.567   3.693
   574G12c C01210471   4.550   0.426   3.675
   574G12c C01710472   4.487   0.476   3.798
   574G12c O00210473   4.493   0.614   3.821
   574G12c H00410474   4.432   0.623   3.892
   574G12c C01810475   4.431   0.395   3.892
   574G12c O00110476   4.424   0.262   3.883
   574G12c H00310477   4.474   0.236   3.807
   574G12c C01910478   4.371   0.450   4.022
   574G12c H00210479   4.267   0.417   4.026
   574G12c H00110480   4.432   0.407   4.102
   574G12c O00010481   4.374   0.591   4.033
   574G12c C01A10482   4.355   0.651   4.161
   574G12c C02K10483   4.403   0.779   4.172
   574G12c O00G10484   4.451   0.830   4.052
   574G12c C02M10485   4.484   0.963   4.040
   574G12c H01G10486   4.516   0.992   3.940
   574G12c H01F10487   4.569   0.995   4.101
   574G12c H01E10488   4.400   1.026   4.071
   574G12c C02J10489   4.400   0.852   4.293
   574G12c H01H10490   4.436   0.953   4.304
   574G12c C02I10491   4.352   0.784   4.409
   574G12c C02N10492   4.350   0.842   4.543
   574G12c H01M10493   4.344   0.782   4.633
   574G12c C02O10494   4.358   0.979   4.558
   574G12c H01L10495   4.353   1.041   4.470
   574G12c C02P10496   4.375   1.050   4.690
   574G12c H01K10497   4.294   1.119   4.712
   574G12c H01J10498   4.374   0.985   4.777
   574G12c O00H10499   4.506   1.099   4.687
   574G12c H01I10500   4.558   1.021   4.676
   574G12c C02H10501   4.316   0.643   4.399
   574G12c H01C10502   4.275   0.588   4.482
   574G12c C02L10503   4.319   0.575   4.277
   574G12c H01D10504   4.296   0.469   4.278
   574G12c C01310505   4.500   0.320   3.595
   574G12c H00010506   4.403   0.279   3.621
   574G12c C01410507   4.576   0.258   3.494
   574G12c C00F10508   4.551   0.128   3.442
   574G12c C00H10509   4.710   0.176   3.263
   574G12c C00I10510   4.767   0.151   3.135
   574G12c C00J10511   4.875   0.234   3.094
   574G12c C00Z10512   4.859   0.508   3.483
   574G12c C00Y10513   4.918   0.620   3.553
   574G12c H00610514   4.863   0.669   3.632
   574G12c C00X10515   5.039   0.670   3.514
   574G12c O00310516   5.091   0.786   3.573
   574G12c C01B10517   5.002   0.897   3.566
   574G12c H00910518   4.950   0.891   3.471
   574G12c H00810519   5.056   0.992   3.575
   574G12c H00710520   4.946   0.892   3.659
   574G12c C00W10521   5.112   0.609   3.411
   574G12c O00410522   5.236   0.652   3.392
   574G12c C01C10523   5.326   0.568   3.327
   574G12c H00A10524   5.426   0.609   3.320
   574G12c C00P10525   5.280   0.463   3.242
   574G12c C00O10526   5.379   0.377   3.175
   574G12c C01D10527   5.516   0.369   3.221
   574G12c H00S10528   5.546   0.435   3.301
   574G12c C01E10529   5.609   0.267   3.189
   574G12c O00810530   5.735   0.255   3.250
   574G12c C01V10531   5.756   0.317   3.367
   574G12c C01Z10532   5.899   0.369   3.365
   574G12c H00R10533   5.959   0.318   3.440
   574G12c H00Q10534   5.944   0.351   3.267
   574G12c O00910535   5.898   0.509   3.386
   574G12c H00P10536   5.847   0.547   3.317
   574G12c C01W10537   5.672   0.315   3.472
   574G12c H00O10538   5.582   0.257   3.456
   574G12c C01X10539   5.693   0.371   3.607
   574G12c H00N10540   5.654   0.302   3.682
   574G12c H00M10541   5.797   0.389   3.636
   574G12c C01Y10542   5.622   0.506   3.623
   574G12c C02D10543   5.481   0.515   3.645
   574G12c H01910544   5.415   0.431   3.656
   574G12c C02C10545   5.426   0.644   3.636
   574G12c H01A10546   5.320   0.661   3.648
   574G12c C02B10547   5.508   0.758   3.617
   574G12c O00E10548   5.448   0.881   3.630
   574G12c H01B10549   5.491   0.950   3.678
   574G12c C02F10550   5.646   0.747   3.594
   574G12c O00F10551   5.722   0.860   3.562
   574G12c C02G10552   5.862   0.849   3.538
   574G12c H01710553   5.907   0.798   3.623
   574G12c H01610554   5.914   0.944   3.529
   574G12c H01510555   5.884   0.781   3.455
   574G12c C02E10556   5.702   0.619   3.602
   574G12c H01810557   5.808   0.604   3.608
   574G12c C01F10558   5.557   0.166   3.097
   574G12c C01G10559   5.618   0.040   3.065
   574G12c H00L10560   5.714   0.006   3.102
   574G12c C01H10561   5.548   6.468   2.978
   574G12c H00B10562   5.580   6.366   2.962
   574G12c C01I10563   5.421   6.503   2.920
   574G12c C01U10564   5.442   0.194   3.021
   574G12c C00S10565   4.926   0.331   3.179
   574G12c C00K10566   4.979   0.192   3.011
   574G12c C00N10567   5.343   0.281   3.075
   574G12c C00010568   5.390   0.116   2.918
   574G12c C01J10569   5.297   6.436   2.905
   574G12c C01K10570   5.286   6.292   2.893
   574G12c C01P10571   5.380   6.194   2.854
   574G12c C01Q10572   5.497   6.233   2.777
   574G12c H00G10573   5.491   6.309   2.700
   574G12c C01R10574   5.613   6.168   2.792
   574G12c H00F10575   5.631   6.101   2.875
   574G12c C01S10576   5.726   6.191   2.700
   574G12c H00E10577   5.702   6.282   2.644
   574G12c H00D10578   5.823   6.201   2.749
   574G12c O00510579   5.723   6.079   2.617
   574G12c H00C10580   5.746   6.117   2.534
   574G12c C01O10581   5.353   6.056   2.872
   574G12c H00H10582   5.421   5.981   2.833
   574G12c C01N10583   5.235   6.015   2.930
   574G12c O00610584   5.203   5.883   2.953
   574G12c C01T10585   5.313   5.786   2.972
   574G12c H00K10586   5.398   5.811   3.036
   574G12c H00J10587   5.360   5.773   2.874
   574G12c H00I10588   5.288   5.685   3.003
   574G12c C01M10589   5.140   6.111   2.968
   574G12c C02010590   4.951   0.049   2.963
   574G12c C02110591   4.819   6.501   2.977
   574G12c C01L10592   5.155   6.251   2.932
   574G12c O00710593   5.027   6.060   3.027
   574G12c C02210594   4.814   6.365   3.009
   574G12c C02310595   4.725   0.035   3.069
   574G12c C00G10596   4.610   0.092   3.320
   574G12c C00E10597   4.486   0.030   3.526
   574G12c O00A10598   4.463   0.060   3.657
   574G12c C02410599   4.579   0.022   3.734
   574G12c H00V10600   4.620   6.447   3.704
   574G12c H00U10601   4.562   0.009   3.841
   574G12c H00T10602   4.665   0.088   3.723
   584G12c C00D10603   4.333   0.540   8.713
   584G12c O00B10604   4.266   0.569   8.598
   584G12c C02510605   4.148   0.504   8.567
   584G12c C02610606   4.030   0.550   8.649
   584G12c H00Y10607   4.072   0.575   8.747
   584G12c H00X10608   3.956   0.473   8.671
   584G12c O00C10609   3.969   0.654   8.582
   584G12c H00W10610   3.907   0.704   8.633
   584G12c C02710611   4.163   0.403   8.472
   584G12c O00D10612   4.290   0.386   8.431
   584G12c H00Z10613   4.326   0.466   8.465
   584G12c C02810614   4.058   0.306   8.426
   584G12c C02910615   3.921   0.338   8.430
   584G12c H01010616   3.880   0.431   8.467
   584G12c C02T10617   3.824   0.242   8.398
   584G12c H01O10618   3.717   0.259   8.395
   584G12c C02S10619   3.861   0.115   8.351
   584G12c O00J10620   3.774   0.013   8.325
   584G12c H01P10621   3.821   6.474   8.269
   584G12c C02R10622   3.995   0.083   8.337
   584G12c O00I10623   4.038   6.486   8.291
   584G12c C02Q10624   4.144   6.421   8.360
   584G12c H01N10625   4.236   6.480   8.351
   584G12c H01R10626   4.167   6.322   8.321
   584G12c H01Q10627   4.124   6.412   8.466
   584G12c C02A10628   4.093   0.181   8.373
   584G12c H01110629   4.198   0.160   8.364
   584G12c C00C10630   4.310   0.428   8.791
   584G12c H01210631   4.241   0.355   8.750
   584G12c C00B10632   4.378   0.406   8.910
   584G12c C00A10633   4.372   0.287   8.997
   584G12c C00910634   4.260   0.200   9.017
   584G12c C00810635   4.131   0.180   8.957
   584G12c H01310636   4.103   0.222   8.862
   584G12c C00710637   4.027   0.128   9.030
   584G12c H01410638   3.934   0.115   8.976
   584G12c C00610639   4.047   0.097   9.172
   584G12c C00510640   4.176   0.113   9.224
   584G12c C00410641   4.201   0.105   9.360
   584G12c C00310642   4.329   0.144   9.412
   584G12c C00210643   4.340   0.144   9.552
   584G12c C00110644   4.446   0.189   9.645
   584G12c C00M10645   4.523   0.313   9.639
   584G12c C00L10646   4.571   0.356   9.518
   584G12c C00R10647   4.626   0.488   9.487
   584G12c C00Q10648   4.649   0.598   9.575
   584G12c C00V10649   4.683   0.712   9.493
   584G12c C00U10650   4.673   0.720   9.350
   584G12c C00T10651   4.641   0.612   9.270
   584G12c C01610652   4.598   0.611   9.140
   584G12c C01510653   4.612   0.731   9.067
   584G12c C01010654   4.676   0.835   9.134
   584G12c C01110655   4.708   0.951   9.065
   584G12c H00510656   4.758   1.038   9.105
   584G12c C01210657   4.683   0.959   8.924
   584G12c C01710658   4.723   1.075   8.852
   584G12c O00210659   4.853   1.119   8.869
   584G12c H00410660   4.896   1.100   8.951
   584G12c C01810661   4.641   1.122   8.758
   584G12c O00110662   4.516   1.074   8.727
   584G12c H00310663   4.483   1.126   8.655
   584G12c C01910664   4.687   1.241   8.679
   584G12c H00210665   4.765   1.301   8.727
   584G12c H00110666   4.739   1.201   8.592
   584G12c O00010667   4.588   1.333   8.634
   584G12c C01A10668   4.541   1.425   8.724
   584G12c C02K10669   4.426   1.482   8.678
   584G12c O00G10670   4.378   1.438   8.561
   584G12c C02M10671   4.250   1.492   8.517
   584G12c H01G10672   4.238   1.600   8.531
   584G12c H01F10673   4.166   1.440   8.561
   584G12c H01E10674   4.228   1.478   8.411
   584G12c C02J10675   4.363   1.578   8.767
   584G12c H01H10676   4.269   1.625   8.742
   584G12c C02I10677   4.414   1.609   8.895
   584G12c C02N10678   4.346   1.708   8.981
   584G12c H01M10679   4.283   1.787   8.942
   584G12c C02O10680   4.377   1.718   9.113
   584G12c H01L10681   4.434   1.639   9.160
   584G12c C02P10682   4.322   1.820   9.201
   584G12c H01K10683   4.410   1.861   9.251
   584G12c H01J10684   4.287   1.911   9.151
   584G12c O00H10685   4.220   1.783   9.293
   584G12c H01I10686   4.246   1.820   9.376
   584G12c C02H10687   4.527   1.536   8.936
   584G12c H01C10688   4.577   1.545   9.031
   584G12c C02L10689   4.585   1.443   8.856
   584G12c H01D10690   4.670   1.384   8.886
   584G12c C01310691   4.615   0.845   8.866
   584G12c H00010692   4.587   0.853   8.762
   584G12c C01410693   4.576   0.727   8.936
   584G12c C00F10694   4.493   0.627   8.882
   584G12c C00H10695   4.529   0.499   9.085
   584G12c C00I10696   4.527   0.382   9.162
   584G12c C00J10697   4.569   0.387   9.294
   584G12c C00Z10698   4.693   0.835   9.275
   584G12c C00Y10699   4.718   0.958   9.348
   584G12c H00610700   4.715   1.055   9.299
   584G12c C00X10701   4.738   0.956   9.490
   584G12c O00310702   4.757   1.068   9.566
   584G12c C01B10703   4.755   1.199   9.512
   584G12c H00910704   4.661   1.232   9.469
   584G12c H00810705   4.830   1.213   9.433
   584G12c H00710706   4.783   1.273   9.587
   584G12c C00W10707   4.720   0.836   9.558
   584G12c O00410708   4.738   0.835   9.693
   584G12c C01C10709   4.692   0.732   9.774
   584G12c H00A10710   4.689   0.746   9.881
   584G12c C00P10711   4.625   0.616   9.715
   584G12c C00O10712   4.535   0.533   9.789
   584G12c C01D10713   4.473   0.588   9.903
   584G12c H00S10714   4.488   0.690   9.932
   584G12c C01E10715   4.369   0.512   9.970
   584G12c O00810716   4.291   0.569  10.074
   584G12c C01V10717   4.299   0.705  10.112
   584G12c C01Z10718   4.377   0.732  10.234
   584G12c H00R10719   4.427   0.829  10.237
   584G12c H00Q10720   4.322   0.712  10.326
   584G12c O00910721   4.494   0.649  10.240
   584G12c H00P10722   4.456   0.563  10.230
   584G12c C01W10723   4.235   0.796  10.045
   584G12c H00O10724   4.178   0.756   9.962
   584G12c C01X10725   4.216   0.942  10.069
   584G12c H00N10726   4.109   0.964  10.072
   584G12c H00M10727   4.245   0.960  10.172
   584G12c C01Y10728   4.287   1.033   9.977
   584G12c C02D10729   4.368   0.981   9.872
   584G12c H01910730   4.379   0.875   9.852
   584G12c C02C10731   4.437   1.067   9.784
   584G12c H01A10732   4.491   1.020   9.703
   584G12c C02B10733   4.409   1.203   9.782
   584G12c O00E10734   4.458   1.286   9.683
   584G12c H01B10735   4.411   1.368   9.677
   584G12c C02F10736   4.314   1.254   9.870
   584G12c O00F10737   4.283   1.386   9.849
   584G12c C02G10738   4.159   1.448   9.894
   584G12c H01710739   4.170   1.453  10.002
   584G12c H01610740   4.072   1.390   9.865
   584G12c H01510741   4.142   1.548   9.854
   584G12c C02E10742   4.252   1.172   9.972
   584G12c H01810743   4.181   1.207  10.045
   584G12c C01F10744   4.329   0.384   9.925
   584G12c C01G10745   4.197   0.322   9.944
   584G12c H00L10746   4.122   0.364  10.009
   584G12c C01H10747   4.154   0.216   9.861
   584G12c H00B10748   4.050   0.187   9.859
   584G12c C01I10749   4.246   0.161   9.768
   584G12c C01U10750   4.414   0.316   9.833
   584G12c C00S10751   4.624   0.499   9.347
   584G12c C00K10752   4.528   0.296   9.394
   584G12c C00N10753   4.496   0.399   9.754
   584G12c C00010754   4.387   0.200   9.767
   584G12c C01J10755   4.223   0.123   9.634
   584G12c C01K10756   4.095   0.072   9.587
   584G12c C01P10757   3.987   0.011   9.662
   584G12c C01Q10758   3.997   6.487   9.795
   584G12c H00G10759   3.924   6.510   9.871
   584G12c C01R10760   4.090   6.399   9.824
   584G12c H00F10761   4.154   6.356   9.749
   584G12c C01S10762   4.114   6.349   9.959
   584G12c H00E10763   4.056   6.411  10.026
   584G12c H00D10764   4.096   6.243   9.975
   584G12c O00510765   4.254   6.351   9.980
   584G12c H00C10766   4.276   6.369  10.070
   584G12c C01O10767   3.865   6.507   9.597
   584G12c H00H10768   3.780   6.479   9.658
   584G12c C01N10769   3.851   0.010   9.461
   584G12c O00610770   3.735   6.495   9.392
   584G12c C01T10771   3.631   6.412   9.453
   584G12c H00K10772   3.581   6.484   9.517
   584G12c H00J10773   3.673   6.341   9.523
   584G12c H00I10774   3.565   6.363   9.381
   584G12c C01M10775   3.962   0.054   9.384
   584G12c C02010776   4.431   0.206   9.337
   584G12c C02110777   4.416   0.177   9.199
   584G12c C01L10778   4.086   0.076   9.446
   584G12c O00710779   3.942   0.061   9.250
   584G12c C02210780   4.290   0.142   9.147
   584G12c C02310781   4.464   0.274   9.106
   584G12c C00G10782   4.463   0.510   8.960
   584G12c C00E10783   4.427   0.633   8.754
   584G12c O00A10784   4.443   0.742   8.668
   584G12c C02410785   4.329   0.826   8.673
   584G12c H00V10786   4.235   0.787   8.633
   584G12c H00U10787   4.360   0.912   8.613
   584G12c H00T10788   4.287   0.870   8.764
   594G12c C00D10789   0.277   4.220   3.961
   594G12c O00B10790   0.296   4.331   3.880
   594G12c C02510791   0.254   4.450   3.932
   594G12c C02610792   0.126   4.502   3.862
   594G12c H00Y10793   0.054   4.447   3.922
   594G12c H00X10794   0.131   4.463   3.761
   594G12c O00C10795   0.104   4.640   3.857
   594G12c H00W10796   0.190   4.677   3.864
   594G12c C02710797   0.315   4.501   4.044
   594G12c O00D10798   0.429   4.443   4.096
   594G12c H00Z10799   0.450   4.395   4.017
   594G12c C02810800   0.269   4.604   4.129
   594G12c C02910801   0.363   4.689   4.195
   594G12c H01010802   0.469   4.677   4.182
   594G12c C02T10803   0.318   4.792   4.282
   594G12c H01O10804   0.390   4.842   4.345
   594G12c C02S10805   0.183   4.819   4.296
   594G12c O00J10806   0.148   4.922   4.373
   594G12c H01P10807   0.083   4.897   4.438
   594G12c C02R10808   0.088   4.748   4.225
   594G12c O00I10809   6.477   4.770   4.260
   594G12c C02Q10810   6.376   4.684   4.219
   594G12c H01N10811   6.288   4.712   4.277
   594G12c H01R10812   6.401   4.581   4.246
   594G12c H01Q10813   6.341   4.684   4.116
   594G12c C02A10814   0.134   4.643   4.141
   594G12c H01110815   0.056   4.586   4.092
   594G12c C00C10816   0.192   4.217   4.076
   594G12c H01210817   0.126   4.299   4.100
   594G12c C00B10818   0.189   4.114   4.171
   594G12c C00A10819   0.118   4.115   4.296
   594G12c C00910820   0.073   4.220   4.383
   594G12c C00810821   0.080   4.364   4.372
   594G12c H01310822   0.092   4.405   4.273
   594G12c C00710823   0.093   4.436   4.490
   594G12c H01410824   0.124   4.540   4.494
   594G12c C00610825   0.091   4.371   4.619
   594G12c C00510826   0.078   4.233   4.621
   594G12c C00410827   0.090   4.156   4.739
   594G12c C00310828   0.105   4.015   4.727
   594G12c C00210829   0.142   3.951   4.847
   594G12c C00110830   0.186   3.817   4.881
   594G12c C00M10831   0.272   3.732   4.799
   594G12c C00L10832   0.256   3.728   4.657
   594G12c C00R10833   0.350   3.665   4.567
   594G12c C00Q10834   0.481   3.608   4.588
   594G12c C00V10835   0.552   3.584   4.467
   594G12c C00U10836   0.511   3.638   4.344
   594G12c C00T10837   0.395   3.707   4.327
   594G12c C01610838   0.370   3.797   4.226
   594G12c C01510839   0.459   3.799   4.122
   594G12c C01010840   0.558   3.703   4.116
   594G12c C01110841   0.637   3.690   4.001
   594G12c H00510842   0.713   3.616   3.983
   594G12c C01210843   0.611   3.771   3.890
   594G12c C01710844   0.691   3.749   3.774
   594G12c O00210845   0.681   3.621   3.721
   594G12c H00410846   0.626   3.566   3.775
   594G12c C01810847   0.763   3.842   3.712
   594G12c O00110848   0.788   3.968   3.756
   594G12c H00310849   0.858   4.003   3.703
   594G12c C01910850   0.842   3.801   3.589
   594G12c H00210851   0.944   3.783   3.624
   594G12c H00110852   0.822   3.702   3.549
   594G12c O00010853   0.842   3.897   3.484
   594G12c C01A10854   0.905   3.869   3.371
   594G12c C02K10855   0.929   3.979   3.287
   594G12c O00G10856   0.894   4.103   3.330
   594G12c C02M10857   0.895   4.216   3.245
   594G12c H01G10858   0.852   4.202   3.145
   594G12c H01F10859   0.990   4.270   3.249
   594G12c H01E10860   0.823   4.286   3.286
   594G12c C02J10861   0.989   3.956   3.160
   594G12c H01H10862   1.013   4.035   3.091
   594G12c C02I10863   1.028   3.829   3.117
   594G12c C02N10864   1.091   3.822   2.985
   594G12c H01M10865   1.093   3.900   2.911
   594G12c C02O10866   1.152   3.705   2.939
   594G12c H01L10867   1.155   3.623   3.009
   594G12c C02P10868   1.206   3.677   2.800
   594G12c H01K10869   1.163   3.586   2.759
   594G12c H01J10870   1.165   3.755   2.734
   594G12c O00H10871   1.345   3.677   2.781
   594G12c H01I10872   1.383   3.752   2.825
   594G12c C02H10873   1.005   3.724   3.207
   594G12c H01C10874   1.033   3.620   3.195
   594G12c C02L10875   0.949   3.742   3.334
   594G12c H01D10876   0.931   3.657   3.399
   594G12c C01310877   0.519   3.873   3.903
   594G12c H00010878   0.510   3.927   3.810
   594G12c C01410879   0.445   3.896   4.021
   594G12c C00F10880   0.351   3.997   4.036
   594G12c C00H10881   0.269   3.895   4.238
   594G12c C00I10882   0.182   3.889   4.345
   594G12c C00J10883   0.208   3.790   4.444
   594G12c C00Z10884   0.587   3.630   4.229
   594G12c C00Y10885   0.712   3.561   4.237
   594G12c H00610886   0.783   3.550   4.156
   594G12c C00X10887   0.757   3.510   4.360
   594G12c O00310888   0.883   3.448   4.377
   594G12c C01B10889   0.987   3.468   4.280
   594G12c H00910890   1.080   3.427   4.320
   594G12c H00810891   1.016   3.572   4.269
   594G12c H00710892   0.966   3.434   4.179
   594G12c C00W10893   0.680   3.523   4.470
   594G12c O00410894   0.739   3.472   4.588
   594G12c C01C10895   0.669   3.501   4.703
   594G12c H00A10896   0.697   3.439   4.787
   594G12c C00P10897   0.559   3.586   4.707
   594G12c C00O10898   0.525   3.652   4.836
   594G12c C01D10899   0.644   3.674   4.916
   594G12c H00S10900   0.746   3.654   4.887
   594G12c C01E10901   0.636   3.766   5.025
   594G12c O00810902   0.757   3.792   5.084
   594G12c C01V10903   0.819   3.910   5.048
   594G12c C01Z10904   0.863   4.003   5.161
   594G12c H00R10905   0.842   4.107   5.137
   594G12c H00Q10906   0.819   3.966   5.254
   594G12c O00910907   1.001   3.983   5.185
   594G12c H00P10908   1.011   3.907   5.129
   594G12c C01W10909   0.835   3.943   4.918
   594G12c H00O10910   0.784   3.882   4.844
   594G12c C01X10911   0.891   4.077   4.861
   594G12c H00N10912   0.823   4.107   4.782
   594G12c H00M10913   0.891   4.156   4.936
   594G12c C01Y10914   1.027   4.065   4.794
   594G12c C02D10915   1.132   4.148   4.839
   594G12c H01910916   1.116   4.221   4.917
   594G12c C02C10917   1.260   4.147   4.779
   594G12c H01A10918   1.333   4.218   4.814
   594G12c C02B10919   1.275   4.051   4.672
   594G12c O00E10920   1.389   4.059   4.604
   594G12c H01B10921   1.396   3.968   4.577
   594G12c C02F10922   1.175   3.964   4.618
   594G12c O00F10923   1.204   3.899   4.504
   594G12c C02G10924   1.095   3.824   4.454
   594G12c H01710925   1.015   3.897   4.442
   594G12c H01610926   1.065   3.747   4.524
   594G12c H01510927   1.110   3.781   4.355
   594G12c C02E10928   1.048   3.972   4.684
   594G12c H01810929   0.973   3.896   4.668
   594G12c C01F10930   0.509   3.824   5.064
   594G12c C01G10931   0.486   3.933   5.147
   594G12c H00L10932   0.561   3.971   5.215
   594G12c C01H10933   0.369   4.005   5.138
   594G12c H00B10934   0.353   4.103   5.180
   594G12c C01I10935   0.264   3.963   5.054
   594G12c C01U10936   0.391   3.780   4.996
   594G12c C00S10937   0.316   3.709   4.441
   594G12c C00K10938   0.179   3.822   4.582
   594G12c C00N10939   0.400   3.709   4.869
   594G12c C00010940   0.261   3.835   5.004
   594G12c C01J10941   0.173   4.033   4.968
   594G12c C01K10942   0.136   4.173   4.981
   594G12c C01P10943   0.143   4.259   5.096
   594G12c C01Q10944   0.140   4.200   5.230
   594G12c H00G10945   0.093   4.104   5.247
   594G12c C01R10946   0.216   4.254   5.327
   594G12c H00F10947   0.271   4.343   5.302
   594G12c C01S10948   0.223   4.201   5.468
   594G12c H00E10949   0.261   4.287   5.524
   594G12c H00D10950   0.130   4.171   5.515
   594G12c O00510951   0.326   4.099   5.485
   594G12c H00C10952   0.298   4.015   5.451
   594G12c C01O10953   0.145   4.402   5.087
   594G12c H00H10954   0.143   4.469   5.173
   594G12c C01N10955   0.143   4.462   4.961
   594G12c O00610956   0.158   4.604   4.949
   594G12c C01T10957   0.178   4.685   5.069
   594G12c H00K10958   0.192   4.789   5.042
   594G12c H00J10959   0.269   4.657   5.122
   594G12c H00I10960   0.097   4.684   5.142
   594G12c C01M10961   0.126   4.376   4.852
   594G12c C02010962   0.104   3.945   4.603
   594G12c C02110963   0.050   4.017   4.497
   594G12c C01L10964   0.117   4.231   4.858
   594G12c O00710965   0.109   4.443   4.731
   594G12c C02210966   0.051   4.156   4.508
   594G12c C02310967   0.098   3.995   4.362
   594G12c C00G10968   0.270   4.001   4.148
   594G12c C00E10969   0.338   4.103   3.935
   594G12c O00A10970   0.394   4.104   3.808
   594G12c C02410971   0.311   4.064   3.703
   594G12c H00V10972   0.282   3.959   3.712
   594G12c H00U10973   0.371   4.043   3.615
   594G12c H00T10974   0.222   4.125   3.687
   604G12c C00D10975   5.875   3.563   6.812
   604G12c O00B10976   5.815   3.654   6.897
   604G12c C02510977   5.725   3.738   6.837
   604G12c C02610978   5.580   3.689   6.829
   604G12c H00Y10979   5.587   3.583   6.803
   604G12c H00X10980   5.520   3.731   6.748
   604G12c O00C10981   5.534   3.697   6.958
   604G12c H00W10982   5.611   3.693   7.014
   604G12c C02710983   5.762   3.859   6.806
   604G12c O00D10984   5.889   3.900   6.824
   604G12c H00Z10985   5.896   3.994   6.829
   604G12c C02810986   5.665   3.961   6.757
   604G12c C02910987   5.552   4.007   6.822
   604G12c H01010988   5.521   3.971   6.919
   604G12c C02T10989   5.466   4.098   6.761
   604G12c H01O10990   5.386   4.149   6.814
   604G12c C02S10991   5.493   4.138   6.630
   604G12c O00J10992   5.417   4.232   6.572
   604G12c H01P10993   5.430   4.220   6.479
   604G12c C02R10994   5.608   4.100   6.564
   604G12c O00I10995   5.619   4.156   6.438
   604G12c C02Q10996   5.738   4.120   6.371
   604G12c H01N10997   5.823   4.173   6.415
   604G12c H01R10998   5.731   4.149   6.266
   604G12c H01Q10999   5.778   4.019   6.373
   604G12c C02A11000   5.693   4.014   6.632
   604G12c H01111001   5.772   3.961   6.580
   604G12c C00C11002   5.829   3.525   6.687
   604G12c H01211003   5.746   3.581   6.648
   604G12c C00B11004   5.888   3.422   6.615
   604G12c C00A11005   5.852   3.367   6.485
   604G12c C00911006   5.725   3.365   6.425
   604G12c C00811007   5.598   3.426   6.436
   604G12c H01311008   5.576   3.511   6.499
   604G12c C00711009   5.484   3.375   6.370
   604G12c H01411010   5.390   3.425   6.389
   604G12c C00611011   5.493   3.247   6.308
   604G12c C00511012   5.620   3.201   6.286
   604G12c C00411013   5.645   3.069   6.237
   604G12c C00311014   5.777   3.014   6.238
   604G12c C00211015   5.792   2.879   6.188
   604G12c C00111016   5.901   2.783   6.179
   604G12c C00M11017   6.008   2.767   6.274
   604G12c C00L11018   6.067   2.875   6.341
   604G12c C00R11019   6.157   2.878   6.453
   604G12c C00Q11020   6.200   2.771   6.539
   604G12c C00V11021   6.265   2.809   6.654
   604G12c C00U11022   6.266   2.944   6.700
   604G12c C00T11023   6.205   3.044   6.625
   604G12c C01611024   6.162   3.164   6.674
   604G12c C01511025   6.205   3.203   6.800
   604G12c C01011026   6.289   3.114   6.870
   604G12c C01111027   6.356   3.163   6.985
   604G12c H00511028   6.433   3.110   7.038
   604G12c C01211029   6.332   3.290   7.032
   604G12c C01711030   6.407   3.340   7.143
   604G12c O00211031   6.352   3.366   7.266
   604G12c H00411032   6.262   3.336   7.264
   604G12c C01811033   0.019   3.366   7.123
   604G12c O00111034   0.070   3.351   6.998
   604G12c H00311035   6.508   3.373   6.958
   604G12c C01911036   0.123   3.407   7.223
   604G12c H00211037   0.142   3.512   7.203
   604G12c H00111038   0.077   3.410   7.322
   604G12c O00011039   0.237   3.317   7.227
   604G12c C01A11040   0.212   3.186   7.237
   604G12c C02K11041   0.164   3.133   7.359
   604G12c O00G11042   0.173   3.217   7.473
   604G12c C02M11043   0.086   3.186   7.584
   604G12c H01G11044   6.503   3.185   7.549
   604G12c H01F11045   0.100   3.256   7.665
   604G12c H01E11046   0.112   3.090   7.628
   604G12c C02J11047   0.116   3.002   7.365
   604G12c H01H11048   0.073   2.961   7.456
   604G12c C02I11049   0.120   2.920   7.251
   604G12c C02N11050   0.078   2.785   7.271
   604G12c H01M11051   6.521   2.759   7.341
   604G12c C02O11052   0.141   2.683   7.213
   604G12c H01L11053   0.224   2.697   7.145
   604G12c C02P11054   0.105   2.537   7.226
   604G12c H01K11055   0.187   2.479   7.268
   604G12c H01J11056   0.010   2.522   7.277
   604G12c O00H11057   0.090   2.493   7.093
   604G12c H01I11058   0.011   2.535   7.063
   604G12c C02H11059   0.179   2.972   7.134
   604G12c H01C11060   0.201   2.908   7.050
   604G12c C02L11061   0.228   3.102   7.125
   604G12c H01D11062   0.273   3.145   7.037
   604G12c C01311063   6.226   3.368   6.978
   604G12c H00011064   6.205   3.460   7.030
   604G12c C01411065   6.159   3.318   6.859
   604G12c C00F11066   6.050   3.386   6.798
   604G12c C00H11067   6.077   3.244   6.603
   604G12c C00I11068   6.043   3.215   6.472
   604G12c C00J11069   6.090   3.089   6.423
   604G12c C00Z11070   6.308   2.982   6.825
   604G12c C00Y11071   6.375   2.887   6.911
   604G12c H00611072   6.407   2.902   7.012
   604G12c C00X11073   6.372   2.756   6.864
   604G12c O00311074   6.423   2.664   6.953
   604G12c C01B11075   6.313   2.623   7.031
   604G12c H00911076   6.347   2.565   7.117
   604G12c H00811077   6.234   2.569   6.978
   604G12c H00711078   6.265   2.710   7.074
   604G12c C00W11079   6.316   2.715   6.744
   604G12c O00411080   6.315   2.583   6.717
   604G12c C01C11081   6.237   2.540   6.610
   604G12c H00A11082   6.249   2.433   6.595
   604G12c C00P11083   6.171   2.631   6.525
   604G12c C00O11084   6.066   2.565   6.439
   604G12c C01D11085   6.010   2.440   6.479
   604G12c H00S11086   6.056   2.381   6.557
   604G12c C01E11087   5.885   2.396   6.434
   604G12c O00811088   5.815   2.290   6.490
   604G12c C01V11089   5.818   2.285   6.627
   604G12c C01Z11090   5.780   2.409   6.702
   604G12c H00R11091   5.713   2.472   6.644
   604G12c H00Q11092   5.729   2.394   6.797
   604G12c O00911093   5.895   2.482   6.733
   604G12c H00P11094   5.875   2.574   6.720
   604G12c C01W11095   5.851   2.169   6.689
   604G12c H00O11096   5.865   2.073   6.641
   604G12c C01X11097   5.876   2.157   6.840
   604G12c H00N11098   5.839   2.248   6.887
   604G12c H00M11099   5.810   2.079   6.879
   604G12c C01Y11100   6.025   2.140   6.889
   604G12c C02D11101   6.118   2.238   6.842
   604G12c H01911102   6.080   2.325   6.791
   604G12c C02C11103   6.254   2.214   6.875
   604G12c H01A11104   6.317   2.292   6.836
   604G12c C02B11105   6.290   2.112   6.968
   604G12c O00E11106   6.420   2.082   6.999
   604G12c H01B11107   6.427   2.029   7.076
   604G12c C02F11108   6.188   2.041   7.039
   604G12c O00F11109   6.229   1.964   7.145
   604G12c C02G11110   6.134   1.881   7.213
   604G12c H01711111   6.178   1.848   7.307
   604G12c H01611112   6.098   1.791   7.162
   604G12c H01511113   6.041   1.932   7.241
   604G12c C02E11114   6.056   2.049   6.989
   604G12c H01811115   5.979   1.985   7.031
   604G12c C01F11116   5.820   2.472   6.340
   604G12c C01G11117   5.684   2.471   6.326
   604G12c H00L11118   5.620   2.397   6.373
   604G12c C01H11119   5.625   2.579   6.250
   604G12c H00B11120   5.520   2.603   6.257
   604G12c C01I11121   5.703   2.672   6.180
   604G12c C01U11122   5.893   2.571   6.268
   604G12c C00S11123   6.174   3.007   6.493
   604G12c C00K11124   6.015   3.006   6.336
   604G12c C00N11125   6.002   2.635   6.330
   604G12c C00011126   5.840   2.654   6.166
   604G12c C01J11127   5.673   2.808   6.152
   604G12c C01K11128   5.538   2.862   6.143
   604G12c C01P11129   5.423   2.800   6.094
   604G12c C01Q11130   5.432   2.686   5.999
   604G12c H00G11131   5.493   2.687   5.910
   604G12c C01R11132   5.363   2.571   6.027
   604G12c H00F11133   5.310   2.566   6.121
   604G12c C01S11134   5.369   2.439   5.960
   604G12c H00E11135   5.265   2.415   5.939
   604G12c H00D11136   5.424   2.448   5.866
   604G12c O00511137   5.421   2.344   6.046
   604G12c H00C11138   5.513   2.362   6.061
   604G12c C01O11139   5.298   2.857   6.107
   604G12c H00H11140   5.215   2.799   6.070
   604G12c C01N11141   5.283   2.990   6.161
   604G12c O00611142   5.167   3.068   6.152
   604G12c C01T11143   5.052   3.012   6.095
   604G12c H00K11144   5.024   2.910   6.121
   604G12c H00J11145   5.063   3.010   5.987
   604G12c H00I11146   4.962   3.067   6.123
   604G12c C01M11147   5.399   3.059   6.204
   604G12c C02011148   5.893   3.073   6.291
   604G12c C02111149   5.863   3.210   6.327
   604G12c C01L11150   5.531   3.000   6.192
   604G12c O00711151   5.386   3.189   6.246
   604G12c C02211152   5.738   3.267   6.324
   604G12c C02311153   5.938   3.280   6.421
   604G12c C00G11154   6.005   3.352   6.666
   604G12c C00E11155   5.976   3.487   6.873
   604G12c O00A11156   5.983   3.496   7.011
   604G12c C02411157   5.901   3.398   7.078
   604G12c H00V11158   5.924   3.294   7.054
   604G12c H00U11159   5.797   3.416   7.051
   604G12c H00T11160   5.905   3.425   7.183
   614G12c C00D11161   3.093   2.328   2.724
   614G12c O00B11162   3.183   2.240   2.664
   614G12c C02511163   3.187   2.107   2.701
   614G12c C02611164   3.149   2.012   2.580
   614G12c H00Y11165   3.100   1.923   2.618
   614G12c H00X11166   3.242   1.990   2.529
   614G12c O00C11167   3.064   2.078   2.495
   614G12c H00W11168   3.094   2.167   2.507
   614G12c C02711169   3.211   2.074   2.830
   614G12c O00D11170   3.259   2.168   2.917
   614G12c H00Z11171   3.217   2.245   2.882
   614G12c C02811172   3.185   1.939   2.877
   614G12c C02911173   3.287   1.850   2.913
   614G12c H01011174   3.389   1.884   2.903
   614G12c C02T11175   3.252   1.718   2.953
   614G12c H01O11176   3.335   1.653   2.978
   614G12c C02S11177   3.122   1.678   2.965
   614G12c O00J11178   3.096   1.546   3.002
   614G12c H01P11179   3.161   1.499   3.052
   614G12c C02R11180   3.018   1.764   2.932
   614G12c O00I11181   2.887   1.728   2.944
   614G12c C02Q11182   2.807   1.816   3.027
   614G12c H01N11183   2.833   1.797   3.131
   614G12c H01R11184   2.706   1.776   3.012
   614G12c H01Q11185   2.805   1.921   2.996
   614G12c C02A11186   3.051   1.892   2.887
   614G12c H01111187   2.967   1.957   2.871
   614G12c C00C11188   2.973   2.285   2.767
   614G12c H01211189   2.952   2.182   2.744
   614G12c C00B11190   2.898   2.359   2.857
   614G12c C00A11191   2.786   2.316   2.938
   614G12c C00911192   2.681   2.221   2.900
   614G12c C00811193   2.647   2.144   2.788
   614G12c H01311194   2.721   2.127   2.712
   614G12c C00711195   2.508   2.110   2.759
   614G12c H01411196   2.477   2.068   2.665
   614G12c C00611197   2.406   2.161   2.846
   614G12c C00511198   2.448   2.240   2.955
   614G12c C00411199   2.355   2.314   3.032
   614G12c C00311200   2.396   2.411   3.130
   614G12c C00211201   2.289   2.495   3.183
   614G12c C00111202   2.288   2.612   3.274
   614G12c C00M11203   2.380   2.726   3.253
   614G12c C00L11204   2.515   2.716   3.217
   614G12c C00R11205   2.599   2.819   3.162
   614G12c C00Q11206   2.571   2.958   3.127
   614G12c C00V11207   2.676   3.017   3.053
   614G12c C00U11208   2.784   2.944   2.998
   614G12c C00T11209   2.805   2.811   3.029
   614G12c C01611210   2.877   2.719   2.954
   614G12c C01511211   2.959   2.772   2.855
   614G12c C01011212   2.959   2.912   2.837
   614G12c C01111213   3.060   2.958   2.750
   614G12c H00511214   3.064   3.061   2.719
   614G12c C01211215   3.148   2.879   2.681
   614G12c C01711216   3.253   2.935   2.597
   614G12c O00211217   3.228   3.041   2.513
   614G12c H00411218   3.315   3.065   2.484
   614G12c C01811219   3.374   2.883   2.592
   614G12c O00111220   3.409   2.775   2.673
   614G12c H00311221   3.366   2.791   2.756
   614G12c C01911222   3.492   2.912   2.497
   614G12c H00211223   3.585   2.866   2.532
   614G12c H00111224   3.477   2.868   2.398
   614G12c O00011225   3.495   3.056   2.474
   614G12c C01A11226   3.599   3.111   2.403
   614G12c C02K11227   3.578   3.231   2.336
   614G12c O00G11228   3.452   3.276   2.344
   614G12c C02M11229   3.408   3.368   2.239
   614G12c H01G11230   3.467   3.459   2.230
   614G12c H01F11231   3.302   3.389   2.253
   614G12c H01E11232   3.408   3.311   2.147
   614G12c C02J11233   3.684   3.293   2.267
   614G12c H01H11234   3.663   3.380   2.205
   614G12c C02I11235   3.815   3.232   2.268
   614G12c C02N11236   3.923   3.288   2.186
   614G12c H01M11237   3.999   3.215   2.164
   614G12c C02O11238   3.918   3.411   2.136
   614G12c H01L11239   3.838   3.473   2.173
   614G12c C02P11240   4.019   3.477   2.044
   614G12c H01K11241   4.091   3.410   1.998
   614G12c H01J11242   3.969   3.530   1.963
   614G12c O00H11243   4.092   3.559   2.138
   614G12c H01I11244   4.165   3.598   2.092
   614G12c C02H11245   3.837   3.114   2.350
   614G12c H01C11246   3.930   3.058   2.345
   614G12c C02L11247   3.728   3.056   2.409
   614G12c H01D11248   3.736   2.954   2.444
   614G12c C01311249   3.134   2.742   2.690
   614G12c H00011250   3.194   2.687   2.620
   614G12c C01411251   3.046   2.686   2.786
   614G12c C00F11252   3.037   2.548   2.806
   614G12c C00H11253   2.862   2.582   2.968
   614G12c C00I11254   2.773   2.527   3.058
   614G12c C00J11255   2.700   2.615   3.140
   614G12c C00Z11256   2.868   2.995   2.900
   614G12c C00Y11257   2.856   3.130   2.870
   614G12c H00611258   2.930   3.181   2.809
   614G12c C00X11259   2.763   3.209   2.932
   614G12c O00311260   2.756   3.347   2.908
   614G12c C01B11261   2.836   3.398   2.805
   614G12c H00911262   2.810   3.365   2.705
   614G12c H00811263   2.944   3.391   2.818
   614G12c H00711264   2.817   3.505   2.805
   614G12c C00W11265   2.670   3.156   3.028
   614G12c O00411266   2.577   3.238   3.073
   614G12c C01C11267   2.463   3.179   3.125
   614G12c H00A11268   2.393   3.249   3.166
   614G12c C00P11269   2.453   3.035   3.144
   614G12c C00O11270   2.327   2.977   3.168
   614G12c C01D11271   2.212   3.049   3.126
   614G12c H00S11272   2.220   3.152   3.093
   614G12c C01E11273   2.089   2.992   3.100
   614G12c O00811274   1.997   3.066   3.039
   614G12c C01V11275   1.925   3.154   3.119
   614G12c C01Z11276   1.801   3.088   3.178
   614G12c H00R11277   1.742   3.162   3.234
   614G12c H00Q11278   1.751   3.048   3.090
   614G12c O00911279   1.837   2.987   3.269
   614G12c H00P11280   1.884   2.914   3.229
   614G12c C01W11281   1.947   3.287   3.118
   614G12c H00O11282   2.031   3.333   3.068
   614G12c C01X11283   1.871   3.400   3.193
   614G12c H00N11284   1.881   3.494   3.139
   614G12c H00M11285   1.768   3.370   3.177
   614G12c C01Y11286   1.924   3.412   3.335
   614G12c C02D11287   2.013   3.511   3.371
   614G12c H01911288   2.061   3.576   3.299
   614G12c C02C11289   2.027   3.542   3.507
   614G12c H01A11290   2.086   3.629   3.531
   614G12c C02B11291   1.976   3.453   3.606
   614G12c O00E11292   2.023   3.461   3.732
   614G12c H01B11293   2.057   3.374   3.750
   614G12c C02F11294   1.888   3.351   3.571
   614G12c O00F11295   1.840   3.278   3.675
   614G12c C02G11296   1.779   3.151   3.641
   614G12c H01711297   1.853   3.073   3.623
   614G12c H01611298   1.715   3.154   3.552
   614G12c H01511299   1.702   3.120   3.712
   614G12c C02E11300   1.861   3.331   3.436
   614G12c H01811301   1.790   3.256   3.403
   614G12c C01F11302   2.067   2.858   3.133
   614G12c C01G11303   1.960   2.771   3.077
   614G12c H00L11304   1.898   2.820   3.003
   614G12c C01H11305   1.973   2.631   3.098
   614G12c H00B11306   1.906   2.566   3.043
   614G12c C01I11307   2.074   2.579   3.183
   614G12c C01U11308   2.163   2.790   3.214
   614G12c C00S11309   2.718   2.754   3.119
   614G12c C00K11310   2.568   2.586   3.184
   614G12c C00N11311   2.297   2.840   3.214
   614G12c C00011312   2.156   2.660   3.261
   614G12c C01J11313   2.157   2.468   3.153
   614G12c C01K11314   2.109   2.357   3.071
   614G12c C01P11315   1.979   2.303   3.054
   614G12c C01Q11316   1.878   2.340   3.150
   614G12c H00G11317   1.784   2.378   3.113
   614G12c C01R11318   1.898   2.323   3.285
   614G12c H00F11319   1.991   2.282   3.320
   614G12c C01S11320   1.822   2.363   3.409
   614G12c H00E11321   1.853   2.314   3.501
   614G12c H00D11322   1.843   2.469   3.418
   614G12c O00511323   1.688   2.355   3.383
   614G12c H00C11324   1.656   2.270   3.407
   614G12c C01O11325   1.950   2.217   2.947
   614G12c H00H11326   1.848   2.184   2.948
   614G12c C01N11327   2.049   2.174   2.864
   614G12c O00611328   2.030   2.087   2.756
   614G12c C01T11329   1.906   2.060   2.702
   614G12c H00K11330   1.921   2.003   2.609
   614G12c H00J11331   1.852   2.151   2.678
   614G12c H00I11332   1.848   2.005   2.776
   614G12c C01M11333   2.183   2.205   2.895
   614G12c C02011334   2.529   2.450   3.145
   614G12c C02111335   2.619   2.351   3.092
   614G12c C01L11336   2.215   2.291   3.003
   614G12c O00711337   2.275   2.158   2.806
   614G12c C02211338   2.583   2.251   2.998
   614G12c C02311339   2.747   2.390   3.050
   614G12c C00G11340   2.932   2.496   2.881
   614G12c C00E11341   3.132   2.459   2.746
   614G12c O00A11342   3.263   2.496   2.720
   614G12c C02411343   3.359   2.458   2.826
   614G12c H00V11344   3.384   2.353   2.814
   614G12c H00U11345   3.323   2.465   2.929
   614G12c H00T11346   3.448   2.520   2.817
   624G12c C00D11347   6.113   0.277   8.981
   624G12c O00B11348   6.076   0.153   9.037
   624G12c C02511349   6.183   0.085   9.101
   624G12c C02611350   6.209   6.470   9.019
   624G12c H00Y11351   6.112   6.420   9.027
   624G12c H00X11352   6.281   6.407   9.071
   624G12c O00C11353   6.241   6.500   8.886
   624G12c H00W11354   6.163   0.012   8.843
   624G12c C02711355   6.248   0.138   9.205
   624G12c O00D11356   6.192   0.233   9.273
   624G12c H00Z11357   6.119   0.241   9.214
   624G12c C02811358   6.373   0.090   9.247
   624G12c C02911359   6.419   0.112   9.379
   624G12c H01011360   6.363   0.169   9.451
   624G12c C02T11361   0.029   0.077   9.426
   624G12c H01O11362   0.070   0.102   9.523
   624G12c C02S11363   0.115   0.016   9.332
   624G12c O00J11364   0.244   6.513   9.361
   624G12c H01P11365   0.290   6.466   9.293
   624G12c C02R11366   0.081   6.512   9.196
   624G12c O00I11367   0.159   6.430   9.116
   624G12c C02Q11368   0.103   6.363   9.004
   624G12c H01N11369   0.019   6.302   9.036
   624G12c H01R11370   0.182   6.303   8.959
   624G12c H01Q11371   0.087   6.433   8.922
   624G12c C02A11372   6.473   0.035   9.155
   624G12c H01111373   6.449   0.020   9.051
   624G12c C00C11374   6.244   0.343   8.993
   624G12c H01211375   6.329   0.289   9.032
   624G12c C00B11376   6.276   0.457   8.921
   624G12c C00A11377   6.403   0.529   8.909
   624G12c C00911378   6.497   0.568   9.014
   624G12c C00811379   6.500   0.547   9.159
   624G12c H01311380   6.425   0.476   9.190
   624G12c C00711381   0.066   0.632   9.235
   624G12c H01411382   0.079   0.620   9.341
   624G12c C00611383   0.140   0.741   9.177
   624G12c C00511384   0.124   0.755   9.040
   624G12c C00411385   0.166   0.871   8.974
   624G12c C00311386   0.121   0.904   8.843
   624G12c C00211387   0.145   1.036   8.796
   624G12c C00111388   0.108   1.105   8.676
   624G12c C00M11389   6.497   1.113   8.628
   624G12c C00L11390   6.416   1.001   8.626
   624G12c C00R11391   6.282   1.004   8.595
   624G12c C00Q11392   6.180   1.105   8.571
   624G12c C00V11393   6.047   1.053   8.577
   624G12c C00U11394   6.013   0.925   8.623
   624G12c C00T11395   6.110   0.834   8.649
   624G12c C01611396   6.090   0.710   8.710
   624G12c C01511397   5.961   0.675   8.740
   624G12c C01011398   5.854   0.765   8.708
   624G12c C01111399   5.722   0.724   8.744
   624G12c H00511400   5.637   0.779   8.704
   624G12c C01211401   5.697   0.620   8.831
   624G12c C01711402   5.562   0.605   8.886
   624G12c O00211403   5.491   0.720   8.897
   624G12c H00411404   5.556   0.788   8.907
   624G12c C01811405   5.506   0.488   8.930
   624G12c O00111406   5.565   0.366   8.914
   624G12c H00311407   5.484   0.322   8.894
   624G12c C01911408   5.364   0.479   8.982
   624G12c H00211409   5.361   0.492   9.091
   624G12c H00111410   5.296   0.559   8.950
   624G12c O00011411   5.299   0.351   8.952
   624G12c C01A11412   5.247   0.332   8.830
   624G12c C02K11413   5.172   0.219   8.812
   624G12c O00G11414   5.143   0.136   8.923
   624G12c C02M11415   5.072   0.013   8.895
   624G12c H01G11416   5.084   6.464   8.977
   624G12c H01F11417   5.100   6.481   8.804
   624G12c H01E11418   4.964   0.024   8.884
   624G12c C02J11419   5.106   0.197   8.688
   624G12c H01H11420   5.031   0.120   8.676
   624G12c C02I11421   5.125   0.280   8.575
   624G12c C02N11422   5.062   0.251   8.453
   624G12c H01M11423   5.014   0.329   8.396
   624G12c C02O11424   5.036   0.125   8.412
   624G12c H01L11425   5.079   0.042   8.467
   624G12c C02P11426   4.960   0.091   8.284
   624G12c H01K11427   4.945   0.176   8.217
   624G12c H01J11428   5.023   0.016   8.236
   624G12c O00H11429   4.844   0.022   8.326
   624G12c H01I11430   4.772   0.083   8.326
   624G12c C02H11431   5.208   0.385   8.593
   624G12c H01C11432   5.232   0.452   8.512
   624G12c C02L11433   5.269   0.416   8.715
   624G12c H01D11434   5.323   0.510   8.717
   624G12c C01311435   5.805   0.531   8.868
   624G12c H00011436   5.780   0.464   8.949
   624G12c C01411437   5.934   0.562   8.816
   624G12c C00F11438   6.038   0.478   8.858
   624G12c C00H11439   6.196   0.634   8.758
   624G12c C00I11440   6.328   0.672   8.731
   624G12c C00J11441   6.345   0.790   8.652
   624G12c C00Z11442   5.879   0.892   8.655
   624G12c C00Y11443   5.774   0.980   8.620
   624G12c H00611444   5.670   0.960   8.642
   624G12c C00X11445   5.801   1.102   8.556
   624G12c O00311446   5.702   1.192   8.520
   624G12c C01B11447   5.566   1.156   8.535
   624G12c H00911448   5.534   1.079   8.465
   624G12c H00811449   5.506   1.239   8.495
   624G12c H00711450   5.534   1.133   8.636
   624G12c C00W11451   5.936   1.140   8.544
   624G12c O00411452   5.951   1.271   8.505
   624G12c C01C11453   6.083   1.328   8.514
   624G12c H00A11454   6.107   1.416   8.456
   624G12c C00P11455   6.197   1.246   8.557
   624G12c C00O11456   6.316   1.313   8.610
   624G12c C01D11457   6.316   1.455   8.637
   624G12c H00S11458   6.234   1.519   8.610
   624G12c C01E11459   6.421   1.525   8.704
   624G12c O00811460   6.429   1.660   8.725
   624G12c C01V11461   6.320   1.746   8.720
   624G12c C01Z11462   6.295   1.807   8.586
   624G12c H00R11463   6.303   1.914   8.603
   624G12c H00Q11464   6.369   1.760   8.521
   624G12c O00911465   6.168   1.759   8.545
   624G12c H00P11466   6.117   1.822   8.497
   624G12c C01W11467   6.255   1.778   8.838
   624G12c H00O11468   6.292   1.738   8.931
   624G12c C01X11469   6.146   1.882   8.852
   624G12c H00N11470   6.189   1.952   8.924
   624G12c H00M11471   6.130   1.928   8.755
   624G12c C01Y11472   6.015   1.825   8.911
   624G12c C02D11473   6.002   1.834   9.047
   624G12c H01911474   6.072   1.889   9.108
   624G12c C02C11475   5.887   1.783   9.108
   624G12c H01A11476   5.862   1.809   9.210
   624G12c C02B11477   5.811   1.690   9.033
   624G12c O00E11478   5.702   1.626   9.089
   624G12c H01B11479   5.661   1.596   9.009
   624G12c C02F11480   5.834   1.663   8.895
   624G12c O00F11481   5.752   1.565   8.839
   624G12c C02G11482   5.789   1.521   8.706
   624G12c H01711483   5.737   1.429   8.678
   624G12c H01611484   5.895   1.497   8.709
   624G12c H01511485   5.774   1.603   8.636
   624G12c C02E11486   5.939   1.731   8.837
   624G12c H01811487   5.963   1.707   8.734
   624G12c C01F11488   0.015   1.448   8.737
   624G12c C01G11489   0.107   1.489   8.837
   624G12c H00L11490   0.083   1.581   8.888
   624G12c C01H11491   0.191   1.385   8.895
   624G12c H00B11492   0.227   1.400   8.996
   624G12c C01I11493   0.202   1.262   8.827
   624G12c C01U11494   0.039   1.327   8.680
   624G12c C00S11495   6.243   0.872   8.615
   624G12c C00K11496   6.455   0.877   8.677
   624G12c C00N11497   6.446   1.251   8.633
   624G12c C00011498   0.151   1.242   8.700
   624G12c C01J11499   0.215   1.128   8.881
   624G12c C01K11500   0.291   1.086   8.999
   624G12c C01P11501   0.396   1.152   9.075
   624G12c C01Q11502   0.471   1.269   9.028
   624G12c H00G11503   0.487   1.352   9.095
   624G12c C01R11504   0.514   1.265   8.900
   624G12c H00F11505   0.489   1.182   8.837
   624G12c C01S11506   0.589   1.380   8.835
   624G12c H00E11507   0.682   1.336   8.798
   624G12c H00D11508   0.528   1.420   8.754
   624G12c O00511509   0.615   1.488   8.919
   624G12c H00C11510   0.550   1.552   8.896
   624G12c C01O11511   0.435   1.095   9.202
   624G12c H00H11512   0.504   1.150   9.266
   624G12c C01N11513   0.374   0.987   9.262
   624G12c O00611514   0.395   0.945   9.396
   624G12c C01T11515   0.508   1.002   9.468
   624G12c H00K11516   0.531   0.960   9.566
   624G12c H00J11517   0.484   1.101   9.506
   624G12c H00I11518   0.599   1.012   9.410
   624G12c C01M11519   0.290   0.914   9.179
   624G12c C02011520   0.030   0.822   8.772
   624G12c C02111521   0.014   0.691   8.825
   624G12c C01L11522   0.250   0.959   9.046
   624G12c O00711523   0.226   0.820   9.245
   624G12c C02211524   0.057   0.668   8.953
   624G12c C02311525   6.427   0.605   8.798
   624G12c C00G11526   6.174   0.519   8.843
   624G12c C00E11527   6.014   0.350   8.922
   624G12c O00A11528   5.894   0.286   8.895
   624G12c C02411529   5.902   0.240   8.759
   624G12c H00V11530   5.808   0.202   8.719
   624G12c H00U11531   5.974   0.161   8.741
   624G12c H00T11532   5.921   0.315   8.682
   634G12c C00D11533   0.060   5.994   4.177
   634G12c O00B11534   0.083   5.879   4.246
   634G12c C02511535   0.062   5.756   4.194
   634G12c C02611536   6.463   5.676   4.249
   634G12c H00Y11537   6.420   5.607   4.177
   634G12c H00X11538   6.383   5.746   4.274
   634G12c O00C11539   6.507   5.610   4.358
   634G12c H00W11540   0.026   5.667   4.422
   634G12c C02711541   0.144   5.711   4.098
   634G12c O00D11542   0.261   5.775   4.065
   634G12c H00Z11543   0.323   5.729   4.011
   634G12c C02811544   0.121   5.588   4.026
   634G12c C02911545   0.146   5.583   3.886
   634G12c H01011546   0.185   5.674   3.842
   634G12c C02T11547   0.112   5.475   3.804
   634G12c H01O11548   0.110   5.485   3.697
   634G12c C02S11549   0.071   5.354   3.866
   634G12c O00J11550   0.042   5.246   3.784
   634G12c H01P11551   0.003   5.177   3.835
   634G12c C02R11552   0.052   5.347   4.003
   634G12c O00I11553   0.021   5.226   4.058
   634G12c C02Q11554   6.509   5.238   4.202
   634G12c H01N11555   0.069   5.274   4.264
   634G12c H01R11556   6.487   5.139   4.241
   634G12c H01Q11557   6.416   5.295   4.210
   634G12c C02A11558   0.085   5.464   4.081
   634G12c H01111559   0.094   5.451   4.187
   634G12c C00C11560   0.038   5.997   4.036
   634G12c H01211561   0.033   5.905   3.980
   634G12c C00B11562   0.028   6.115   3.960
   634G12c C00A11563   0.008   6.129   3.813
   634G12c C00911564   0.037   6.040   3.699
   634G12c C00811565   0.097   5.916   3.694
   634G12c H01311566   0.108   5.856   3.783
   634G12c C00711567   0.165   5.881   3.578
   634G12c H01411568   0.224   5.792   3.561
   634G12c C00611569   0.181   5.971   3.468
   634G12c C00511570   0.126   6.101   3.483
   634G12c C00411571   0.168   6.204   3.405
   634G12c C00311572   0.127   6.336   3.439
   634G12c C00211573   0.180   6.444   3.359
   634G12c C00111574   0.163   0.073   3.358
   634G12c C00M11575   0.172   0.153   3.481
   634G12c C00L11576   0.113   0.114   3.600
   634G12c C00R11577   0.134   0.170   3.732
   634G12c C00Q11578   0.234   0.265   3.777
   634G12c C00V11579   0.233   0.274   3.916
   634G12c C00U11580   0.178   0.181   4.011
   634G12c C00T11581   0.122   0.070   3.955
   634G12c C01611582   0.081   6.478   4.026
   634G12c C01511583   0.099   6.482   4.163
   634G12c C01011584   0.141   0.080   4.221
   634G12c C01111585   0.121   0.086   4.359
   634G12c H00511586   0.138   0.181   4.408
   634G12c C01211587   0.076   6.507   4.443
   634G12c C01711588   0.058   0.001   4.585
   634G12c O00211589   0.117   6.437   4.671
   634G12c H00411590   0.175   6.387   4.615
   634G12c C01811591   6.496   0.099   4.629
   634G12c O00111592   6.440   0.187   4.541
   634G12c H00311593   6.351   0.201   4.573
   634G12c C01911594   6.478   0.133   4.777
   634G12c H00211595   0.008   0.064   4.846
   634G12c H00111596   0.018   0.221   4.798
   634G12c O00011597   6.338   0.153   4.795
   634G12c C01A11598   6.301   0.259   4.874
   634G12c C02K11599   6.269   0.245   5.012
   634G12c O00G11600   6.281   0.123   5.083
   634G12c C02M11601   6.185   0.032   5.050
   634G12c H01G11602   6.191   6.468   5.117
   634G12c H01F11603   6.205   6.514   4.950
   634G12c H01E11604   6.087   0.079   5.058
   634G12c C02J11605   6.246   0.367   5.082
   634G12c H01H11606   6.234   0.359   5.189
   634G12c C02I11607   6.247   0.494   5.020
   634G12c C02N11608   6.227   0.611   5.096
   634G12c H01M11609   6.200   0.602   5.200
   634G12c C02O11610   6.225   0.733   5.045
   634G12c H01L11611   6.248   0.761   4.943
   634G12c C02P11612   6.205   0.853   5.129
   634G12c H01K11613   6.148   0.824   5.217
   634G12c H01J11614   6.303   0.885   5.164
   634G12c O00H11615   6.137   0.951   5.061
   634G12c H01I11616   6.164   1.037   5.089
   634G12c C02H11617   6.259   0.499   4.877
   634G12c H01C11618   6.254   0.594   4.826
   634G12c C02L11619   6.298   0.386   4.805
   634G12c H01D11620   6.316   0.405   4.700
   634G12c C01311621   0.054   6.385   4.378
   634G12c H00011622   0.018   6.307   4.443
   634G12c C01411623   0.064   6.367   4.237
   634G12c C00F11624   0.057   6.242   4.168
   634G12c C00H11625   0.034   6.364   3.959
   634G12c C00I11626   6.516   6.373   3.827
   634G12c C00J11627   0.016   6.500   3.760
   634G12c C00Z11628   0.185   0.193   4.146
   634G12c C00Y11629   0.240   0.313   4.199
   634G12c H00611630   0.240   0.323   4.307
   634G12c C00X11631   0.299   0.409   4.114
   634G12c O00311632   0.370   0.522   4.164
   634G12c C01B11633   0.331   0.574   4.280
   634G12c H00911634   0.343   0.511   4.368
   634G12c H00811635   0.227   0.607   4.280
   634G12c H00711636   0.397   0.660   4.294
   634G12c C00W11637   0.302   0.387   3.975
   634G12c O00411638   0.372   0.477   3.895
   634G12c C01C11639   0.417   0.426   3.778
   634G12c H00A11640   0.494   0.487   3.732
   634G12c C00P11641   0.341   0.326   3.703
   634G12c C00O11642   0.375   0.300   3.563
   634G12c C01D11643   0.497   0.348   3.512
   634G12c H00S11644   0.561   0.411   3.572
   634G12c C01E11645   0.555   0.302   3.391
   634G12c O00811646   0.687   0.315   3.358
   634G12c C01V11647   0.774   0.392   3.436
   634G12c C01Z11648   0.779   0.537   3.400
   634G12c H00R11649   0.847   0.593   3.464
   634G12c H00Q11650   0.799   0.545   3.293
   634G12c O00911651   0.657   0.601   3.415
   634G12c H00P11652   0.601   0.555   3.355
   634G12c C01W11653   0.828   0.333   3.539
   634G12c H00O11654   0.807   0.229   3.561
   634G12c C01X11655   0.921   0.392   3.637
   634G12c H00N11656   0.983   0.305   3.660
   634G12c H00M11657   0.987   0.465   3.590
   634G12c C01Y11658   0.862   0.459   3.761
   634G12c C02D11659   0.868   0.597   3.787
   634G12c H01911660   0.924   0.670   3.731
   634G12c C02C11661   0.782   0.650   3.887
   634G12c H01A11662   0.777   0.757   3.896
   634G12c C02B11663   0.692   0.566   3.956
   634G12c O00E11664   0.609   0.612   4.051
   634G12c H01B11665   0.553   0.538   4.067
   634G12c C02F11666   0.691   0.424   3.938
   634G12c O00F11667   0.606   0.349   4.012
   634G12c C02G11668   0.637   0.206   4.015
   634G12c H01711669   0.736   0.184   4.053
   634G12c H01611670   0.631   0.154   3.919
   634G12c H01511671   0.559   0.170   4.081
   634G12c C02E11672   0.777   0.376   3.837
   634G12c H01811673   0.781   0.274   3.802
   634G12c C01F11674   0.480   0.219   3.307
   634G12c C01G11675   0.536   0.138   3.208
   634G12c H00L11676   0.640   0.142   3.178
   634G12c C01H11677   0.455   0.031   3.159
   634G12c H00B11678   0.505   6.470   3.110
   634G12c C01I11679   0.325   0.009   3.207
   634G12c C01U11680   0.342   0.208   3.333
   634G12c C00S11681   0.068   0.088   3.825
   634G12c C00K11682   0.057   6.506   3.622
   634G12c C00N11683   0.299   0.226   3.469
   634G12c C00011684   0.257   0.120   3.263
   634G12c C01J11685   0.252   6.410   3.242
   634G12c C01K11686   0.281   6.275   3.197
   634G12c C01P11687   0.354   6.230   3.077
   634G12c C01Q11688   0.379   6.327   2.971
   634G12c H00G11689   0.307   6.408   2.963
   634G12c C01R11690   0.495   6.313   2.897
   634G12c H00F11691   0.572   6.239   2.914
   634G12c C01S11692   0.538   6.400   2.790
   634G12c H00E11693   0.585   6.331   2.720
   634G12c H00D11694   0.453   6.446   2.740
   634G12c O00511695   0.638   6.479   2.844
   634G12c H00C11696   0.719   6.431   2.839
   634G12c C01O11697   0.390   6.093   3.058
   634G12c H00H11698   0.435   6.061   2.965
   634G12c C01N11699   0.353   5.998   3.156
   634G12c O00611700   0.383   5.863   3.143
   634G12c C01T11701   0.450   5.822   3.021
   634G12c H00K11702   0.467   5.714   3.015
   634G12c H00J11703   0.547   5.872   3.021
   634G12c H00I11704   0.391   5.857   2.936
   634G12c C01M11705   0.285   6.038   3.272
   634G12c C02011706   0.062   6.369   3.560
   634G12c C02111707   0.007   6.255   3.623
   634G12c C01L11708   0.243   6.176   3.291
   634G12c O00711709   0.261   5.938   3.362
   634G12c C02211710   0.038   6.130   3.581
   634G12c C02311711   6.505   6.254   3.760
   634G12c C00G11712   0.043   6.240   4.031
   634G12c C00E11713   0.072   6.116   4.240
   634G12c O00A11714   0.106   6.123   4.371
   634G12c C02411715   0.025   6.053   4.465
   634G12c H00V11716   0.035   5.945   4.460
   634G12c H00U11717   6.440   6.073   4.450
   634G12c H00T11718   0.055   6.083   4.565
   644G12c C00D11719   0.211   1.245   5.853
   644G12c O00B11720   0.079   1.191   5.847
   644G12c C02511721   0.032   1.170   5.721
   644G12c C02611722   0.051   1.027   5.676
   644G12c H00Y11723   6.471   0.988   5.686
   644G12c H00X11724   0.113   0.966   5.741
   644G12c O00C11725   0.106   1.038   5.543
   644G12c H00W11726   0.055   1.092   5.484
   644G12c C02711727   6.496   1.267   5.651
   644G12c O00D11728   6.487   1.400   5.705
   644G12c H00Z11729   0.004   1.395   5.791
   644G12c C02811730   6.425   1.243   5.523
   644G12c C02911731   6.334   1.139   5.503
   644G12c H01011732   6.304   1.072   5.582
   644G12c C02T11733   6.273   1.117   5.381
   644G12c H01O11734   6.212   1.030   5.362
   644G12c C02S11735   6.304   1.192   5.275
   644G12c O00J11736   6.252   1.165   5.153
   644G12c H01P11737   6.278   1.234   5.093
   644G12c C02R11738   6.393   1.303   5.287
   644G12c O00I11739   6.419   1.387   5.187
   644G12c C02Q11740   0.006   1.351   5.100
   644G12c H01N11741   0.103   1.380   5.140
   644G12c H01R11742   6.517   1.408   5.008
   644G12c H01Q11743   0.012   1.247   5.070
   644G12c C02A11744   6.457   1.324   5.409
   644G12c H01111745   0.015   1.398   5.417
   644G12c C00C11746   0.303   1.216   5.749
   644G12c H01211747   0.277   1.155   5.664
   644G12c C00B11748   0.436   1.268   5.755
   644G12c C00A11749   0.538   1.234   5.660
   644G12c C00911750   0.563   1.108   5.601
   644G12c C00811751   0.486   0.991   5.600
   644G12c H01311752   0.381   0.983   5.621
   644G12c C00711753   0.548   0.868   5.585
   644G12c H01411754   0.490   0.778   5.575
   644G12c C00611755   0.686   0.860   5.577
   644G12c C00511756   0.761   0.983   5.581
   644G12c C00411757   0.900   0.984   5.608
   644G12c C00311758   0.967   1.100   5.649
   644G12c C00211759   1.106   1.085   5.684
   644G12c C00111760   1.206   1.181   5.726
   644G12c C00M11761   1.173   1.276   5.834
   644G12c C00L11762   1.057   1.351   5.841
   644G12c C00R11763   1.008   1.421   5.956
   644G12c C00Q11764   1.060   1.452   6.089
   644G12c C00V11765   0.969   1.509   6.180
   644G12c C00U11766   0.834   1.519   6.151
   644G12c C00T11767   0.783   1.482   6.029
   644G12c C01611768   0.646   1.463   5.999
   644G12c C01511769   0.556   1.494   6.098
   644G12c C01011770   0.601   1.556   6.214
   644G12c C01111771   0.504   1.618   6.298
   644G12c H00511772   0.536   1.684   6.377
   644G12c C01211773   0.364   1.606   6.274
   644G12c C01711774   0.280   1.676   6.360
   644G12c O00211775   0.313   1.803   6.400
   644G12c H00411776   0.388   1.838   6.355
   644G12c C01811777   0.161   1.623   6.392
   644G12c O00111778   0.119   1.495   6.362
   644G12c H00311779   0.041   1.488   6.415
   644G12c C01911780   0.050   1.708   6.458
   644G12c H00211781   0.009   1.657   6.545
   644G12c H00111782   0.084   1.792   6.519
   644G12c O00011783   6.481   1.734   6.358
   644G12c C01A11784   6.344   1.755   6.388
   644G12c C02K11785   6.295   1.816   6.506
   644G12c O00G11786   6.382   1.847   6.607
   644G12c C02M11787   6.342   1.817   6.738
   644G12c H01G11788   6.272   1.894   6.770
   644G12c H01F11789   6.425   1.813   6.808
   644G12c H01E11790   6.287   1.723   6.734
   644G12c C02J11791   6.157   1.852   6.514
   644G12c H01H11792   6.123   1.902   6.603
   644G12c C02I11793   6.068   1.804   6.418
   644G12c C02N11794   5.927   1.841   6.428
   644G12c H01M11795   5.878   1.913   6.364
   644G12c C02O11796   5.862   1.792   6.538
   644G12c H01L11797   5.910   1.720   6.604
   644G12c C02P11798   5.717   1.824   6.564
   644G12c H01K11799   5.664   1.881   6.488
   644G12c H01J11800   5.672   1.724   6.560
   644G12c O00H11801   5.688   1.886   6.692
   644G12c H01I11802   5.600   1.920   6.689
   644G12c C02H11803   6.115   1.729   6.307
   644G12c H01C11804   6.053   1.679   6.234
   644G12c C02L11805   6.253   1.717   6.287
   644G12c H01D11806   6.292   1.666   6.199
   644G12c C01311807   0.328   1.525   6.165
   644G12c H00011808   0.223   1.527   6.139
   644G12c C01411809   0.422   1.465   6.077
   644G12c C00F11810   0.382   1.378   5.974
   644G12c C00H11811   0.605   1.399   5.878
   644G12c C00I11812   0.700   1.378   5.776
   644G12c C00J11813   0.831   1.401   5.810
   644G12c C00Z11814   0.738   1.566   6.241
   644G12c C00Y11815   0.783   1.635   6.354
   644G12c H00611816   0.715   1.692   6.415
   644G12c C00X11817   0.921   1.630   6.390
   644G12c O00311818   0.963   1.678   6.511
   644G12c C01B11819   0.887   1.644   6.632
   644G12c H00911820   0.831   1.552   6.621
   644G12c H00811821   0.815   1.723   6.653
   644G12c H00711822   0.959   1.626   6.712
   644G12c C00W11823   1.010   1.567   6.303
   644G12c O00411824   1.145   1.567   6.339
   644G12c C01C11825   1.222   1.480   6.269
   644G12c H00A11826   1.323   1.468   6.305
   644G12c C00P11827   1.186   1.417   6.142
   644G12c C00O11828   1.266   1.307   6.085
   644G12c C01D11829   1.365   1.243   6.167
   644G12c H00S11830   1.384   1.277   6.268
   644G12c C01E11831   1.418   1.112   6.135
   644G12c O00811832   1.480   1.046   6.232
   644G12c C01V11833   1.389   0.985   6.320
   644G12c C01Z11834   1.315   0.868   6.265
   644G12c H00R11835   1.248   0.837   6.345
   644G12c H00Q11836   1.253   0.885   6.177
   644G12c O00911837   1.406   0.763   6.252
   644G12c H00P11838   1.471   0.798   6.311
   644G12c C01W11839   1.388   1.030   6.447
   644G12c H00O11840   1.462   1.106   6.467
   644G12c C01X11841   1.319   0.959   6.565
   644G12c H00N11842   1.278   0.861   6.538
   644G12c H00M11843   1.396   0.951   6.642
   644G12c C01Y11844   1.207   1.048   6.610
   644G12c C02D11845   1.077   1.052   6.547
   644G12c H01911846   1.061   0.999   6.455
   644G12c C02C11847   0.971   1.137   6.598
   644G12c H01A11848   0.870   1.133   6.558
   644G12c C02B11849   0.994   1.214   6.714
   644G12c O00E11850   0.892   1.288   6.773
   644G12c H01B11851   0.918   1.338   6.849
   644G12c C02F11852   1.123   1.221   6.773
   644G12c O00F11853   1.144   1.309   6.874
   644G12c C02G11854   1.273   1.344   6.918
   644G12c H01711855   1.334   1.351   6.828
   644G12c H01611856   1.319   1.268   6.980
   644G12c H01511857   1.260   1.440   6.967
   644G12c C02E11858   1.222   1.130   6.727
   644G12c H01811859   1.320   1.136   6.770
   644G12c C01F11860   1.402   1.062   6.003
   644G12c C01G11861   1.418   0.924   5.962
   644G12c H00L11862   1.465   0.852   6.028
   644G12c C01H11863   1.363   0.878   5.840
   644G12c H00B11864   1.350   0.772   5.827
   644G12c C01I11865   1.288   0.968   5.753
   644G12c C01U11866   1.346   1.144   5.906
   644G12c C00S11867   0.874   1.449   5.929
   644G12c C00K11868   0.940   1.320   5.761
   644G12c C00N11869   1.263   1.259   5.950
   644G12c C00011870   1.316   1.105   5.772
   644G12c C01J11871   1.166   0.960   5.672
   644G12c C01K11872   1.104   0.837   5.629
   644G12c C01P11873   1.159   0.713   5.608
   644G12c C01Q11874   1.306   0.690   5.599
   644G12c H00G11875   1.361   0.762   5.539
   644G12c C01R11876   1.361   0.581   5.652
   644G12c H00F11877   1.306   0.515   5.717
   644G12c C01S11878   1.499   0.557   5.641
   644G12c H00E11879   1.540   0.596   5.548
   644G12c H00D11880   1.549   0.614   5.719
   644G12c O00511881   1.518   0.421   5.633
   644G12c H00C11882   1.493   0.392   5.546
   644G12c C01O11883   1.080   0.597   5.599
   644G12c H00H11884   1.124   0.499   5.594
   644G12c C01N11885   0.942   0.611   5.596
   644G12c O00611886   0.853   0.508   5.607
   644G12c C01T11887   0.901   0.375   5.648
   644G12c H00K11888   0.825   0.298   5.651
   644G12c H00J11889   0.932   0.392   5.751
   644G12c H00I11890   0.978   0.329   5.586
   644G12c C01M11891   0.887   0.738   5.603
   644G12c C02011892   0.896   1.224   5.664
   644G12c C02111893   0.768   1.227   5.603
   644G12c C01L11894   0.964   0.857   5.613
   644G12c O00711895   0.751   0.739   5.590
   644G12c C02211896   0.704   1.109   5.564
   644G12c C02311897   0.661   1.304   5.664
   644G12c C00G11898   0.472   1.347   5.869
   644G12c C00E11899   0.252   1.318   5.966
   644G12c O00A11900   0.158   1.320   6.069
   644G12c C02411901   0.174   1.224   6.170
   644G12c H00V11902   0.277   1.226   6.208
   644G12c H00U11903   0.150   1.131   6.118
   644G12c H00T11904   0.103   1.245   6.250
   654G12c C00D11905   1.965   4.977   7.799
   654G12c O00B11906   2.036   4.875   7.855
   654G12c C02511907   2.043   4.869   7.993
   654G12c C02611908   2.169   4.925   8.059
   654G12c H00Y11909   2.233   4.953   7.975
   654G12c H00X11910   2.211   4.840   8.114
   654G12c O00C11911   2.137   5.028   8.151
   654G12c H00W11912   2.064   4.990   8.198
   654G12c C02711913   1.932   4.829   8.060
   654G12c O00D11914   1.831   4.770   7.991
   654G12c H00Z11915   1.853   4.767   7.900
   654G12c C02811916   1.923   4.847   8.202
   654G12c C02911917   1.863   4.958   8.256
   654G12c H01011918   1.813   5.026   8.188
   654G12c C02T11919   1.871   4.991   8.395
   654G12c H01O11920   1.822   5.079   8.435
   654G12c C02S11921   1.930   4.900   8.476
   654G12c O00J11922   1.915   4.899   8.611
   654G12c H01P11923   1.834   4.936   8.643
   654G12c C02R11924   1.980   4.778   8.425
   654G12c O00I11925   2.023   4.690   8.523
   654G12c C02Q11926   2.064   4.559   8.473
   654G12c H01N11927   2.061   4.492   8.559
   654G12c H01R11928   2.165   4.542   8.435
   654G12c H01Q11929   1.996   4.504   8.408
   654G12c C02A11930   1.982   4.750   8.284
   654G12c H01111931   2.022   4.655   8.253
   654G12c C00C11932   1.970   5.108   7.845
   654G12c H01211933   2.018   5.133   7.938
   654G12c C00B11934   1.900   5.212   7.778
   654G12c C00A11935   1.901   5.353   7.811
   654G12c C00911936   1.896   5.415   7.942
   654G12c C00811937   1.888   5.356   8.071
   654G12c H01311938   1.928   5.256   8.084
   654G12c C00711939   1.817   5.424   8.180
   654G12c H01411940   1.795   5.377   8.275
   654G12c C00611941   1.752   5.548   8.153
   654G12c C00511942   1.765   5.600   8.022
   654G12c C00411943   1.675   5.696   7.976
   654G12c C00311944   1.651   5.715   7.842
   654G12c C00211945   1.551   5.816   7.808
   654G12c C00111946   1.495   5.851   7.683
   654G12c C00M11947   1.449   5.756   7.583
   654G12c C00L11948   1.538   5.667   7.531
   654G12c C00R11949   1.496   5.559   7.443
   654G12c C00Q11950   1.376   5.524   7.377
   654G12c C00V11951   1.384   5.396   7.310
   654G12c C00U11952   1.487   5.302   7.330
   654G12c C00T11953   1.590   5.334   7.413
   654G12c C01611954   1.672   5.240   7.477
   654G12c C01511955   1.665   5.107   7.434
   654G12c C01011956   1.574   5.077   7.331
   654G12c C01111957   1.571   4.946   7.285
   654G12c H00511958   1.503   4.916   7.206
   654G12c C01211959   1.664   4.846   7.333
   654G12c C01711960   1.662   4.708   7.285
   654G12c O00211961   1.538   4.661   7.252
   654G12c H00411962   1.562   4.589   7.195
   654G12c C01811963   1.779   4.649   7.246
   654G12c O00111964   1.904   4.704   7.263
   654G12c H00311965   1.964   4.640   7.229
   654G12c C01911966   1.782   4.505   7.188
   654G12c H00211967   1.862   4.512   7.114
   654G12c H00111968   1.826   4.441   7.265
   654G12c O00011969   1.673   4.470   7.110
   654G12c C01A11970   1.660   4.339   7.059
   654G12c C02K11971   1.550   4.312   6.981
   654G12c O00G11972   1.456   4.415   6.962
   654G12c C02M11973   1.334   4.379   6.910
   654G12c H01G11974   1.295   4.291   6.962
   654G12c H01F11975   1.337   4.348   6.806
   654G12c H01E11976   1.262   4.460   6.923
   654G12c C02J11977   1.541   4.173   6.941
   654G12c H01H11978   1.455   4.152   6.880
   654G12c C02I11979   1.631   4.069   6.973
   654G12c C02N11980   1.596   3.933   6.952
   654G12c H01M11981   1.591   3.858   7.029
   654G12c C02O11982   1.537   3.899   6.833
   654G12c H01L11983   1.527   3.974   6.755
   654G12c C02P11984   1.467   3.772   6.805
   654G12c H01K11985   1.503   3.722   6.715
   654G12c H01J11986   1.492   3.701   6.885
   654G12c O00H11987   1.324   3.794   6.802
   654G12c H01I11988   1.296   3.803   6.892
   654G12c C02H11989   1.742   4.112   7.052
   654G12c H01C11990   1.814   4.045   7.095
   654G12c C02L11991   1.755   4.243   7.092
   654G12c H01D11992   1.839   4.255   7.158
   654G12c C01311993   1.753   4.883   7.433
   654G12c H00011994   1.816   4.801   7.463
   654G12c C01411995   1.755   5.013   7.493
   654G12c C00F11996   1.828   5.047   7.607
   654G12c C00H11997   1.757   5.276   7.583
   654G12c C00I11998   1.772   5.410   7.614
   654G12c C00J11999   1.696   5.505   7.539
   654G12c C00Z12000   1.479   5.175   7.285
   654G12c C00Y12001   1.376   5.144   7.199
   654G12c H00612002   1.368   5.043   7.163
   654G12c C00X12003   1.277   5.233   7.168
   654G12c O00312004   1.173   5.201   7.086
   654G12c C01B12005   1.175   5.269   6.963
   654G12c H00912006   1.095   5.223   6.905
   654G12c H00812007   1.271   5.257   6.911
   654G12c H00712008   1.140   5.370   6.983
   654G12c C00W12009   1.278   5.360   7.228
   654G12c O00412010   1.175   5.444   7.205
   654G12c C01C12011   1.145   5.532   7.304
   654G12c H00A12012   1.042   5.542   7.336
   654G12c C00P12013   1.248   5.593   7.377
   654G12c C00O12014   1.224   5.710   7.459
   654G12c C01D12015   1.096   5.770   7.474
   654G12c H00S12016   1.029   5.740   7.394
   654G12c C01E12017   1.046   5.853   7.577
   654G12c O00812018   0.911   5.870   7.606
   654G12c C01V12019   0.816   5.883   7.507
   654G12c C01Z12020   0.676   5.865   7.564
   654G12c H00R12021   0.605   5.926   7.509
   654G12c H00Q12022   0.634   5.765   7.547
   654G12c O00912023   0.686   5.912   7.699
   654G12c H00P12024   0.775   5.890   7.724
   654G12c C01W12025   0.848   5.919   7.378
   654G12c H00O12026   0.952   5.933   7.353
   654G12c C01X12027   0.742   5.936   7.272
   654G12c H00N12028   0.639   5.947   7.306
   654G12c H00M12029   0.765   6.030   7.221
   654G12c C01Y12030   0.716   5.823   7.172
   654G12c C02D12031   0.767   5.695   7.191
   654G12c H01912032   0.818   5.674   7.284
   654G12c C02C12033   0.745   5.594   7.099
   654G12c H01A12034   0.784   5.494   7.113
   654G12c C02B12035   0.687   5.617   6.974
   654G12c O00E12036   0.667   5.520   6.883
   654G12c H01B12037   0.617   5.554   6.810
   654G12c C02F12038   0.634   5.744   6.950
   654G12c O00F12039   0.550   5.762   6.841
   654G12c C02G12040   0.485   5.885   6.821
   654G12c H01712041   0.411   5.903   6.899
   654G12c H01612042   0.441   5.875   6.722
   654G12c H01512043   0.554   5.968   6.809
   654G12c C02E12044   0.655   5.850   7.048
   654G12c H01812045   0.630   5.951   7.022
   654G12c C01F12046   1.142   5.901   7.669
   654G12c C01G12047   1.119   5.963   7.799
   654G12c H00L12048   1.023   5.974   7.848
   654G12c C01H12049   1.231   5.988   7.893
   654G12c H00B12050   1.204   6.008   7.995
   654G12c C01I12051   1.359   5.954   7.844
   654G12c C01U12052   1.276   5.889   7.635
   654G12c C00S12053   1.598   5.467   7.455
   654G12c C00K12054   1.655   5.625   7.606
   654G12c C00N12055   1.315   5.778   7.545
   654G12c C00012056   1.381   5.937   7.708
   654G12c C01J12057   1.485   5.899   7.904
   654G12c C01K12058   1.516   5.886   8.043
   654G12c C01P12059   1.471   5.960   8.155
   654G12c C01Q12060   1.406   6.086   8.133
   654G12c H00G12061   1.442   6.156   8.058
   654G12c C01R12062   1.313   6.134   8.214
   654G12c H00F12063   1.263   6.073   8.288
   654G12c C01S12064   1.255   6.270   8.201
   654G12c H00E12065   1.165   6.269   8.263
   654G12c H00D12066   1.317   6.342   8.254
   654G12c O00512067   1.235   6.318   8.068
   654G12c H00C12068   1.320   6.334   8.029
   654G12c C01O12069   1.498   5.924   8.286
   654G12c H00H12070   1.475   5.986   8.372
   654G12c C01N12071   1.557   5.802   8.321
   654G12c O00612072   1.576   5.760   8.446
   654G12c C01T12073   1.540   5.839   8.555
   654G12c H00K12074   1.433   5.864   8.558
   654G12c H00J12075   1.590   5.936   8.553
   654G12c H00I12076   1.563   5.784   8.646
   654G12c C01M12077   1.607   5.733   8.211
   654G12c C02012078   1.713   5.646   7.741
   654G12c C02112079   1.826   5.570   7.785
   654G12c C01L12080   1.602   5.773   8.076
   654G12c O00712081   1.675   5.614   8.247
   654G12c C02212082   1.846   5.548   7.922
   654G12c C02312083   1.855   5.447   7.720
   654G12c C00G12084   1.830   5.178   7.658
   654G12c C00E12085   1.901   4.945   7.680
   654G12c O00A12086   1.919   4.810   7.642
   654G12c C02412087   2.032   4.800   7.554
   654G12c H00V12088   2.057   4.877   7.481
   654G12c H00U12089   2.024   4.705   7.502
   654G12c H00T12090   2.115   4.792   7.624
   664G12c C00D12091   5.071   2.380   3.451
   664G12c O00B12092   5.122   2.317   3.559
   664G12c C02512093   5.168   2.189   3.543
   664G12c C02612094   5.317   2.179   3.543
   664G12c H00Y12095   5.355   2.125   3.629
   664G12c H00X12096   5.365   2.277   3.544
   664G12c O00C12097   5.356   2.112   3.423
   664G12c H00W12098   5.328   2.024   3.439
   664G12c C02712099   5.081   2.082   3.536
   664G12c O00D12100   4.945   2.096   3.535
   664G12c H00Z12101   4.900   2.014   3.523
   664G12c C02812102   5.134   1.952   3.541
   664G12c C02912103   5.138   1.871   3.428
   664G12c H01012104   5.115   1.919   3.334
   664G12c C02T12105   5.166   1.732   3.436
   664G12c H01O12106   5.155   1.680   3.342
   664G12c C02S12107   5.189   1.682   3.562
   664G12c O00J12108   5.205   1.546   3.579
   664G12c H01P12109   5.247   1.524   3.661
   664G12c C02R12110   5.194   1.759   3.680
   664G12c O00I12111   5.218   1.695   3.797
   664G12c C02Q12112   5.234   1.766   3.919
   664G12c H01N12113   5.314   1.840   3.906
   664G12c H01R12114   5.263   1.700   4.001
   664G12c H01Q12115   5.148   1.827   3.948
   664G12c C02A12116   5.172   1.898   3.669
   664G12c H01112117   5.178   1.972   3.747
   664G12c C00C12118   5.102   2.338   3.320
   664G12c H01212119   5.174   2.262   3.296
   664G12c C00B12120   5.046   2.404   3.207
   664G12c C00A12121   5.072   2.372   3.071
   664G12c C00912122   5.183   2.316   3.004
   664G12c C00812123   5.315   2.269   3.041
   664G12c H01312124   5.344   2.253   3.143
   664G12c C00712125   5.416   2.257   2.938
   664G12c H01412126   5.516   2.227   2.964
   664G12c C00612127   5.391   2.299   2.805
   664G12c C00512128   5.266   2.344   2.771
   664G12c C00412129   5.244   2.422   2.657
   664G12c C00312130   5.121   2.493   2.646
   664G12c C00212131   5.120   2.584   2.535
   664G12c C00112132   5.025   2.682   2.491
   664G12c C00M12133   4.943   2.776   2.571
   664G12c C00L12134   4.894   2.730   2.694
   664G12c C00R12135   4.841   2.819   2.796
   664G12c C00Q12136   4.827   2.963   2.805
   664G12c C00V12137   4.770   3.007   2.929
   664G12c C00U12138   4.763   2.923   3.043
   664G12c C00T12139   4.803   2.791   3.033
   664G12c C01612140   4.833   2.705   3.137
   664G12c C01512141   4.800   2.751   3.262
   664G12c C01012142   4.732   2.876   3.273
   664G12c C01112143   4.684   2.909   3.401
   664G12c H00512144   4.628   3.001   3.414
   664G12c C01212145   4.716   2.831   3.512
   664G12c C01712146   4.684   2.880   3.647
   664G12c O00212147   4.584   2.809   3.706
   664G12c H00412148   4.571   2.720   3.675
   664G12c C01812149   4.762   2.977   3.702
   664G12c O00112150   4.864   3.025   3.628
   664G12c H00312151   4.876   3.119   3.636
   664G12c C01912152   4.749   3.051   3.837
   664G12c H00212153   4.648   3.050   3.878
   664G12c H00112154   4.794   2.992   3.917
   664G12c O00012155   4.801   3.187   3.816
   664G12c C01A12156   4.723   3.280   3.744
   664G12c C02K12157   4.791   3.359   3.652
   664G12c O00G12158   4.924   3.329   3.630
   664G12c C02M12159   5.001   3.402   3.541
   664G12c H01G12160   4.970   3.371   3.441
   664G12c H01F12161   5.103   3.368   3.557
   664G12c H01E12162   5.006   3.511   3.550
   664G12c C02J12163   4.722   3.464   3.579
   664G12c H01H12164   4.788   3.514   3.510
   664G12c C02I12165   4.579   3.472   3.590
   664G12c C02N12166   4.500   3.560   3.499
   664G12c H01M12167   4.394   3.540   3.494
   664G12c C02O12168   4.558   3.640   3.408
   664G12c H01L12169   4.664   3.658   3.404
   664G12c C02P12170   4.478   3.707   3.292
   664G12c H01K12171   4.389   3.646   3.278
   664G12c H01J12172   4.446   3.802   3.335
   664G12c O00H12173   4.560   3.741   3.180
   664G12c H01I12174   4.653   3.727   3.188
   664G12c C02H12175   4.513   3.376   3.670
   664G12c H01C12176   4.405   3.373   3.664
   664G12c C02L12177   4.587   3.288   3.755
   664G12c H01D12178   4.531   3.230   3.827
   664G12c C01312179   4.796   2.715   3.495
   664G12c H00012180   4.810   2.663   3.589
   664G12c C01412181   4.840   2.675   3.370
   664G12c C00F12182   4.925   2.559   3.355
   664G12c C00H12183   4.891   2.581   3.116
   664G12c C00I12184   4.906   2.528   2.988
   664G12c C00J12185   4.862   2.611   2.881
   664G12c C00Z12186   4.726   2.967   3.167
   664G12c C00Y12187   4.671   3.093   3.179
   664G12c H00612188   4.635   3.132   3.273
   664G12c C00X12189   4.686   3.184   3.071
   664G12c O00312190   4.637   3.312   3.084
   664G12c C01B12191   4.649   3.373   3.214
   664G12c H00912192   4.567   3.335   3.275
   664G12c H00812193   4.631   3.480   3.201
   664G12c H00712194   4.744   3.353   3.264
   664G12c C00W12195   4.742   3.144   2.949
   664G12c O00412196   4.743   3.241   2.850
   664G12c C01C12197   4.801   3.204   2.729
   664G12c H00A12198   4.808   3.270   2.644
   664G12c C00P12199   4.864   3.070   2.706
   664G12c C00O12200   4.951   3.039   2.598
   664G12c C01D12201   5.023   3.148   2.548
   664G12c H00S12202   5.013   3.250   2.583
   664G12c C01E12203   5.134   3.131   2.455
   664G12c O00812204   5.222   3.233   2.427
   664G12c C01V12205   5.243   3.342   2.510
   664G12c C01Z12206   5.354   3.330   2.612
   664G12c H00R12207   5.442   3.280   2.572
   664G12c H00Q12208   5.396   3.425   2.644
   664G12c O00912209   5.295   3.260   2.721
   664G12c H00P12210   5.285   3.169   2.696
   664G12c C01W12211   5.169   3.451   2.495
   664G12c H00O12212   5.083   3.447   2.431
   664G12c C01X12213   5.178   3.588   2.565
   664G12c H00N12214   5.271   3.620   2.613
   664G12c H00M12215   5.160   3.661   2.486
   664G12c C01Y12216   5.076   3.588   2.674
   664G12c C02D12217   4.953   3.657   2.656
   664G12c H01912218   4.937   3.715   2.566
   664G12c C02C12219   4.857   3.662   2.759
   664G12c H01A12220   4.769   3.725   2.757
   664G12c C02B12221   4.875   3.585   2.873
   664G12c O00E12222   4.793   3.586   2.981
   664G12c H01B12223   4.820   3.523   3.046
   664G12c C02F12224   4.995   3.512   2.885
   664G12c O00F12225   5.005   3.443   3.007
   664G12c C02G12226   5.123   3.355   3.013
   664G12c H01712227   5.146   3.329   3.116
   664G12c H01612228   5.215   3.406   2.986
   664G12c H01512229   5.113   3.265   2.952
   664G12c C02E12230   5.098   3.515   2.795
   664G12c H01812231   5.193   3.465   2.791
   664G12c C01F12232   5.161   2.997   2.405
   664G12c C01G12233   5.275   2.960   2.325
   664G12c H00L12234   5.348   3.024   2.276
   664G12c C01H12235   5.315   2.814   2.312
   664G12c H00B12236   5.418   2.795   2.287
   664G12c C01I12237   5.220   2.721   2.363
   664G12c C01U12238   5.076   2.895   2.437
   664G12c C00S12239   4.813   2.736   2.909
   664G12c C00K12240   4.927   2.607   2.760
   664G12c C00N12241   4.974   2.909   2.535
   664G12c C00012242   5.089   2.761   2.393
   664G12c C01J12243   5.230   2.596   2.441
   664G12c C01K12244   5.349   2.508   2.446
   664G12c C01P12245   5.453   2.485   2.352
   664G12c C01Q12246   5.445   2.548   2.227
   664G12c H00G12247   5.348   2.560   2.181
   664G12c C01R12248   5.557   2.585   2.159
   664G12c H00F12249   5.651   2.581   2.211
   664G12c C01S12250   5.551   2.653   2.026
   664G12c H00E12251   5.585   2.591   1.944
   664G12c H00D12252   5.447   2.673   1.999
   664G12c O00512253   5.621   2.773   2.026
   664G12c H00C12254   5.562   2.845   2.013
   664G12c C01O12255   5.548   2.377   2.369
   664G12c H00H12256   5.615   2.350   2.289
   664G12c C01N12257   5.567   2.321   2.494
   664G12c O00612258   5.666   2.236   2.525
   664G12c C01T12259   5.761   2.201   2.421
   664G12c H00K12260   5.825   2.116   2.445
   664G12c H00J12261   5.804   2.297   2.393
   664G12c H00I12262   5.718   2.173   2.325
   664G12c C01M12263   5.459   2.344   2.589
   664G12c C02012264   5.016   2.495   2.743
   664G12c C02112265   5.036   2.394   2.839
   664G12c C01L12266   5.343   2.421   2.561
   664G12c O00712267   5.480   2.281   2.711
   664G12c C02212268   5.156   2.337   2.864
   664G12c C02312269   4.989   2.418   2.964
   664G12c C00G12270   4.952   2.513   3.225
   664G12c C00E12271   4.987   2.493   3.469
   664G12c O00A12272   4.979   2.533   3.599
   664G12c C02412273   5.061   2.641   3.640
   664G12c H00V12274   5.069   2.646   3.748
   664G12c H00U12275   5.023   2.739   3.611
   664G12c H00T12276   5.169   2.634   3.623
   674G12c C00D12277   4.612   1.442   7.579
   674G12c O00B12278   4.591   1.547   7.669
   674G12c C02512279   4.691   1.609   7.732
   674G12c C02612280   4.734   1.556   7.872
   674G12c H00Y12281   4.678   1.610   7.948
   674G12c H00X12282   4.839   1.570   7.896
   674G12c O00C12283   4.710   1.418   7.890
   674G12c H00W12284   4.632   1.397   7.840
   674G12c C02712285   4.734   1.729   7.684
   674G12c O00D12286   4.691   1.784   7.561
   674G12c H00Z12287   4.597   1.775   7.565
   674G12c C02812288   4.836   1.811   7.759
   674G12c C02912289   4.947   1.871   7.695
   674G12c H01012290   4.976   1.851   7.593
   674G12c C02T12291   5.032   1.961   7.758
   674G12c H01O12292   5.120   2.003   7.711
   674G12c C02S12293   5.011   1.991   7.890
   674G12c O00J12294   5.093   2.079   7.957
   674G12c H01P12295   5.147   2.126   7.896
   674G12c C02R12296   4.902   1.932   7.961
   674G12c O00I12297   4.893   1.969   8.097
   674G12c C02Q12298   4.762   1.961   8.156
   674G12c H01N12299   4.761   1.987   8.262
   674G12c H01R12300   4.730   1.858   8.141
   674G12c H01Q12301   4.705   2.033   8.098
   674G12c C02A12302   4.814   1.847   7.892
   674G12c H01112303   4.723   1.816   7.941
   674G12c C00C12304   4.677   1.461   7.461
   674G12c H01212305   4.716   1.556   7.428
   674G12c C00B12306   4.693   1.364   7.362
   674G12c C00A12307   4.756   1.379   7.234
   674G12c C00912308   4.758   1.495   7.142
   674G12c C00812309   4.722   1.631   7.153
   674G12c H01312310   4.696   1.677   7.248
   674G12c C00712311   4.698   1.706   7.032
   674G12c H01412312   4.684   1.813   7.040
   674G12c C00612313   4.707   1.641   6.902
   674G12c C00512314   4.746   1.503   6.900
   674G12c C00412315   4.731   1.425   6.785
   674G12c C00312316   4.758   1.285   6.793
   674G12c C00212317   4.737   1.212   6.674
   674G12c C00112318   4.730   1.068   6.646
   674G12c C00M12319   4.661   0.976   6.727
   674G12c C00L12320   4.675   0.976   6.864
   674G12c C00R12321   4.606   0.893   6.963
   674G12c C00Q12322   4.488   0.806   6.949
   674G12c C00V12323   4.439   0.761   7.070
   674G12c C00U12324   4.475   0.824   7.191
   674G12c C00T12325   4.563   0.929   7.199
   674G12c C01612326   4.575   1.018   7.306
   674G12c C01512327   4.503   0.990   7.419
   674G12c C01012328   4.424   0.877   7.425
   674G12c C01112329   4.359   0.843   7.550
   674G12c H00512330   4.309   0.748   7.562
   674G12c C01212331   4.388   0.913   7.670
   674G12c C01712332   4.318   0.888   7.791
   674G12c O00212333   4.268   0.996   7.855
   674G12c H00412334   4.211   0.947   7.912
   674G12c C01812335   4.300   0.767   7.834
   674G12c O00112336   4.357   0.650   7.781
   674G12c H00312337   4.431   0.669   7.726
   674G12c C01912338   4.210   0.739   7.954
   674G12c H00212339   4.201   0.633   7.978
   674G12c H00112340   4.264   0.774   8.042
   674G12c O00012341   4.082   0.804   7.947
   674G12c C01A12342   3.986   0.773   8.039
   674G12c C02K12343   4.000   0.793   8.177
   674G12c O00G12344   4.113   0.858   8.219
   674G12c C02M12345   4.137   0.858   8.363
   674G12c H01G12346   4.241   0.887   8.380
   674G12c H01F12347   4.126   0.757   8.404
   674G12c H01E12348   4.073   0.936   8.404
   674G12c C02J12349   3.892   0.760   8.262
   674G12c H01H12350   3.904   0.780   8.368
   674G12c C02I12351   3.773   0.710   8.207
   674G12c C02N12352   3.670   0.686   8.299
   674G12c H01M12353   3.684   0.656   8.402
   674G12c C02O12354   3.544   0.674   8.251
   674G12c H01L12355   3.516   0.705   8.151
   674G12c C02P12356   3.425   0.637   8.342
   674G12c H01K12357   3.355   0.572   8.290
   674G12c H01J12358   3.449   0.586   8.435
   674G12c O00H12359   3.371   0.761   8.380
   674G12c H01I12360   3.331   0.751   8.465
   674G12c C02H12361   3.761   0.684   8.070
   674G12c H01C12362   3.673   0.639   8.028
   674G12c C02L12363   3.871   0.710   7.986
   674G12c H01D12364   3.862   0.691   7.880
   674G12c C01312365   4.458   1.036   7.646
   674G12c H00012366   4.476   1.094   7.736
   674G12c C01412367   4.507   1.079   7.521
   674G12c C00F12368   4.571   1.204   7.509
   674G12c C00H12369   4.656   1.134   7.295
   674G12c C00I12370   4.736   1.146   7.179
   674G12c C00J12371   4.733   1.044   7.079
   674G12c C00Z12372   4.399   0.797   7.311
   674G12c C00Y12373   4.304   0.694   7.305
   674G12c H00612374   4.246   0.674   7.394
   674G12c C00X12375   4.273   0.628   7.184
   674G12c O00312376   4.183   0.528   7.168
   674G12c C01B12377   4.144   0.463   7.294
   674G12c H00912378   4.101   0.368   7.264
   674G12c H00812379   4.068   0.521   7.346
   674G12c H00712380   4.228   0.444   7.361
   674G12c C00W12381   4.332   0.669   7.069
   674G12c O00412382   4.293   0.603   6.953
   674G12c C01C12383   4.325   0.662   6.836
   674G12c H00A12384   4.292   0.619   6.743
   674G12c C00P12385   4.413   0.772   6.833
   674G12c C00O12386   4.429   0.838   6.707
   674G12c C01D12387   4.320   0.831   6.613
   674G12c H00S12388   4.225   0.788   6.640
   674G12c C01E12389   4.319   0.913   6.494
   674G12c O00812390   4.208   0.940   6.412
   674G12c C01V12391   4.088   0.911   6.469
   674G12c C01Z12392   4.023   1.035   6.535
   674G12c H00R12393   4.051   1.125   6.481
   674G12c H00Q12394   3.914   1.022   6.533
   674G12c O00912395   4.067   1.040   6.665
   674G12c H00P12396   4.160   1.025   6.660
   674G12c C01W12397   4.036   0.786   6.454
   674G12c H00O12398   4.096   0.716   6.396
   674G12c C01X12399   3.901   0.732   6.489
   674G12c H00N12400   3.831   0.815   6.502
   674G12c H00M12401   3.861   0.678   6.403
   674G12c C01Y12402   3.896   0.661   6.620
   674G12c C02D12403   3.868   0.523   6.616
   674G12c H01912404   3.846   0.465   6.528
   674G12c C02C12405   3.871   0.440   6.729
   674G12c H01A12406   3.841   0.336   6.738
   674G12c C02B12407   3.913   0.498   6.849
   674G12c O00E12408   3.921   0.431   6.966
   674G12c H01B12409   3.961   0.500   7.016
   674G12c C02F12410   3.954   0.634   6.857
   674G12c O00F12411   3.960   0.685   6.984
   674G12c C02G12412   3.973   0.824   6.996
   674G12c H01712413   3.882   0.879   6.973
   674G12c H01612414   4.058   0.860   6.938
   674G12c H01512415   3.982   0.840   7.104
   674G12c C02E12416   3.934   0.716   6.745
   674G12c H01812417   3.946   0.823   6.744
   674G12c C01F12418   4.433   0.994   6.462
   674G12c C01G12419   4.427   1.108   6.373
   674G12c H00L12420   4.341   1.144   6.319
   674G12c C01H12421   4.527   1.205   6.381
   674G12c H00B12422   4.493   1.300   6.342
   674G12c C01I12423   4.636   1.188   6.471
   674G12c C01U12424   4.555   0.976   6.531
   674G12c C00S12425   4.642   0.942   7.087
   674G12c C00K12426   4.741   1.079   6.936
   674G12c C00N12427   4.541   0.923   6.661
   674G12c C00012428   4.669   1.057   6.516
   674G12c C01J12429   4.694   1.281   6.561
   674G12c C01K12430   4.679   1.425   6.543
   674G12c C01P12431   4.668   1.499   6.427
   674G12c C01Q12432   4.695   1.433   6.303
   674G12c H00G12433   4.767   1.352   6.304
   674G12c C01R12434   4.632   1.472   6.192
   674G12c H00F12435   4.562   1.555   6.190
   674G12c C01S12436   4.655   1.424   6.049
   674G12c H00E12437   4.708   1.330   6.032
   674G12c H00D12438   4.554   1.418   6.009
   674G12c O00512439   4.729   1.518   5.972
   674G12c H00C12440   4.752   1.484   5.887
   674G12c C01O12441   4.641   1.636   6.425
   674G12c H00H12442   4.614   1.687   6.334
   674G12c C01N12443   4.643   1.704   6.546
   674G12c O00612444   4.619   1.841   6.540
   674G12c C01T12445   4.555   1.905   6.652
   674G12c H00K12446   4.501   1.991   6.611
   674G12c H00J12447   4.623   1.935   6.732
   674G12c H00I12448   4.474   1.843   6.692
   674G12c C01M12449   4.671   1.633   6.667
   674G12c C02012450   4.781   1.215   6.918
   674G12c C02112451   4.821   1.302   7.022
   674G12c C01L12452   4.697   1.491   6.666
   674G12c O00712453   4.655   1.697   6.789
   674G12c C02212454   4.795   1.441   7.016
   674G12c C02312455   4.800   1.265   7.161
   674G12c C00G12456   4.641   1.233   7.390
   674G12c C00E12457   4.556   1.313   7.603
   674G12c O00A12458   4.488   1.310   7.718
   674G12c C02412459   4.346   1.318   7.691
   674G12c H00V12460   4.295   1.249   7.623
   674G12c H00U12461   4.326   1.415   7.647
   674G12c H00T12462   4.288   1.324   7.783
   684G12c C00D12463   6.105   2.965   8.649
   684G12c O00B12464   6.080   2.984   8.783
   684G12c C02512465   6.169   3.061   8.853
   684G12c C02612466   6.128   3.207   8.863
   684G12c H00Y12467   6.177   3.260   8.944
   684G12c H00X12468   6.024   3.210   8.897
   684G12c O00C12469   6.138   3.275   8.734
   684G12c H00W12470   6.227   3.267   8.705
   684G12c C02712471   6.271   3.009   8.919
   684G12c O00D12472   6.294   2.875   8.899
   684G12c H00Z12473   6.217   2.856   8.848
   684G12c C02812474   6.377   3.080   8.995
   684G12c C02912475   6.427   3.210   8.959
   684G12c H01012476   6.389   3.258   8.869
   684G12c C02T12477   0.018   3.260   9.030
   684G12c H01O12478   0.069   3.350   8.999
   684G12c C02S12479   0.070   3.202   9.145
   684G12c O00J12480   0.176   3.257   9.214
   684G12c H01P12481   0.165   3.350   9.222
   684G12c C02R12482   0.017   3.074   9.187
   684G12c O00I12483   0.064   3.028   9.307
   684G12c C02Q12484   0.012   2.901   9.344
   684G12c H01N12485   6.429   2.896   9.377
   684G12c H01R12486   0.065   2.854   9.427
   684G12c H01Q12487   0.017   2.823   9.269
   684G12c C02A12488   6.437   3.010   9.103
   684G12c H01112489   6.408   2.909   9.126
   684G12c C00C12490   6.227   2.980   8.589
   684G12c H01212491   6.315   3.004   8.647
   684G12c C00B12492   6.238   2.976   8.444
   684G12c C00A12493   6.356   3.012   8.369
   684G12c C00912494   6.498   2.993   8.405
   684G12c C00812495   0.052   2.951   8.519
   684G12c H01312496   0.010   2.952   8.618
   684G12c C00712497   0.180   2.899   8.494
   684G12c H01412498   0.250   2.873   8.573
   684G12c C00612499   0.241   2.889   8.368
   684G12c C00512500   0.156   2.929   8.262
   684G12c C00412501   0.190   2.902   8.129
   684G12c C00312502   0.100   2.929   8.019
   684G12c C00212503   0.139   2.888   7.888
   684G12c C00112504   0.068   2.868   7.766
   684G12c C00M12505   6.449   2.823   7.754
   684G12c C00L12506   6.349   2.877   7.834
   684G12c C00R12507   6.215   2.829   7.842
   684G12c C00Q12508   6.155   2.714   7.780
   684G12c C00V12509   6.022   2.706   7.829
   684G12c C00U12510   5.972   2.759   7.947
   684G12c C00T12511   6.046   2.846   8.020
   684G12c C01612512   6.026   2.881   8.151
   684G12c C01512513   5.908   2.832   8.209
   684G12c C01012514   5.812   2.768   8.126
   684G12c C01112515   5.685   2.743   8.186
   684G12c H00512516   5.606   2.697   8.129
   684G12c C01212517   5.655   2.769   8.322
   684G12c C01712518   5.519   2.729   8.372
   684G12c O00212519   5.468   2.610   8.333
   684G12c H00412520   5.536   2.555   8.300
   684G12c C01812521   5.453   2.811   8.455
   684G12c O00112522   5.495   2.938   8.482
   684G12c H00312523   5.444   2.978   8.550
   684G12c C01912524   5.326   2.781   8.525
   684G12c H00212525   5.236   2.830   8.488
   684G12c H00112526   5.318   2.673   8.528
   684G12c O00012527   5.347   2.823   8.662
   684G12c C01A12528   5.241   2.804   8.743
   684G12c C02K12529   5.249   2.862   8.876
   684G12c O00G12530   5.352   2.951   8.902
   684G12c C02M12531   5.406   2.939   9.038
   684G12c H01G12532   5.346   2.997   9.108
   684G12c H01F12533   5.511   2.962   9.051
   684G12c H01E12534   5.394   2.836   9.073
   684G12c C02J12535   5.146   2.844   8.966
   684G12c H01H12536   5.157   2.901   9.057
   684G12c C02I12537   5.036   2.759   8.936
   684G12c C02N12538   4.939   2.740   9.041
   684G12c H01M12539   4.901   2.823   9.099
   684G12c C02O12540   4.890   2.614   9.055
   684G12c H01L12541   4.923   2.544   8.979
   684G12c C02P12542   4.787   2.564   9.161
   684G12c H01K12543   4.695   2.530   9.114
   684G12c H01J12544   4.812   2.472   9.214
   684G12c O00H12545   4.754   2.675   9.239
   684G12c H01I12546   4.772   2.656   9.330
   684G12c C02H12547   5.025   2.707   8.806
   684G12c H01C12548   4.943   2.647   8.770
   684G12c C02L12549   5.126   2.727   8.706
   684G12c H01D12550   5.115   2.676   8.612
   684G12c C01312551   5.758   2.818   8.403
   684G12c H00012552   5.745   2.829   8.509
   684G12c C01412553   5.887   2.854   8.347
   684G12c C00F12554   5.996   2.906   8.427
   684G12c C00H12555   6.128   2.948   8.221
   684G12c C00I12556   6.242   3.000   8.155
   684G12c C00J12557   6.248   2.974   8.020
   684G12c C00Z12558   5.846   2.732   7.992
   684G12c C00Y12559   5.757   2.663   7.911
   684G12c H00612560   5.655   2.646   7.942
   684G12c C00X12561   5.795   2.605   7.787
   684G12c O00312562   5.718   2.522   7.709
   684G12c C01B12563   5.600   2.472   7.771
   684G12c H00912564   5.618   2.423   7.866
   684G12c H00812565   5.578   2.388   7.706
   684G12c H00712566   5.519   2.545   7.779
   684G12c C00W12567   5.933   2.628   7.746
   684G12c O00412568   5.971   2.557   7.637
   684G12c C01C12569   6.105   2.532   7.631
   684G12c H00A12570   6.131   2.435   7.589
   684G12c C00P12571   6.201   2.627   7.680
   684G12c C00O12572   6.336   2.619   7.628
   684G12c C01D12573   6.385   2.500   7.562
   684G12c H00S12574   6.315   2.422   7.534
   684G12c C01E12575   0.003   2.460   7.557
   684G12c O00812576   0.041   2.332   7.532
   684G12c C01V12577   6.475   2.228   7.493
   684G12c C01Z12578   6.519   2.159   7.364
   684G12c H00R12579   6.450   2.081   7.331
   684G12c H00Q12580   0.003   2.228   7.280
   684G12c O00912581   0.124   2.111   7.366
   684G12c H00P12582   0.168   2.161   7.434
   684G12c C01W12583   6.370   2.188   7.572
   684G12c H00O12584   6.345   2.243   7.662
   684G12c C01X12585   6.271   2.082   7.530
   684G12c H00N12586   6.322   2.004   7.473
   684G12c H00M12587   6.226   2.026   7.612
   684G12c C01Y12588   6.161   2.152   7.452
   684G12c C02D12589   6.183   2.205   7.322
   684G12c H01912590   6.274   2.180   7.269
   684G12c C02C12591   6.087   2.280   7.264
   684G12c H01A12592   6.111   2.311   7.163
   684G12c C02B12593   5.962   2.292   7.322
   684G12c O00E12594   5.866   2.373   7.254
   684G12c H01B12595   5.803   2.393   7.321
   684G12c C02F12596   5.933   2.241   7.450
   684G12c O00F12597   5.811   2.266   7.503
   684G12c C02G12598   5.754   2.164   7.592
   684G12c H01712599   5.801   2.156   7.690
   684G12c H01612600   5.741   2.067   7.544
   684G12c H01512601   5.652   2.198   7.610
   684G12c C02E12602   6.037   2.171   7.517
   684G12c H01812603   6.017   2.141   7.619
   684G12c C01F12604   0.096   2.551   7.604
   684G12c C01G12605   0.226   2.517   7.642
   684G12c H00L12606   0.263   2.416   7.628
   684G12c C01H12607   0.314   2.610   7.708
   684G12c H00B12608   0.403   2.565   7.750
   684G12c C01I12609   0.264   2.737   7.746
   684G12c C01U12610   0.058   2.680   7.635
   684G12c C00S12611   6.161   2.897   7.952
   684G12c C00K12612   6.374   2.954   7.956
   684G12c C00N12613   6.443   2.707   7.667
   684G12c C00012614   0.144   2.780   7.683
   684G12c C01J12615   0.261   2.809   7.875
   684G12c C01K12616   0.367   2.809   7.980
   684G12c C01P12617   0.502   2.775   7.965
   684G12c C01Q12618   0.560   2.762   7.837
   684G12c H00G12619   0.531   2.835   7.763
   684G12c C01R12620   0.658   2.677   7.806
   684G12c H00F12621   0.698   2.606   7.877
   684G12c C01S12622   0.722   2.681   7.672
   684G12c H00E12623   0.687   2.605   7.602
   684G12c H00D12624   0.707   2.777   7.621
   684G12c O00512625   0.857   2.665   7.673
   684G12c H00C12626   0.899   2.748   7.691
   684G12c C01O12627   0.592   2.770   8.075
   684G12c H00H12628   0.697   2.758   8.055
   684G12c C01N12629   0.545   2.802   8.202
   684G12c O00612630   0.631   2.783   8.312
   684G12c C01T12631   0.775   2.803   8.290
   684G12c H00K12632   0.835   2.801   8.381
   684G12c H00J12633   0.795   2.905   8.255
   684G12c H00I12634   0.822   2.738   8.215
   684G12c C01M12635   0.408   2.828   8.219
   684G12c C02012636   6.489   2.967   8.048
   684G12c C02112637   6.472   3.029   8.176
   684G12c C01L12638   0.319   2.847   8.106
   684G12c O00712639   0.362   2.832   8.348
   684G12c C02212640   0.037   2.997   8.277
   684G12c C02312641   6.345   3.049   8.235
   684G12c C00G12642   6.120   2.952   8.363
   684G12c C00E12643   5.990   2.930   8.571
   684G12c O00A12644   5.871   2.920   8.643
   684G12c C02412645   5.809   3.043   8.659
   684G12c H00V12646   5.716   3.021   8.711
   684G12c H00U12647   5.788   3.102   8.569
   684G12c H00T12648   5.869   3.109   8.721
   694G12c C00D12649   4.174   3.472   8.501
   694G12c O00B12650   4.130   3.491   8.634
   694G12c C02512651   4.105   3.621   8.677
   694G12c C02612652   3.959   3.653   8.651
   694G12c H00Y12653   3.910   3.728   8.712
   694G12c H00X12654   3.907   3.561   8.677
   694G12c O00C12655   3.928   3.696   8.519
   694G12c H00W12656   3.910   3.624   8.461
   694G12c C02712657   4.197   3.687   8.750
   694G12c O00D12658   4.313   3.618   8.774
   694G12c H00Z12659   4.291   3.528   8.756
   694G12c C02812660   4.173   3.811   8.813
   694G12c C02912661   4.100   3.917   8.749
   694G12c H01012662   4.060   3.894   8.652
   694G12c C02T12663   4.077   4.041   8.820
   694G12c H01O12664   4.024   4.125   8.779
   694G12c C02S12665   4.125   4.055   8.951
   694G12c O00J12666   4.111   4.171   9.013
   694G12c H01P12667   4.145   4.180   9.101
   694G12c C02R12668   4.200   3.956   9.015
   694G12c O00I12669   4.264   3.978   9.141
   694G12c C02Q12670   4.339   3.873   9.196
   694G12c H01N12671   4.262   3.802   9.227
   694G12c H01R12672   4.389   3.911   9.285
   694G12c H01Q12673   4.407   3.822   9.128
   694G12c C02A12674   4.220   3.828   8.947
   694G12c H01112675   4.273   3.740   8.981
   694G12c C00C12676   4.224   3.572   8.427
   694G12c H01212677   4.222   3.673   8.464
   694G12c C00B12678   4.283   3.551   8.301
   694G12c C00A12679   4.360   3.648   8.229
   694G12c C00912680   4.360   3.797   8.234
   694G12c C00812681   4.290   3.891   8.304
   694G12c H01312682   4.249   3.865   8.400
   694G12c C00712683   4.268   4.022   8.247
   694G12c H01412684   4.226   4.102   8.306
   694G12c C00612685   4.312   4.053   8.112
   694G12c C00512686   4.365   3.941   8.042
   694G12c C00412687   4.383   3.945   7.901
   694G12c C00312688   4.428   3.830   7.834
   694G12c C00212689   4.430   3.833   7.688
   694G12c C00112690   4.456   3.736   7.581
   694G12c C00M12691   4.405   3.605   7.580
   694G12c C00L12692   4.417   3.524   7.693
   694G12c C00R12693   4.364   3.391   7.709
   694G12c C00Q12694   4.280   3.307   7.625
   694G12c C00V12695   4.234   3.190   7.695
   694G12c C00U12696   4.242   3.172   7.834
   694G12c C00T12697   4.304   3.264   7.915
   694G12c C01612698   4.285   3.277   8.049
   694G12c C01512699   4.216   3.182   8.116
   694G12c C01012700   4.178   3.069   8.043
   694G12c C01112701   4.128   2.959   8.117
   694G12c H00512702   4.100   2.866   8.069
   694G12c C01212703   4.101   2.962   8.255
   694G12c C01712704   4.050   2.846   8.324
   694G12c O00212705   4.128   2.790   8.423
   694G12c H00412706   4.069   2.724   8.456
   694G12c C01812707   3.929   2.801   8.284
   694G12c O00112708   3.853   2.855   8.187
   694G12c H00312709   3.902   2.924   8.144
   694G12c C01912710   3.861   2.680   8.344
   694G12c H00212711   3.753   2.693   8.332
   694G12c H00112712   3.893   2.597   8.282
   694G12c O00012713   3.911   2.644   8.469
   694G12c C01A12714   3.865   2.532   8.529
   694G12c C02K12715   3.924   2.493   8.649
   694G12c O00G12716   4.032   2.567   8.695
   694G12c C02M12717   4.001   2.671   8.777
   694G12c H01G12718   3.928   2.743   8.740
   694G12c H01F12719   4.095   2.725   8.785
   694G12c H01E12720   3.970   2.643   8.878
   694G12c C02J12721   3.880   2.365   8.706
   694G12c H01H12722   3.930   2.320   8.791
   694G12c C02I12723   3.788   2.280   8.648
   694G12c C02N12724   3.749   2.155   8.707
   694G12c H01M12725   3.765   2.144   8.813
   694G12c C02O12726   3.683   2.062   8.635
   694G12c H01L12727   3.676   2.071   8.528
   694G12c C02P12728   3.636   1.926   8.688
   694G12c H01K12729   3.684   1.849   8.628
   694G12c H01J12730   3.662   1.904   8.792
   694G12c O00H12731   3.496   1.906   8.665
   694G12c H01I12732   3.471   1.829   8.713
   694G12c C02H12733   3.729   2.327   8.526
   694G12c H01C12734   3.652   2.275   8.471
   694G12c C02L12735   3.764   2.452   8.469
   694G12c H01D12736   3.720   2.478   8.373
   694G12c C01312737   4.132   3.079   8.321
   694G12c H00012738   4.111   3.076   8.427
   694G12c C01412739   4.186   3.192   8.253
   694G12c C00F12740   4.218   3.317   8.314
   694G12c C00H12741   4.328   3.392   8.114
   694G12c C00I12742   4.409   3.490   8.047
   694G12c C00J12743   4.434   3.467   7.912
   694G12c C00Z12744   4.179   3.068   7.900
   694G12c C00Y12745   4.117   2.975   7.819
   694G12c H00612746   4.084   2.888   7.874
   694G12c C00X12747   4.111   2.989   7.681
   694G12c O00312748   4.052   2.889   7.604
   694G12c C01B12749   4.001   2.768   7.661
   694G12c H00912750   3.948   2.705   7.589
   694G12c H00812751   3.927   2.788   7.739
   694G12c H00712752   4.072   2.696   7.702
   694G12c C00W12753   4.159   3.101   7.620
   694G12c O00412754   4.121   3.116   7.491
   694G12c C01C12755   4.175   3.222   7.422
   694G12c H00A12756   4.179   3.208   7.315
   694G12c C00P12757   4.232   3.333   7.493
   694G12c C00O12758   4.239   3.466   7.426
   694G12c C01D12759   4.148   3.493   7.319
   694G12c H00S12760   4.070   3.424   7.289
   694G12c C01E12761   4.116   3.623   7.286
   694G12c O00812762   4.007   3.658   7.210
   694G12c C01V12763   3.891   3.589   7.245
   694G12c C01Z12764   3.821   3.634   7.375
   694G12c H00R12765   3.850   3.737   7.396
   694G12c H00Q12766   3.713   3.639   7.359
   694G12c O00912767   3.839   3.547   7.481
   694G12c H00P12768   3.932   3.544   7.495
   694G12c C01W12769   3.831   3.496   7.165
   694G12c H00O12770   3.879   3.468   7.072
   694G12c C01X12771   3.696   3.429   7.177
   694G12c H00N12772   3.624   3.494   7.227
   694G12c H00M12773   3.648   3.416   7.080
   694G12c C01Y12774   3.730   3.287   7.233
   694G12c C02D12775   3.745   3.178   7.139
   694G12c H01912776   3.720   3.185   7.035
   694G12c C02C12777   3.806   3.060   7.188
   694G12c H01A12778   3.824   2.983   7.115
   694G12c C02B12779   3.841   3.040   7.328
   694G12c O00E12780   3.903   2.928   7.367
   694G12c H01B12781   3.931   2.923   7.457
   694G12c C02F12782   3.803   3.141   7.417
   694G12c O00F12783   3.840   3.125   7.549
   694G12c C02G12784   3.756   3.030   7.611
   694G12c H01712785   3.648   3.044   7.606
   694G12c H01612786   3.785   3.019   7.716
   694G12c H01512787   3.760   2.926   7.578
   694G12c C02E12788   3.743   3.261   7.374
   694G12c H01812789   3.729   3.345   7.440
   694G12c C01F12790   4.195   3.728   7.336
   694G12c C01G12791   4.164   3.869   7.324
   694G12c H00L12792   4.073   3.907   7.281
   694G12c C01H12793   4.236   3.955   7.411
   694G12c H00B12794   4.180   4.045   7.432
   694G12c C01I12795   4.344   3.909   7.492
   694G12c C01U12796   4.320   3.701   7.396
   694G12c C00S12797   4.381   3.362   7.846
   694G12c C00K12798   4.450   3.575   7.822
   694G12c C00N12799   4.319   3.580   7.464
   694G12c C00012800   4.407   3.787   7.455
   694G12c C01J12801   4.378   3.949   7.627
   694G12c C01K12802   4.345   4.074   7.690
   694G12c C01P12803   4.317   4.210   7.634
   694G12c C01Q12804   4.317   4.233   7.490
   694G12c H00G12805   4.393   4.196   7.423
   694G12c C01R12806   4.221   4.309   7.438
   694G12c H00F12807   4.147   4.354   7.503
   694G12c C01S12808   4.222   4.335   7.289
   694G12c H00E12809   4.211   4.442   7.276
   694G12c H00D12810   4.313   4.314   7.233
   694G12c O00512811   4.116   4.256   7.244
   694G12c H00C12812   4.084   4.299   7.166
   694G12c C01O12813   4.297   4.321   7.714
   694G12c H00H12814   4.272   4.421   7.681
   694G12c C01N12815   4.288   4.305   7.849
   694G12c O00612816   4.254   4.417   7.924
   694G12c C01T12817   4.355   4.459   8.016
   694G12c H00K12818   4.299   4.514   8.092
   694G12c H00J12819   4.422   4.531   7.970
   694G12c H00I12820   4.409   4.382   8.070
   694G12c C01M12821   4.309   4.181   7.911
   694G12c C02012822   4.448   3.702   7.892
   694G12c C02112823   4.462   3.719   8.030
   694G12c C01L12824   4.344   4.064   7.834
   694G12c O00712825   4.286   4.173   8.047
   694G12c C02212826   4.413   3.830   8.102
   694G12c C02312827   4.428   3.611   8.113
   694G12c C00G12828   4.279   3.418   8.243
   694G12c C00E12829   4.192   3.343   8.452
   694G12c O00A12830   4.171   3.245   8.544
   694G12c C02412831   4.288   3.185   8.589
   694G12c H00V12832   4.334   3.124   8.511
   694G12c H00U12833   4.274   3.130   8.682
   694G12c H00T12834   4.375   3.249   8.601
   704G12c C00D12835   2.999   4.156   8.694
   704G12c O00B12836   3.102   4.217   8.620
   704G12c C02512837   3.109   4.203   8.481
   704G12c C02612838   3.230   4.119   8.440
   704G12c H00Y12839   3.199   4.066   8.350
   704G12c H00X12840   3.237   4.035   8.509
   704G12c O00C12841   3.344   4.205   8.429
   704G12c H00W12842   3.396   4.166   8.361
   704G12c C02712843   3.031   4.277   8.401
   704G12c O00D12844   2.939   4.365   8.454
   704G12c H00Z12845   2.979   4.396   8.534
   704G12c C02812846   3.037   4.263   8.260
   704G12c C02912847   2.931   4.204   8.188
   704G12c H01012848   2.849   4.161   8.243
   704G12c C02T12849   2.946   4.186   8.051
   704G12c H01O12850   2.864   4.142   7.996
   704G12c C02S12851   3.064   4.222   7.985
   704G12c O00J12852   3.079   4.201   7.850
   704G12c H01P12853   3.173   4.194   7.840
   704G12c C02R12854   3.166   4.284   8.055
   704G12c O00I12855   3.277   4.322   7.986
   704G12c C02Q12856   3.379   4.390   8.045
   704G12c H01N12857   3.415   4.321   8.121
   704G12c H01R12858   3.352   4.489   8.082
   704G12c H01Q12859   3.459   4.393   7.971
   704G12c C02A12860   3.153   4.300   8.192
   704G12c H01112861   3.234   4.344   8.249
   704G12c C00C12862   2.904   4.070   8.637
   704G12c H01212863   2.899   4.050   8.531
   704G12c C00B12864   2.799   4.017   8.713
   704G12c C00A12865   2.692   3.926   8.671
   704G12c C00912866   2.612   3.918   8.552
   704G12c C00812867   2.616   3.968   8.417
   704G12c H01312868   2.704   4.023   8.386
   704G12c C00712869   2.499   3.966   8.335
   704G12c H01412870   2.500   4.008   8.236
   704G12c C00612871   2.378   3.908   8.379
   704G12c C00512872   2.378   3.855   8.512
   704G12c C00412873   2.264   3.808   8.574
   704G12c C00312874   2.267   3.783   8.712
   704G12c C00212875   2.140   3.754   8.776
   704G12c C00112876   2.101   3.736   8.912
   704G12c C00M12877   2.152   3.812   9.025
   704G12c C00L12878   2.289   3.810   9.050
   704G12c C00R12879   2.351   3.896   9.149
   704G12c C00Q12880   2.292   3.990   9.240
   704G12c C00V12881   2.393   4.077   9.299
   704G12c C00U12882   2.526   4.093   9.253
   704G12c C00T12883   2.572   4.017   9.150
   704G12c C01612884   2.674   4.060   9.064
   704G12c C01512885   2.755   4.156   9.113
   704G12c C01012886   2.727   4.220   9.237
   704G12c C01112887   2.815   4.314   9.287
   704G12c H00512888   2.814   4.356   9.386
   704G12c C01212889   2.917   4.360   9.209
   704G12c C01712890   3.010   4.450   9.270
   704G12c O00212891   3.113   4.396   9.332
   704G12c H00412892   3.079   4.329   9.389
   704G12c C01812893   2.991   4.584   9.249
   704G12c O00112894   2.876   4.642   9.184
   704G12c H00312895   2.890   4.734   9.168
   704G12c C01912896   3.097   4.689   9.294
   704G12c H00212897   3.081   4.715   9.399
   704G12c H00112898   3.189   4.633   9.280
   704G12c O00012899   3.098   4.812   9.218
   704G12c C01A12900   3.196   4.908   9.247
   704G12c C02K12901   3.183   5.032   9.178
   704G12c O00G12902   3.081   5.039   9.095
   704G12c C02M12903   3.057   5.168   9.034
   704G12c H01G12904   3.133   5.207   8.966
   704G12c H01F12905   3.030   5.247   9.105
   704G12c H01E12906   2.969   5.147   8.974
   704G12c C02J12907   3.285   5.135   9.198
   704G12c H01H12908   3.299   5.221   9.134
   704G12c C02I12909   3.390   5.115   9.290
   704G12c C02N12910   3.497   5.210   9.311
   704G12c H01M12911   3.601   5.182   9.325
   704G12c C02O12912   3.462   5.341   9.302
   704G12c H01L12913   3.359   5.367   9.281
   704G12c C02P12914   3.558   5.452   9.329
   704G12c H01K12915   3.627   5.475   9.248
   704G12c H01J12916   3.503   5.546   9.342
   704G12c O00H12917   3.643   5.427   9.440
   704G12c H01I12918   3.671   5.516   9.454
   704G12c C02H12919   3.401   4.987   9.353
   704G12c H01C12920   3.485   4.962   9.415
   704G12c C02L12921   3.304   4.886   9.336
   704G12c H01D12922   3.327   4.791   9.381
   704G12c C01312923   2.937   4.311   9.082
   704G12c H00012924   3.010   4.370   9.028
   704G12c C01412925   2.865   4.199   9.037
   704G12c C00F12926   2.886   4.143   8.911
   704G12c C00H12927   2.693   4.001   8.937
   704G12c C00I12928   2.611   3.894   8.898
   704G12c C00J12929   2.506   3.857   8.988
   704G12c C00Z12930   2.606   4.200   9.299
   704G12c C00Y12931   2.558   4.279   9.406
   704G12c H00612932   2.622   4.358   9.441
   704G12c C00X12933   2.434   4.257   9.464
   704G12c O00312934   2.390   4.333   9.569
   704G12c C01B12935   2.483   4.409   9.648
   704G12c H00912936   2.426   4.465   9.722
   704G12c H00812937   2.524   4.489   9.586
   704G12c H00712938   2.566   4.354   9.691
   704G12c C00W12939   2.347   4.167   9.401
   704G12c O00412940   2.227   4.162   9.465
   704G12c C01C12941   2.127   4.105   9.386
   704G12c H00A12942   2.034   4.099   9.441
   704G12c C00P12943   2.156   4.024   9.269
   704G12c C00O12944   2.043   3.984   9.194
   704G12c C01D12945   1.920   4.055   9.206
   704G12c H00S12946   1.908   4.131   9.281
   704G12c C01E12947   1.820   4.047   9.105
   704G12c O00812948   1.716   4.142   9.101
   704G12c C01V12949   1.727   4.260   9.171
   704G12c C01Z12950   1.783   4.373   9.090
   704G12c H00R12951   1.817   4.341   8.992
   704G12c H00Q12952   1.711   4.456   9.087
   704G12c O00912953   1.894   4.424   9.158
   704G12c H00P12954   1.952   4.349   9.153
   704G12c C01W12955   1.693   4.267   9.301
   704G12c H00O12956   1.661   4.172   9.340
   704G12c C01X12957   1.704   4.380   9.403
   704G12c H00N12958   1.742   4.471   9.357
   704G12c H00M12959   1.604   4.395   9.444
   704G12c C01Y12960   1.801   4.341   9.516
   704G12c C02D12961   1.937   4.384   9.513
   704G12c H01912962   1.967   4.444   9.428
   704G12c C02C12963   2.028   4.359   9.616
   704G12c H01A12964   2.126   4.404   9.612
   704G12c C02B12965   1.990   4.278   9.720
   704G12c O00E12966   2.074   4.252   9.820
   704G12c H01B12967   2.037   4.178   9.866
   704G12c C02F12968   1.863   4.218   9.722
   704G12c O00F12969   1.842   4.132   9.824
   704G12c C02G12970   1.706   4.079   9.830
   704G12c H01712971   1.696   4.017   9.740
   704G12c H01612972   1.625   4.151   9.843
   704G12c H01512973   1.697   4.004   9.909
   704G12c C02E12974   1.761   4.258   9.628
   704G12c H01812975   1.662   4.217   9.636
   704G12c C01F12976   1.830   3.950   9.005
   704G12c C01G12977   1.745   3.936   8.892
   704G12c H00L12978   1.651   3.990   8.896
   704G12c C01H12979   1.791   3.865   8.773
   704G12c H00B12980   1.735   3.882   8.683
   704G12c C01I12981   1.907   3.789   8.791
   704G12c C01U12982   1.936   3.857   9.011
   704G12c C00S12983   2.489   3.909   9.118
   704G12c C00K12984   2.385   3.800   8.943
   704G12c C00N12985   2.044   3.883   9.096
   704G12c C00012986   1.961   3.759   8.916
   704G12c C01J12987   2.020   3.769   8.700
   704G12c C01K12988   2.015   3.777   8.554
   704G12c C01P12989   1.907   3.773   8.464
   704G12c C01Q12990   1.776   3.718   8.496
   704G12c H00G12991   1.683   3.760   8.460
   704G12c C01R12992   1.775   3.599   8.570
   704G12c H00F12993   1.866   3.549   8.599
   704G12c C01S12994   1.647   3.525   8.609
   704G12c H00E12995   1.572   3.600   8.583
   704G12c H00D12996   1.638   3.430   8.556
   704G12c O00512997   1.639   3.508   8.743
   704G12c H00C12998   1.660   3.418   8.761
   704G12c C01O12999   1.917   3.802   8.331
   704G12c H00H13000   1.835   3.786   8.264
   704G12c C01N13001   2.041   3.836   8.272
   704G12c O00613002   2.037   3.849   8.132
   704G12c C01T13003   2.153   3.895   8.064
   704G12c H00K13004   2.232   3.819   8.065
   704G12c H00J13005   2.190   3.985   8.114
   704G12c H00I13006   2.132   3.917   7.960
   704G12c C01M13007   2.152   3.842   8.356
   704G12c C02013008   2.378   3.795   8.797
   704G12c C02113009   2.500   3.804   8.718
   704G12c C01L13010   2.142   3.804   8.498
   704G12c O00713011   2.268   3.890   8.302
   704G12c C02213012   2.495   3.850   8.592
   704G12c C02313013   2.626   3.847   8.771
   704G12c C00G13014   2.796   4.051   8.853
   704G12c C00E13015   2.998   4.181   8.833
   704G12c O00A13016   3.112   4.243   8.879
   704G12c C02413017   3.205   4.168   8.954
   704G12c H00V13018   3.267   4.104   8.891
   704G12c H00U13019   3.164   4.101   9.030
   704G12c H00T13020   3.271   4.245   8.992
   714G12c C00D13021   3.944   1.351   6.237
   714G12c O00B13022   4.025   1.410   6.146
   714G12c C02513023   4.121   1.502   6.197
   714G12c C02613024   4.256   1.434   6.225
   714G12c H00Y13025   4.331   1.461   6.150
   714G12c H00X13026   4.242   1.326   6.228
   714G12c O00C13027   4.313   1.479   6.343
   714G12c H00W13028   4.351   1.565   6.332
   714G12c C02713029   4.086   1.633   6.200
   714G12c O00D13030   3.960   1.663   6.175
   714G12c H00Z13031   3.913   1.589   6.141
   714G12c C02813032   4.177   1.734   6.232
   714G12c C02913033   4.159   1.815   6.349
   714G12c H01013034   4.076   1.797   6.416
   714G12c C02T13035   4.265   1.895   6.398
   714G12c H01O13036   4.254   1.961   6.483
   714G12c C02S13037   4.380   1.907   6.327
   714G12c O00J13038   4.471   2.004   6.350
   714G12c H01P13039   4.526   1.995   6.274
   714G12c C02R13040   4.398   1.843   6.207
   714G12c O00I13041   4.519   1.869   6.143
   714G12c C02Q13042   4.544   1.810   6.019
   714G12c H01N13043   4.528   1.703   6.023
   714G12c H01R13044   4.645   1.825   5.981
   714G12c H01Q13045   4.470   1.854   5.952
   714G12c C02A13046   4.297   1.752   6.161
   714G12c H01113047   4.307   1.700   6.066
   714G12c C00C13048   3.930   1.398   6.371
   714G12c H01213049   3.990   1.476   6.414
   714G12c C00B13050   3.843   1.328   6.457
   714G12c C00A13051   3.840   1.345   6.595
   714G12c C00913052   3.946   1.393   6.678
   714G12c C00813053   4.084   1.422   6.669
   714G12c H01313054   4.133   1.438   6.575
   714G12c C00713055   4.161   1.400   6.785
   714G12c H01413056   4.268   1.418   6.781
   714G12c C00613057   4.106   1.366   6.908
   714G12c C00513058   3.969   1.342   6.912
   714G12c C00413059   3.912   1.267   7.022
   714G12c C00313060   3.784   1.204   7.009
   714G12c C00213061   3.734   1.123   7.116
   714G12c C00113062   3.621   1.036   7.140
   714G12c C00M13063   3.582   0.942   7.039
   714G12c C00L13064   3.574   0.978   6.903
   714G12c C00R13065   3.530   0.899   6.795
   714G12c C00Q13066   3.521   0.757   6.783
   714G12c C00V13067   3.511   0.715   6.644
   714G12c C00U13068   3.540   0.798   6.533
   714G12c C00T13069   3.562   0.929   6.546
   714G12c C01613070   3.620   1.021   6.457
   714G12c C01513071   3.655   0.964   6.333
   714G12c C01013072   3.619   0.830   6.304
   714G12c C01113073   3.654   0.771   6.181
   714G12c H00513074   3.621   0.673   6.150
   714G12c C01213075   3.726   0.844   6.090
   714G12c C01713076   3.764   0.783   5.966
   714G12c O00213077   3.829   0.661   5.971
   714G12c H00413078   3.867   0.650   5.885
   714G12c C01813079   3.749   0.847   5.850
   714G12c O00113080   3.689   0.974   5.850
   714G12c H00313081   3.633   0.972   5.926
   714G12c C01913082   3.777   0.774   5.718
   714G12c H00213083   3.691   0.712   5.690
   714G12c H00113084   3.780   0.859   5.649
   714G12c O00013085   3.903   0.708   5.711
   714G12c C01A13086   3.984   0.727   5.602
   714G12c C02K13087   3.949   0.678   5.476
   714G12c O00G13088   3.832   0.612   5.464
   714G12c C02M13089   3.734   0.677   5.386
   714G12c H01G13090   3.768   0.695   5.284
   714G12c H01F13091   3.714   0.775   5.429
   714G12c H01E13092   3.638   0.625   5.387
   714G12c C02J13093   4.036   0.698   5.365
   714G12c H01H13094   4.009   0.643   5.275
   714G12c C02I13095   4.157   0.768   5.368
   714G12c C02N13096   4.254   0.786   5.261
   714G12c H01M13097   4.354   0.825   5.271
   714G12c C02O13098   4.230   0.739   5.138
   714G12c H01L13099   4.134   0.692   5.123
   714G12c C02P13100   4.335   0.752   5.028
   714G12c H01K13101   4.403   0.836   5.044
   714G12c H01J13102   4.391   0.659   5.040
   714G12c O00H13103   4.271   0.782   4.905
   714G12c H01I13104   4.213   0.855   4.923
   714G12c C02H13105   4.189   0.813   5.500
   714G12c H01C13106   4.268   0.885   5.517
   714G12c C02L13107   4.107   0.792   5.618
   714G12c H01D13108   4.141   0.828   5.714
   714G12c C01313109   3.773   0.974   6.128
   714G12c H00013110   3.837   1.023   6.056
   714G12c C01413111   3.733   1.037   6.249
   714G12c C00F13112   3.783   1.167   6.282
   714G12c C00H13113   3.670   1.148   6.502
   714G12c C00I13114   3.649   1.191   6.631
   714G12c C00J13115   3.574   1.109   6.717
   714G12c C00Z13116   3.563   0.748   6.406
   714G12c C00Y13117   3.540   0.612   6.383
   714G12c H00613118   3.554   0.561   6.290
   714G12c C00X13119   3.505   0.522   6.485
   714G12c O00313120   3.504   0.388   6.452
   714G12c C01B13121   3.387   0.317   6.504
   714G12c H00913122   3.335   0.300   6.410
   714G12c H00813123   3.321   0.363   6.578
   714G12c H00713124   3.407   0.221   6.551
   714G12c C00W13125   3.498   0.575   6.616
   714G12c O00413126   3.499   0.481   6.719
   714G12c C01C13127   3.519   0.519   6.847
   714G12c H00A13128   3.504   0.449   6.928
   714G12c C00P13129   3.538   0.658   6.886
   714G12c C00O13130   3.587   0.684   7.019
   714G12c C01D13131   3.648   0.581   7.091
   714G12c H00S13132   3.676   0.485   7.051
   714G12c C01E13133   3.711   0.593   7.219
   714G12c O00813134   3.766   0.487   7.285
   714G12c C01V13135   3.693   0.367   7.277
   714G12c C01Z13136   3.779   0.240   7.298
   714G12c H00R13137   3.859   0.271   7.366
   714G12c H00Q13138   3.726   0.150   7.332
   714G12c O00913139   3.829   0.206   7.174
   714G12c H00P13140   3.884   0.278   7.145
   714G12c C01W13141   3.552   0.356   7.270
   714G12c H00O13142   3.489   0.443   7.267
   714G12c C01X13143   3.462   0.231   7.268
   714G12c H00N13144   3.523   0.141   7.278
   714G12c H00M13145   3.387   0.240   7.346
   714G12c C01Y13146   3.391   0.212   7.127
   714G12c C02D13147   3.468   0.197   7.009
   714G12c H01913148   3.575   0.201   7.003
   714G12c C02C13149   3.397   0.175   6.887
   714G12c H01A13150   3.466   0.171   6.804
   714G12c C02B13151   3.257   0.182   6.882
   714G12c O00E13152   3.192   0.174   6.764
   714G12c H01B13153   3.100   0.184   6.784
   714G12c C02F13154   3.181   0.208   7.001
   714G12c O00F13155   3.045   0.213   6.986
   714G12c C02G13156   2.956   0.169   7.090
   714G12c H01713157   2.974   0.225   7.182
   714G12c H01613158   2.968   0.063   7.113
   714G12c H01513159   2.852   0.178   7.058
   714G12c C02E13160   3.248   0.221   7.122
   714G12c H01813161   3.201   0.238   7.218
   714G12c C01F13162   3.725   0.722   7.274
   714G12c C01G13163   3.814   0.767   7.373
   714G12c H00L13164   3.872   0.692   7.425
   714G12c C01H13165   3.848   0.902   7.393
   714G12c H00B13166   3.940   0.930   7.442
   714G12c C01I13167   3.782   0.996   7.309
   714G12c C01U13168   3.654   0.827   7.212
   714G12c C00S13169   3.531   0.980   6.676
   714G12c C00K13170   3.609   1.107   6.852
   714G12c C00N13171   3.597   0.808   7.086
   714G12c C00013172   3.662   0.962   7.250
   714G12c C01J13173   3.817   1.112   7.232
   714G12c C01K13174   3.940   1.182   7.252
   714G12c C01P13175   4.008   1.208   7.374
   714G12c C01Q13176   3.941   1.187   7.499
   714G12c H00G13177   3.838   1.215   7.516
   714G12c C01R13178   4.014   1.135   7.595
   714G12c H00F13179   4.115   1.114   7.563
   714G12c C01S13180   3.971   1.104   7.736
   714G12c H00E13181   3.878   1.158   7.755
   714G12c H00D13182   3.960   0.998   7.761
   714G12c O00513183   4.060   1.167   7.823
   714G12c H00C13184   4.148   1.147   7.794
   714G12c C01O13185   4.135   1.276   7.369
   714G12c H00H13186   4.196   1.303   7.454
   714G12c C01N13187   4.199   1.315   7.251
   714G12c O00613188   4.334   1.353   7.255
   714G12c C01T13189   4.403   1.385   7.132
   714G12c H00K13190   4.354   1.465   7.078
   714G12c H00J13191   4.400   1.295   7.070
   714G12c H00I13192   4.509   1.407   7.143
   714G12c C01M13193   4.122   1.299   7.134
   714G12c C02013194   3.704   1.209   6.891
   714G12c C02113195   3.754   1.312   6.805
   714G12c C01L13196   3.986   1.248   7.135
   714G12c O00713197   4.181   1.333   7.013
   714G12c C02213198   3.882   1.366   6.806
   714G12c C02313199   3.731   1.296   6.668
   714G12c C00G13200   3.763   1.217   6.413
   714G12c C00E13201   3.862   1.246   6.194
   714G12c O00A13202   3.865   1.224   6.059
   714G12c C02413203   3.761   1.280   5.983
   714G12c H00V13204   3.764   1.389   5.974
   714G12c H00U13205   3.668   1.260   6.037
   714G12c H00T13206   3.764   1.221   5.892
   724G12c C00D13207   2.269   3.967   7.378
   724G12c O00B13208   2.300   3.833   7.382
   724G12c C02513209   2.205   3.749   7.433
   724G12c C02613210   2.119   3.682   7.321
   724G12c H00Y13211   2.077   3.585   7.348
   724G12c H00X13212   2.188   3.642   7.248
   724G12c O00C13213   2.015   3.767   7.268
   724G12c H00W13214   1.937   3.766   7.320
   724G12c C02713215   2.208   3.720   7.562
   724G12c O00D13216   2.289   3.785   7.645
   724G12c H00Z13217   2.331   3.853   7.594
   724G12c C02813218   2.094   3.642   7.609
   724G12c C02913219   2.091   3.506   7.594
   724G12c H01013220   2.156   3.456   7.524
   724G12c C02T13221   1.979   3.427   7.638
   724G12c H01O13222   1.976   3.321   7.619
   724G12c C02S13223   1.880   3.477   7.725
   724G12c O00J13224   1.782   3.399   7.769
   724G12c H01P13225   1.719   3.455   7.812
   724G12c C02R13226   1.887   3.617   7.744
   724G12c O00I13227   1.785   3.679   7.812
   724G12c C02Q13228   1.819   3.794   7.886
   724G12c H01N13229   1.913   3.770   7.935
   724G12c H01R13230   1.735   3.810   7.953
   724G12c H01Q13231   1.828   3.884   7.826
   724G12c C02A13232   1.993   3.695   7.689
   724G12c H01113233   2.011   3.799   7.713
   724G12c C00C13234   2.207   4.012   7.265
   724G12c H01213235   2.191   3.934   7.193
   724G12c C00B13236   2.187   4.152   7.242
   724G12c C00A13237   2.133   4.218   7.126
   724G12c C00913238   2.147   4.182   6.983
   724G12c C00813239   2.204   4.072   6.919
   724G12c H01313240   2.221   3.974   6.962
   724G12c C00713241   2.229   4.089   6.781
   724G12c H01413242   2.267   4.007   6.722
   724G12c C00613243   2.218   4.212   6.712
   724G12c C00513244   2.158   4.321   6.780
   724G12c C00413245   2.184   4.456   6.741
   724G12c C00313246   2.174   4.555   6.836
   724G12c C00213247   2.207   4.691   6.784
   724G12c C00113248   2.219   4.822   6.845
   724G12c C00M13249   2.280   4.834   6.976
   724G12c C00L13250   2.250   4.753   7.087
   724G12c C00R13251   2.315   4.755   7.210
   724G12c C00Q13252   2.443   4.811   7.246
   724G12c C00V13253   2.477   4.774   7.377
   724G12c C00U13254   2.417   4.669   7.447
   724G12c C00T13255   2.312   4.599   7.395
   724G12c C01613256   2.282   4.463   7.420
   724G12c C01513257   2.348   4.409   7.528
   724G12c C01013258   2.432   4.490   7.613
   724G12c C01113259   2.465   4.442   7.740
   724G12c H00513260   2.509   4.514   7.808
   724G12c C01213261   2.432   4.314   7.786
   724G12c C01713262   2.450   4.276   7.922
   724G12c O00213263   2.343   4.209   7.984
   724G12c H00413264   2.360   4.210   8.077
   724G12c C01813265   2.564   4.305   7.991
   724G12c O00113266   2.673   4.368   7.938
   724G12c H00313267   2.669   4.386   7.845
   724G12c C01913268   2.585   4.286   8.144
   724G12c H00213269   2.650   4.204   8.174
   724G12c H00113270   2.646   4.375   8.158
   724G12c O00013271   2.468   4.284   8.226
   724G12c C01A13272   2.480   4.291   8.360
   724G12c C02K13273   2.359   4.268   8.437
   724G12c O00G13274   2.253   4.214   8.367
   724G12c C02M13275   2.134   4.195   8.439
   724G12c H01G13276   2.076   4.146   8.361
   724G12c H01F13277   2.078   4.279   8.480
   724G12c H01E13278   2.152   4.124   8.520
   724G12c C02J13279   2.353   4.300   8.575
   724G12c H01H13280   2.266   4.277   8.634
   724G12c C02I13281   2.467   4.346   8.641
   724G12c C02N13282   2.452   4.380   8.781
   724G12c H01M13283   2.359   4.369   8.835
   724G12c C02O13284   2.561   4.398   8.853
   724G12c H01L13285   2.660   4.384   8.811
   724G12c C02P13286   2.573   4.421   9.000
   724G12c H01K13287   2.511   4.345   9.048
   724G12c H01J13288   2.673   4.419   9.044
   724G12c O00H13289   2.509   4.545   9.029
   724G12c H01I13290   2.421   4.533   8.998
   724G12c C02H13291   2.594   4.362   8.568
   724G12c H01C13292   2.682   4.403   8.617
   724G12c C02L13293   2.595   4.334   8.430
   724G12c H01D13294   2.684   4.373   8.381
   724G12c C01313295   2.365   4.235   7.700
   724G12c H00013296   2.338   4.139   7.742
   724G12c C01413297   2.328   4.279   7.562
   724G12c C00F13298   2.285   4.193   7.464
   724G12c C00H13299   2.214   4.378   7.330
   724G12c C00I13300   2.152   4.436   7.222
   724G12c C00J13301   2.175   4.577   7.202
   724G12c C00Z13302   2.468   4.618   7.567
   724G12c C00Y13303   2.553   4.706   7.636
   724G12c H00613304   2.603   4.680   7.728
   724G12c C00X13305   2.608   4.823   7.576
   724G12c O00313306   2.709   4.895   7.634
   724G12c C01B13307   2.759   4.858   7.762
   724G12c H00913308   2.828   4.931   7.803
   724G12c H00813309   2.812   4.763   7.763
   724G12c H00713310   2.682   4.859   7.838
   724G12c C00W13311   2.583   4.846   7.440
   724G12c O00413312   2.652   4.944   7.371
   724G12c C01C13313   2.660   4.923   7.235
   724G12c H00A13314   2.756   4.907   7.188
   724G12c C00P13315   2.538   4.886   7.169
   724G12c C00O13316   2.530   4.921   7.034
   724G12c C01D13317   2.638   4.982   6.965
   724G12c H00S13318   2.731   5.007   7.014
   724G12c C01E13319   2.651   4.994   6.823
   724G12c O00813320   2.769   5.025   6.753
   724G12c C01V13321   2.889   4.984   6.807
   724G12c C01Z13322   2.993   5.096   6.816
   724G12c H00R13323   3.083   5.076   6.758
   724G12c H00Q13324   2.953   5.192   6.782
   724G12c O00913325   3.036   5.120   6.942
   724G12c H00P13326   2.960   5.153   6.988
   724G12c C01W13327   2.911   4.860   6.843
   724G12c H00O13328   2.842   4.785   6.810
   724G12c C01X13329   3.029   4.807   6.913
   724G12c H00N13330   3.058   4.713   6.867
   724G12c H00M13331   3.106   4.883   6.899
   724G12c C01Y13332   2.992   4.790   7.055
   724G12c C02D13333   2.915   4.680   7.099
   724G12c H01913334   2.875   4.598   7.040
   724G12c C02C13335   2.884   4.668   7.238
   724G12c H01A13336   2.838   4.578   7.277
   724G12c C02B13337   2.937   4.764   7.332
   724G12c O00E13338   2.911   4.747   7.467
   724G12c H01B13339   2.902   4.829   7.514
   724G12c C02F13340   3.012   4.876   7.289
   724G12c O00F13341   3.050   4.976   7.381
   724G12c C02G13342   3.115   5.092   7.325
   724G12c H01713343   3.211   5.075   7.278
   724G12c H01613344   3.133   5.172   7.397
   724G12c H01513345   3.054   5.145   7.251
   724G12c C02E13346   3.039   4.885   7.149
   724G12c H01813347   3.114   4.954   7.113
   724G12c C01F13348   2.534   4.960   6.747
   724G12c C01G13349   2.536   4.936   6.608
   724G12c H00L13350   2.612   4.953   6.532
   724G12c C01H13351   2.430   4.860   6.554
   724G12c H00B13352   2.446   4.810   6.460
   724G12c C01I13353   2.318   4.820   6.631
   724G12c C01U13354   2.412   4.929   6.817
   724G12c C00S13355   2.259   4.647   7.283
   724G12c C00K13356   2.179   4.627   7.073
   724G12c C00N13357   2.412   4.895   6.952
   724G12c C00013358   2.292   4.894   6.753
   724G12c C01J13359   2.244   4.697   6.645
   724G12c C01K13360   2.243   4.594   6.545
   724G12c C01P13361   2.250   4.602   6.400
   724G12c C01Q13362   2.238   4.725   6.323
   724G12c H00G13363   2.286   4.727   6.226
   724G12c C01R13364   2.154   4.820   6.367
   724G12c H00F13365   2.095   4.804   6.456
   724G12c C01S13366   2.120   4.957   6.303
   724G12c H00E13367   2.017   4.956   6.268
   724G12c H00D13368   2.111   5.032   6.382
   724G12c O00513369   2.206   4.976   6.187
   724G12c H00C13370   2.279   5.033   6.206
   724G12c C01O13371   2.261   4.481   6.329
   724G12c H00H13372   2.267   4.490   6.222
   724G12c C01N13373   2.269   4.358   6.392
   724G12c O00613374   2.278   4.235   6.333
   724G12c C01T13375   2.171   4.206   6.242
   724G12c H00K13376   2.073   4.227   6.286
   724G12c H00J13377   2.162   4.099   6.223
   724G12c H00I13378   2.171   4.262   6.148
   724G12c C01M13379   2.252   4.354   6.528
   724G12c C02013380   2.136   4.535   6.970
   724G12c C02113381   2.082   4.405   6.999
   724G12c C01L13382   2.224   4.470   6.609
   724G12c O00713383   2.257   4.231   6.581
   724G12c C02213384   2.107   4.297   6.911
   724G12c C02313385   2.092   4.350   7.131
   724G12c C00G13386   2.218   4.241   7.350
   724G12c C00E13387   2.318   4.052   7.474
   724G12c O00A13388   2.403   4.005   7.574
   724G12c C02413389   2.532   3.972   7.527
   724G12c H00V13390   2.593   4.058   7.499
   724G12c H00U13391   2.527   3.905   7.441
   724G12c H00T13392   2.576   3.922   7.612
   734G12c C00D13393   5.556   1.634   2.699
   734G12c O00B13394   5.452   1.648   2.788
   734G12c C02513395   5.334   1.690   2.734
   734G12c C02613396   5.225   1.584   2.703
   734G12c H00Y13397   5.249   1.548   2.603
   734G12c H00X13398   5.121   1.617   2.706
   734G12c O00C13399   5.250   1.463   2.775
   734G12c H00W13400   5.325   1.474   2.831
   734G12c C02713401   5.315   1.822   2.713
   734G12c O00D13402   5.403   1.919   2.750
   734G12c H00Z13403   5.467   1.882   2.809
   734G12c C02813404   5.200   1.871   2.638
   734G12c C02913405   5.149   1.998   2.665
   734G12c H01013406   5.192   2.053   2.748
   734G12c C02T13407   5.037   2.057   2.605
   734G12c H01O13408   4.998   2.153   2.635
   734G12c C02S13409   4.980   1.994   2.488
   734G12c O00J13410   4.886   2.065   2.422
   734G12c H01P13411   4.850   2.005   2.359
   734G12c C02R13412   5.037   1.867   2.448
   734G12c O00I13413   4.984   1.812   2.337
   734G12c C02Q13414   5.015   1.681   2.297
   734G12c H01N13415   5.117   1.679   2.259
   734G12c H01R13416   4.951   1.636   2.220
   734G12c H01Q13417   5.013   1.606   2.376
   734G12c C02A13418   5.143   1.807   2.526
   734G12c H01113419   5.192   1.718   2.488
   734G12c C00C13420   5.549   1.528   2.611
   734G12c H01213421   5.474   1.450   2.611
   734G12c C00B13422   5.645   1.512   2.505
   734G12c C00A13423   5.644   1.405   2.407
   734G12c C00913424   5.616   1.268   2.438
   734G12c C00813425   5.573   1.197   2.555
   734G12c H01313426   5.522   1.248   2.635
   734G12c C00713427   5.594   1.055   2.569
   734G12c H01413428   5.559   0.988   2.647
   734G12c C00613429   5.676   0.991   2.479
   734G12c C00513430   5.724   1.065   2.366
   734G12c C00413431   5.833   1.014   2.291
   734G12c C00313432   5.912   1.103   2.212
   734G12c C00213433   6.029   1.042   2.155
   734G12c C00113434   6.135   1.098   2.076
   734G12c C00M13435   6.204   1.221   2.108
   734G12c C00L13436   6.132   1.338   2.143
   734G12c C00R13437   6.186   1.456   2.201
   734G12c C00Q13438   6.317   1.485   2.247
   734G12c C00V13439   6.323   1.618   2.309
   734G12c C00U13440   6.214   1.682   2.353
   734G12c C00T13441   6.086   1.638   2.329
   734G12c C01613442   5.971   1.667   2.402
   734G12c C01513443   5.983   1.768   2.498
   734G12c C01013444   6.103   1.840   2.505
   734G12c C01113445   6.113   1.952   2.595
   734G12c H00513446   6.207   2.004   2.607
   734G12c C01213447   6.002   1.996   2.664
   734G12c C01713448   6.010   2.117   2.745
   734G12c O00213449   5.958   2.096   2.869
   734G12c H00413450   5.966   2.176   2.920
   734G12c C01813451   6.063   2.231   2.701
   734G12c O00113452   6.103   2.246   2.573
   734G12c H00313453   6.108   2.161   2.531
   734G12c C01913454   6.071   2.350   2.796
   734G12c H00213455   6.159   2.341   2.860
   734G12c H00113456   6.082   2.446   2.746
   734G12c O00013457   5.959   2.358   2.885
   734G12c C01A13458   5.851   2.433   2.837
   734G12c C02K13459   5.751   2.461   2.933
   734G12c O00G13460   5.770   2.413   3.064
   734G12c C02M13461   5.674   2.448   3.164
   734G12c H01G13462   5.708   2.439   3.268
   734G12c H01F13463   5.582   2.389   3.168
   734G12c H01E13464   5.642   2.552   3.160
   734G12c C02J13465   5.634   2.525   2.891
   734G12c H01H13466   5.554   2.533   2.963
   734G12c C02I13467   5.629   2.585   2.768
   734G12c C02N13468   5.507   2.663   2.752
   734G12c H01M13469   5.419   2.659   2.814
   734G12c C02O13470   5.511   2.759   2.660
   734G12c H01L13471   5.598   2.779   2.600
   734G12c C02P13472   5.393   2.861   2.629
   734G12c H01K13473   5.389   2.925   2.541
   734G12c H01J13474   5.300   2.804   2.618
   734G12c O00H13475   5.364   2.940   2.748
   734G12c H01I13476   5.270   2.953   2.746
   734G12c C02H13477   5.732   2.566   2.672
   734G12c H01C13478   5.720   2.595   2.568
   734G12c C02L13479   5.835   2.481   2.704
   734G12c H01D13480   5.895   2.447   2.621
   734G12c C01313481   5.883   1.917   2.661
   734G12c H00013482   5.798   1.959   2.713
   734G12c C01413483   5.875   1.799   2.578
   734G12c C00F13484   5.764   1.712   2.586
   734G12c C00H13485   5.854   1.591   2.393
   734G12c C00I13486   5.848   1.493   2.295
   734G12c C00J13487   5.961   1.470   2.218
   734G12c C00Z13488   6.225   1.794   2.439
   734G12c C00Y13489   6.356   1.847   2.460
   734G12c H00613490   6.384   1.930   2.523
   734G12c C00X13491   6.469   1.790   2.401
   734G12c O00313492   0.078   1.839   2.424
   734G12c C01B13493   0.104   1.950   2.501
   734G12c H00913494   0.210   1.962   2.520
   734G12c H00813495   0.070   1.926   2.602
   734G12c H00713496   0.061   2.041   2.460
   734G12c C00W13497   6.450   1.670   2.339
   734G12c O00413498   0.038   1.608   2.289
   734G12c C01C13499   0.033   1.468   2.305
   734G12c H00A13500   0.081   1.424   2.391
   734G12c C00P13501   6.437   1.405   2.247
   734G12c C00O13502   6.443   1.265   2.214
   734G12c C01D13503   0.036   1.182   2.260
   734G12c H00S13504   0.121   1.229   2.306
   734G12c C01E13505   0.028   1.042   2.276
   734G12c O00813506   0.125   0.966   2.337
   734G12c C01V13507   0.214   1.030   2.419
   734G12c C01Z13508   0.362   0.992   2.389
   734G12c H00R13509   0.361   0.927   2.302
   734G12c H00Q13510   0.429   1.071   2.358
   734G12c O00913511   0.420   0.912   2.484
   734G12c H00P13512   0.501   0.890   2.441
   734G12c C01W13513   0.182   1.094   2.532
   734G12c H00O13514   0.075   1.098   2.546
   734G12c C01X13515   0.266   1.134   2.645
   734G12c H00N13516   0.219   1.090   2.733
   734G12c H00M13517   0.370   1.103   2.635
   734G12c C01Y13518   0.262   1.281   2.647
   734G12c C02D13519   0.169   1.346   2.733
   734G12c H01913520   0.112   1.283   2.800
   734G12c C02C13521   0.162   1.487   2.723
   734G12c H01A13522   0.092   1.537   2.789
   734G12c C02B13523   0.237   1.560   2.628
   734G12c O00E13524   0.224   1.691   2.614
   734G12c H01B13525   0.249   1.728   2.531
   734G12c C02F13526   0.332   1.495   2.546
   734G12c O00F13527   0.404   1.567   2.453
   734G12c C02G13528   0.542   1.535   2.446
   734G12c H01713529   0.573   1.434   2.418
   734G12c H01613530   0.585   1.557   2.544
   734G12c H01513531   0.598   1.609   2.390
   734G12c C02E13532   0.338   1.356   2.547
   734G12c H01813533   0.398   1.308   2.471
   734G12c C01F13534   6.441   0.972   2.222
   734G12c C01G13535   6.412   0.834   2.235
   734G12c H00L13536   6.474   0.764   2.288
   734G12c C01H13537   6.281   0.787   2.200
   734G12c H00B13538   6.255   0.686   2.228
   734G12c C01I13539   6.190   0.874   2.131
   734G12c C01U13540   6.352   1.048   2.138
   734G12c C00S13541   6.077   1.542   2.235
   734G12c C00K13542   5.991   1.339   2.171
   734G12c C00N13543   6.344   1.189   2.151
   734G12c C00013544   6.237   0.999   2.080
   734G12c C01J13545   6.058   0.900   2.167
   734G12c C01K13546   5.967   0.810   2.227
   734G12c C01P13547   5.956   0.669   2.217
   734G12c C01Q13548   6.035   0.596   2.121
   734G12c H00G13549   6.052   0.646   2.027
   734G12c C01R13550   6.084   0.473   2.144
   734G12c H00F13551   6.059   0.425   2.237
   734G12c C01S13552   6.160   0.395   2.049
   734G12c H00E13553   6.113   0.298   2.035
   734G12c H00D13554   6.162   0.436   1.948
   734G12c O00513555   6.291   0.377   2.099
   734G12c H00C13556   6.299   0.443   2.166
   734G12c C01O13557   5.864   0.597   2.295
   734G12c H00H13558   5.849   0.492   2.275
   734G12c C01N13559   5.779   0.661   2.388
   734G12c O00613560   5.685   0.596   2.464
   734G12c C01T13561   5.676   0.456   2.457
   734G12c H00K13562   5.605   0.420   2.532
   734G12c H00J13563   5.770   0.405   2.477
   734G12c H00I13564   5.630   0.427   2.362
   734G12c C01M13565   5.789   0.799   2.396
   734G12c C02013566   5.888   1.245   2.198
   734G12c C02113567   5.756   1.279   2.245
   734G12c C01L13568   5.866   0.876   2.303
   734G12c O00713569   5.704   0.858   2.486
   734G12c C02213570   5.689   1.194   2.335
   734G12c C02313571   5.730   1.412   2.297
   734G12c C00G13572   5.751   1.607   2.492
   734G12c C00E13573   5.664   1.723   2.693
   734G12c O00A13574   5.666   1.812   2.798
   734G12c C02413575   5.731   1.748   2.912
   734G12c H00V13576   5.754   1.831   2.979
   734G12c H00U13577   5.830   1.720   2.876
   734G12c H00T13578   5.675   1.670   2.963
   744G12c C00D13579   4.485   4.108   3.227
   744G12c O00B13580   4.403   4.161   3.128
   744G12c C02513581   4.459   4.186   3.004
   744G12c C02613582   4.454   4.074   2.900
   744G12c H00Y13583   4.422   4.101   2.799
   744G12c H00X13584   4.369   4.012   2.927
   744G12c O00C13585   4.582   3.999   2.905
   744G12c H00W13586   4.573   3.928   2.843
   744G12c C02713587   4.484   4.316   2.978
   744G12c O00D13588   4.464   4.413   3.072
   744G12c H00Z13589   4.435   4.376   3.154
   744G12c C02813590   4.526   4.372   2.854
   744G12c C02913591   4.467   4.488   2.800
   744G12c H01013592   4.392   4.540   2.858
   744G12c C02T13593   4.510   4.544   2.680
   744G12c H01O13594   4.468   4.641   2.655
   744G12c C02S13595   4.602   4.475   2.596
   744G12c O00J13596   4.653   4.534   2.484
   744G12c H01P13597   4.718   4.474   2.452
   744G12c C02R13598   4.659   4.355   2.643
   744G12c O00I13599   4.750   4.288   2.560
   744G12c C02Q13600   4.824   4.179   2.612
   744G12c H01N13601   4.894   4.211   2.688
   744G12c H01R13602   4.887   4.145   2.530
   744G12c H01Q13603   4.772   4.086   2.639
   744G12c C02A13604   4.620   4.303   2.771
   744G12c H01113605   4.669   4.221   2.821
   744G12c C00C13606   4.623   4.095   3.220
   744G12c H01213607   4.681   4.111   3.130
   744G12c C00B13608   4.701   4.057   3.331
   744G12c C00A13609   4.844   4.045   3.339
   744G12c C00913610   4.931   4.001   3.235
   744G12c C00813611   4.911   3.962   3.105
   744G12c H01313612   4.821   3.987   3.052
   744G12c C00713613   5.005   3.886   3.030
   744G12c H01413614   4.985   3.879   2.924
   744G12c C00613615   5.120   3.828   3.098
   744G12c C00513616   5.126   3.856   3.239
   744G12c C00413617   5.206   3.782   3.324
   744G12c C00313618   5.194   3.787   3.465
   744G12c C00213619   5.263   3.696   3.547
   744G12c C00113620   5.275   3.673   3.688
   744G12c C00M13621   5.160   3.659   3.777
   744G12c C00L13622   5.049   3.755   3.772
   744G12c C00R13623   4.920   3.735   3.827
   744G12c C00Q13624   4.865   3.622   3.898
   744G12c C00V13625   4.719   3.628   3.906
   744G12c C00U13626   4.639   3.722   3.837
   744G12c C00T13627   4.696   3.815   3.755
   744G12c C01613628   4.632   3.893   3.661
   744G12c C01513629   4.497   3.890   3.658
   744G12c C01013630   4.429   3.808   3.753
   744G12c C01113631   4.289   3.817   3.761
   744G12c H00513632   4.235   3.756   3.832
   744G12c C01213633   4.212   3.912   3.690
   744G12c C01713634   4.073   3.933   3.717
   744G12c O00213635   4.034   3.900   3.842
   744G12c H00413636   3.943   3.927   3.842
   744G12c C01813637   3.991   3.992   3.626
   744G12c O00113638   4.025   4.027   3.499
   744G12c H00313639   4.116   4.051   3.494
   744G12c C01913640   3.846   4.022   3.655
   744G12c H00213641   3.845   4.129   3.635
   744G12c H00113642   3.798   3.956   3.583
   744G12c O00013643   3.802   3.986   3.788
   744G12c C01A13644   3.675   4.029   3.820
   744G12c C02K13645   3.586   3.938   3.881
   744G12c O00G13646   3.633   3.805   3.881
   744G12c C02M13647   3.538   3.706   3.909
   744G12c H01G13648   3.470   3.699   3.823
   744G12c H01F13649   3.484   3.734   3.999
   744G12c H01E13650   3.573   3.606   3.933
   744G12c C02J13651   3.457   3.980   3.922
   744G12c H01H13652   3.379   3.917   3.962
   744G12c C02I13653   3.416   4.115   3.898
   744G12c C02N13654   3.279   4.151   3.939
   744G12c H01M13655   3.214   4.074   3.977
   744G12c C02O13656   3.248   4.278   3.949
   744G12c H01L13657   3.318   4.356   3.922
   744G12c C02P13658   3.125   4.329   4.009
   744G12c H01K13659   3.135   4.431   4.046
   744G12c H01J13660   3.047   4.333   3.933
   744G12c O00H13661   3.088   4.261   4.129
   744G12c H01I13662   3.023   4.317   4.168
   744G12c C02H13663   3.505   4.204   3.838
   744G12c H01C13664   3.484   4.307   3.816
   744G12c C02L13665   3.637   4.164   3.796
   744G12c H01D13666   3.705   4.230   3.745
   744G12c C01313667   4.291   3.996   3.603
   744G12c H00013668   4.249   4.082   3.553
   744G12c C01413669   4.427   3.966   3.574
   744G12c C00F13670   4.490   4.027   3.461
   744G12c C00H13671   4.705   3.963   3.565
   744G12c C00I13672   4.845   3.965   3.569
   744G12c C00J13673   4.902   3.900   3.676
   744G12c C00Z13674   4.498   3.719   3.836
   744G12c C00Y13675   4.432   3.628   3.920
   744G12c H00613676   4.325   3.615   3.927
   744G12c C00X13677   4.506   3.527   3.993
   744G12c O00313678   4.450   3.427   4.061
   744G12c C01B13679   4.313   3.425   4.074
   744G12c H00913680   4.253   3.403   3.985
   744G12c H00813681   4.293   3.519   4.124
   744G12c H00713682   4.296   3.349   4.150
   744G12c C00W13683   4.646   3.533   3.987
   744G12c O00413684   4.708   3.421   4.043
   744G12c C01C13685   4.846   3.417   4.038
   744G12c H00A13686   4.901   3.348   4.101
   744G12c C00P13687   4.925   3.497   3.940
   744G12c C00O13688   5.053   3.456   3.900
   744G12c C01D13689   5.081   3.316   3.924
   744G12c H00S13690   5.014   3.252   3.978
   744G12c C01E13691   5.189   3.249   3.857
   744G12c O00813692   5.207   3.112   3.857
   744G12c C01V13693   5.215   3.050   3.977
   744G12c C01Z13694   5.159   2.912   3.986
   744G12c H00R13695   5.242   2.842   3.982
   744G12c H00Q13696   5.110   2.890   4.081
   744G12c O00913697   5.070   2.893   3.879
   744G12c H00P13698   5.067   2.969   3.822
   744G12c C01W13699   5.270   3.116   4.083
   744G12c H00O13700   5.315   3.214   4.069
   744G12c C01X13701   5.286   3.070   4.222
   744G12c H00N13702   5.256   3.159   4.278
   744G12c H00M13703   5.203   3.003   4.243
   744G12c C01Y13704   5.421   3.019   4.283
   744G12c C02D13705   5.424   2.985   4.417
   744G12c H01913706   5.343   3.005   4.485
   744G12c C02C13707   5.541   2.941   4.475
   744G12c H01A13708   5.558   2.938   4.582
   744G12c C02B13709   5.659   2.921   4.393
   744G12c O00E13710   5.779   2.873   4.441
   744G12c H01B13711   5.855   2.874   4.386
   744G12c C02F13712   5.653   2.949   4.256
   744G12c O00F13713   5.764   2.916   4.183
   744G12c C02G13714   5.779   2.952   4.042
   744G12c H01713715   5.771   3.059   4.024
   744G12c H01613716   5.712   2.900   3.973
   744G12c H01513717   5.884   2.944   4.015
   744G12c C02E13718   5.535   3.004   4.205
   744G12c H01813719   5.528   3.033   4.101
   744G12c C01F13720   5.271   3.320   3.774
   744G12c C01G13721   5.338   3.258   3.663
   744G12c H00L13722   5.339   3.151   3.648
   744G12c C01H13723   5.375   3.346   3.556
   744G12c H00B13724   5.383   3.298   3.460
   744G12c C01I13725   5.376   3.491   3.574
   744G12c C01U13726   5.274   3.465   3.778
   744G12c C00S13727   4.833   3.828   3.769
   744G12c C00K13728   5.031   3.843   3.665
   744G12c C00N13729   5.158   3.527   3.834
   744G12c C00013730   5.350   3.550   3.697
   744G12c C01J13731   5.339   3.594   3.478
   744G12c C01K13732   5.372   3.594   3.335
   744G12c C01P13733   5.468   3.513   3.256
   744G12c C01Q13734   5.561   3.425   3.327
   744G12c H00G13735   5.617   3.466   3.410
   744G12c C01R13736   5.575   3.296   3.284
   744G12c H00F13737   5.538   3.262   3.189
   744G12c C01S13738   5.668   3.197   3.345
   744G12c H00E13739   5.751   3.183   3.275
   744G12c H00D13740   5.712   3.236   3.437
   744G12c O00513741   5.603   3.074   3.365
   744G12c H00C13742   5.554   3.049   3.289
   744G12c C01O13743   5.487   3.529   3.123
   744G12c H00H13744   5.566   3.477   3.070
   744G12c C01N13745   5.405   3.619   3.053
   744G12c O00613746   5.411   3.634   2.915
   744G12c C01T13747   5.531   3.601   2.855
   744G12c H00K13748   5.614   3.653   2.904
   744G12c H00J13749   5.523   3.622   2.749
   744G12c H00I13750   5.565   3.498   2.869
   744G12c C01M13751   5.303   3.688   3.115
   744G12c C02013752   5.092   3.872   3.532
   744G12c C02113753   5.041   3.975   3.441
   744G12c C01L13754   5.297   3.689   3.259
   744G12c O00713755   5.220   3.760   3.037
   744G12c C02213756   5.046   3.948   3.303
   744G12c C02313757   4.908   4.023   3.459
   744G12c C00G13758   4.633   4.013   3.452
   744G12c C00E13759   4.416   4.074   3.346
   744G12c O00A13760   4.274   4.066   3.335
   744G12c C02413761   4.235   3.941   3.291
   744G12c H00V13762   4.273   3.921   3.191
   744G12c H00U13763   4.127   3.936   3.284
   744G12c H00T13764   4.249   3.856   3.358
   754G12c C00D13765   0.719   4.604   8.224
   754G12c O00B13766   0.656   4.725   8.210
   754G12c C02513767   0.598   4.772   8.092
   754G12c C02613768   0.692   4.824   7.989
   754G12c H00Y13769   0.762   4.901   8.023
   754G12c H00X13770   0.646   4.878   7.906
   754G12c O00C13771   0.768   4.719   7.928
   754G12c H00W13772   0.818   4.672   7.992
   754G12c C02713773   0.464   4.769   8.089
   754G12c O00D13774   0.401   4.724   8.199
   754G12c H00Z13775   0.470   4.697   8.257
   754G12c C02813776   0.389   4.825   7.980
   754G12c C02913777   0.402   4.788   7.841
   754G12c H01013778   0.469   4.705   7.827
   754G12c C02T13779   0.320   4.849   7.740
   754G12c H01O13780   0.322   4.817   7.638
   754G12c C02S13781   0.231   4.947   7.775
   754G12c O00J13782   0.148   5.007   7.684
   754G12c H01P13783   0.126   5.095   7.712
   754G12c C02R13784   0.213   4.982   7.908
   754G12c O00I13785   0.127   5.086   7.920
   754G12c C02Q13786   0.068   5.106   8.051
   754G12c H01N13787   0.040   5.009   8.093
   754G12c H01R13788   6.495   5.159   8.034
   754G12c H01Q13789   0.129   5.159   8.124
   754G12c C02A13790   0.290   4.918   8.011
   754G12c H01113791   0.273   4.938   8.116
   754G12c C00C13792   0.685   4.500   8.146
   754G12c H01213793   0.623   4.520   8.060
   754G12c C00B13794   0.752   4.378   8.157
   754G12c C00A13795   0.742   4.272   8.063
   754G12c C00913796   0.638   4.233   7.968
   754G12c C00813797   0.514   4.286   7.914
   754G12c H01313798   0.502   4.394   7.912
   754G12c C00713799   0.411   4.198   7.878
   754G12c H01413800   0.322   4.245   7.841
   754G12c C00613801   0.430   4.058   7.881
   754G12c C00513802   0.557   4.007   7.915
   754G12c C00413803   0.571   3.873   7.960
   754G12c C00313804   0.690   3.830   8.031
   754G12c C00213805   0.700   3.692   8.066
   754G12c C00113806   0.805   3.613   8.125
   754G12c C00M13807   0.879   3.650   8.243
   754G12c C00L13808   0.925   3.777   8.257
   754G12c C00R13809   0.981   3.840   8.371
   754G12c C00Q13810   0.992   3.790   8.507
   754G12c C00V13811   1.029   3.891   8.598
   754G12c C00U13812   1.022   4.025   8.570
   754G12c C00T13813   0.996   4.077   8.445
   754G12c C01613814   0.968   4.206   8.409
   754G12c C01513815   0.971   4.300   8.506
   754G12c C01013816   1.026   4.266   8.630
   754G12c C01113817   1.058   4.372   8.721
   754G12c H00513818   1.101   4.357   8.819
   754G12c C01213819   1.039   4.503   8.690
   754G12c C01713820   1.087   4.607   8.780
   754G12c O00213821   1.096   4.576   8.910
   754G12c H00413822   1.070   4.485   8.922
   754G12c C01813823   1.116   4.735   8.735
   754G12c O00113824   1.138   4.765   8.600
   754G12c H00313825   1.123   4.858   8.592
   754G12c C01913826   1.158   4.846   8.823
   754G12c H00213827   1.120   4.826   8.923
   754G12c H00113828   1.267   4.843   8.818
   754G12c O00013829   1.098   4.960   8.765
   754G12c C01A13830   1.108   5.079   8.828
   754G12c C02K13831   1.059   5.194   8.757
   754G12c O00G13832   1.022   5.177   8.626
   754G12c C02M13833   0.974   5.289   8.555
   754G12c H01G13834   0.915   5.260   8.468
   754G12c H01F13835   1.049   5.363   8.527
   754G12c H01E13836   0.898   5.343   8.611
   754G12c C02J13837   1.059   5.318   8.824
   754G12c H01H13838   1.039   5.403   8.760
   754G12c C02I13839   1.095   5.328   8.955
   754G12c C02N13840   1.080   5.443   9.036
   754G12c H01M13841   1.142   5.465   9.122
   754G12c C02O13842   0.992   5.540   9.000
   754G12c H01L13843   0.922   5.528   8.919
   754G12c C02P13844   0.971   5.663   9.095
   754G12c H01K13845   1.062   5.709   9.134
   754G12c H01J13846   0.923   5.742   9.037
   754G12c O00H13847   0.899   5.622   9.204
   754G12c H01I13848   0.888   5.689   9.270
   754G12c C02H13849   1.137   5.215   9.022
   754G12c H01C13850   1.159   5.211   9.127
   754G12c C02L13851   1.158   5.092   8.959
   754G12c H01D13852   1.186   5.006   9.018
   754G12c C01313853   0.965   4.528   8.573
   754G12c H00013854   0.944   4.633   8.563
   754G12c C01413855   0.935   4.432   8.478
   754G12c C00F13856   0.858   4.457   8.362
   754G12c C00H13857   0.911   4.230   8.285
   754G12c C00I13858   0.894   4.131   8.192
   754G12c C00J13859   0.951   4.004   8.219
   754G12c C00Z13860   1.037   4.127   8.666
   754G12c C00Y13861   1.067   4.088   8.795
   754G12c H00613862   1.078   4.156   8.879
   754G12c C00X13863   1.076   3.951   8.836
   754G12c O00313864   1.089   3.902   8.971
   754G12c C01B13865   1.090   3.997   9.076
   754G12c H00913866   1.185   4.052   9.080
   754G12c H00813867   1.111   3.942   9.168
   754G12c H00713868   0.993   4.043   9.094
   754G12c C00W13869   1.060   3.852   8.736
   754G12c O00413870   1.046   3.725   8.781
   754G12c C01C13871   1.028   3.628   8.686
   754G12c H00A13872   1.077   3.533   8.700
   754G12c C00P13873   0.970   3.658   8.560
   754G12c C00O13874   0.901   3.548   8.489
   754G12c C01D13875   0.866   3.421   8.551
   754G12c H00S13876   0.893   3.397   8.653
   754G12c C01E13877   0.758   3.348   8.493
   754G12c O00813878   0.687   3.252   8.565
   754G12c C01V13879   0.769   3.163   8.630
   754G12c C01Z13880   0.764   3.162   8.773
   754G12c H00R13881   0.861   3.141   8.816
   754G12c H00Q13882   0.742   3.267   8.787
   754G12c O00913883   0.665   3.072   8.812
   754G12c H00P13884   0.627   3.043   8.730
   754G12c C01W13885   0.847   3.074   8.563
   754G12c H00O13886   0.857   3.090   8.456
   754G12c C01X13887   0.934   2.975   8.636
   754G12c H00N13888   0.886   2.933   8.724
   754G12c H00M13889   0.941   2.881   8.582
   754G12c C01Y13890   1.075   3.018   8.675
   754G12c C02D13891   1.159   3.080   8.585
   754G12c H01913892   1.116   3.093   8.487
   754G12c C02C13893   1.293   3.113   8.606
   754G12c H01A13894   1.362   3.150   8.532
   754G12c C02B13895   1.352   3.075   8.729
   754G12c O00E13896   1.486   3.097   8.752
   754G12c H01B13897   1.507   3.069   8.840
   754G12c C02F13898   1.269   3.019   8.830
   754G12c O00F13899   1.332   3.000   8.950
   754G12c C02G13900   1.235   2.975   9.062
   754G12c H01713901   1.189   2.876   9.057
   754G12c H01613902   1.155   3.050   9.059
   754G12c H01513903   1.281   2.981   9.160
   754G12c C02E13904   1.128   2.996   8.802
   754G12c H01813905   1.059   2.952   8.872
   754G12c C01F13906   0.701   3.379   8.371
   754G12c C01G13907   0.573   3.336   8.317
   754G12c H00L13908   0.516   3.273   8.383
   754G12c C01H13909   0.511   3.398   8.202
   754G12c H00B13910   0.410   3.368   8.177
   754G12c C01I13911   0.599   3.496   8.130
   754G12c C01U13912   0.778   3.462   8.290
   754G12c C00S13913   0.998   3.977   8.347
   754G12c C00K13914   0.893   3.884   8.166
   754G12c C00N13915   0.863   3.555   8.352
   754G12c C00013916   0.740   3.494   8.157
   754G12c C01J13917   0.586   3.613   8.048
   754G12c C01K13918   0.461   3.649   7.973
   754G12c C01P13919   0.357   3.563   7.925
   754G12c C01Q13920   0.359   3.416   7.930
   754G12c H00G13921   0.454   3.366   7.942
   754G12c C01R13922   0.248   3.340   7.910
   754G12c H00F13923   0.148   3.376   7.894
   754G12c C01S13924   0.249   3.184   7.900
   754G12c H00E13925   0.276   3.141   7.997
   754G12c H00D13926   0.150   3.150   7.869
   754G12c O00513927   0.343   3.142   7.800
   754G12c H00C13928   0.356   3.204   7.730
   754G12c C01O13929   0.251   3.627   7.853
   754G12c H00H13930   0.176   3.574   7.797
   754G12c C01N13931   0.236   3.760   7.841
   754G12c O00613932   0.131   3.808   7.778
   754G12c C01T13933   0.153   3.888   7.663
   754G12c H00K13934   0.223   3.835   7.598
   754G12c H00J13935   0.187   3.990   7.674
   754G12c H00I13936   0.059   3.887   7.608
   754G12c C01M13937   0.343   3.838   7.884
   754G12c C02013938   0.800   3.911   8.061
   754G12c C02113939   0.775   4.049   8.010
   754G12c C01L13940   0.463   3.785   7.936
   754G12c O00713941   0.330   3.970   7.851
   754G12c C02213942   0.665   4.092   7.942
   754G12c C02313943   0.810   4.158   8.083
   754G12c C00G13944   0.840   4.356   8.271
   754G12c C00E13945   0.808   4.591   8.332
   754G12c O00A13946   0.812   4.708   8.414
   754G12c C02413947   0.911   4.806   8.370
   754G12c H00V13948   0.898   4.896   8.429
   754G12c H00U13949   0.907   4.833   8.264
   754G12c H00T13950   1.013   4.770   8.384
   764G12c C00D13951   0.167   5.649   8.772
   764G12c O00B13952   0.260   5.654   8.672
   764G12c C02513953   0.218   5.665   8.538
   764G12c C02613954   0.221   5.812   8.483
   764G12c H00Y13955   0.124   5.852   8.511
   764G12c H00X13956   0.234   5.827   8.375
   764G12c O00C13957   0.326   5.881   8.545
   764G12c H00W13958   0.410   5.843   8.525
   764G12c C02713959   0.178   5.552   8.468
   764G12c O00D13960   0.179   5.432   8.531
   764G12c H00Z13961   0.218   5.455   8.614
   764G12c C02813962   0.126   5.559   8.333
   764G12c C02913963   0.179   5.462   8.241
   764G12c H01013964   0.261   5.401   8.276
   764G12c C02T13965   0.136   5.455   8.110
   764G12c H01O13966   0.177   5.381   8.042
   764G12c C02S13967   0.025   5.531   8.069
   764G12c O00J13968   6.482   5.489   7.955
   764G12c H01P13969   0.016   5.435   7.901
   764G12c C02R13970   6.494   5.636   8.159
   764G12c O00I13971   6.394   5.711   8.102
   764G12c C02Q13972   6.436   5.826   8.033
   764G12c H01N13973   6.351   5.876   7.988
   764G12c H01R13974   6.508   5.807   7.953
   764G12c H01Q13975   6.485   5.887   8.109
   764G12c C02A13976   0.026   5.648   8.287
   764G12c H01113977   6.510   5.725   8.352
   764G12c C00C13978   0.031   5.650   8.747
   764G12c H01213979   6.518   5.672   8.647
   764G12c C00B13980   6.458   5.624   8.850
   764G12c C00A13981   6.317   5.617   8.831
   764G12c C00913982   6.230   5.671   8.727
   764G12c C00813983   6.247   5.734   8.603
   764G12c H01313984   6.339   5.736   8.546
   764G12c C00713985   6.142   5.824   8.560
   764G12c H01413986   6.155   5.896   8.480
   764G12c C00613987   6.021   5.837   8.630
   764G12c C00513988   6.003   5.759   8.742
   764G12c C00413989   5.895   5.785   8.836
   764G12c C00313990   5.913   5.740   8.971
   764G12c C00213991   5.808   5.787   9.058
   764G12c C00113992   5.792   5.782   9.198
   764G12c C00M13993   5.895   5.799   9.299
   764G12c C00L13994   6.012   5.724   9.290
   764G12c C00R13995   6.134   5.753   9.364
   764G12c C00Q13996   6.166   5.849   9.474
   764G12c C00V13997   6.300   5.850   9.503
   764G12c C00U13998   6.403   5.790   9.428
   764G12c C00T13999   6.376   5.720   9.315
   764G12c C01614000   6.462   5.677   9.216
   764G12c C01514001   0.071   5.701   9.242
   764G12c C01014002   0.109   5.740   9.372
   764G12c C01114003   0.247   5.752   9.404
   764G12c H00514004   0.294   5.785   9.496
   764G12c C01214005   0.346   5.725   9.303
   764G12c C01714006   0.492   5.737   9.338
   764G12c O00214007   0.576   5.793   9.247
   764G12c H00414008   0.653   5.827   9.290
   764G12c C01814009   0.539   5.693   9.459
   764G12c O00114010   0.464   5.615   9.541
   764G12c H00314011   0.426   5.555   9.479
   764G12c C01914012   0.684   5.714   9.514
   764G12c H00214013   0.671   5.737   9.620
   764G12c H00114014   0.732   5.617   9.512
   764G12c O00014015   0.761   5.809   9.431
   764G12c C01A14016   0.885   5.848   9.474
   764G12c C02K14017   0.958   5.913   9.371
   764G12c O00G14018   0.897   5.934   9.254
   764G12c C02M14019   0.824   6.058   9.237
   764G12c H01G14020   0.832   6.135   9.314
   764G12c H01F14021   0.718   6.036   9.224
   764G12c H01E14022   0.867   6.097   9.145
   764G12c C02J14023   1.100   5.938   9.387
   764G12c H01H14024   1.156   5.984   9.307
   764G12c C02I14025   1.166   5.907   9.508
   764G12c C02N14026   1.304   5.919   9.525
   764G12c H01M14027   1.362   5.836   9.561
   764G12c C02O14028   1.362   6.035   9.492
   764G12c H01L14029   1.297   6.115   9.458
   764G12c C02P14030   1.513   6.042   9.476
   764G12c H01K14031   1.567   5.968   9.535
   764G12c H01J14032   1.544   6.040   9.371
   764G12c O00H14033   1.558   6.167   9.514
   764G12c H01I14034   1.593   6.154   9.601
   764G12c C02H14035   1.091   5.837   9.612
   764G12c H01C14036   1.141   5.799   9.700
   764G12c C02L14037   0.954   5.811   9.596
   764G12c H01D14038   0.907   5.744   9.667
   764G12c C01314039   0.304   5.673   9.185
   764G12c H00014040   0.381   5.657   9.111
   764G12c C01414041   0.162   5.664   9.143
   764G12c C00F14042   0.120   5.628   9.010
   764G12c C00H14043   6.416   5.630   9.088
   764G12c C00I14044   6.278   5.606   9.069
   764G12c C00J14045   6.195   5.631   9.180
   764G12c C00Z14046   0.013   5.796   9.463
   764G12c C00Y14047   0.046   5.861   9.587
   764G12c H00614048   0.151   5.877   9.608
   764G12c C00X14049   6.467   5.925   9.666
   764G12c O00314050   6.499   5.996   9.784
   764G12c C01B14051   0.109   5.988   9.834
   764G12c H00914052   0.157   5.890   9.840
   764G12c H00814053   0.117   6.018   9.939
   764G12c H00714054   0.174   6.052   9.775
   764G12c C00W14055   6.334   5.924   9.619
   764G12c O00414056   6.254   6.008   9.691
   764G12c C01C14057   6.125   6.012   9.653
   764G12c H00A14058   6.050   6.032   9.729
   764G12c C00P14059   6.076   5.939   9.541
   764G12c C00O14060   5.942   5.972   9.492
   764G12c C01D14061   5.867   6.088   9.543
   764G12c H00S14062   5.910   6.143   9.626
   764G12c C01E14063   5.748   6.143   9.479
   764G12c O00814064   5.688   6.265   9.513
   764G12c C01V14065   5.701   6.300   9.650
   764G12c C01Z14066   5.756   6.441   9.672
   764G12c H00R14067   5.831   6.425   9.749
   764G12c H00Q14068   5.809   6.478   9.584
   764G12c O00914069   5.653   0.014   9.716
   764G12c H00P14070   5.578   0.010   9.659
   764G12c C01W14071   5.677   6.217   9.757
   764G12c H00O14072   5.635   6.118   9.742
   764G12c C01X14073   5.683   6.250   9.905
   764G12c H00N14074   5.678   6.358   9.921
   764G12c H00M14075   5.612   6.198   9.970
   764G12c C01Y14076   5.829   6.215   9.948
   764G12c C02D14077   5.925   6.318   9.979
   764G12c H01914078   5.899   6.423   9.973
   764G12c C02C14079   6.061   6.280   9.996
   764G12c H01A14080   6.139   6.355  10.005
   764G12c C02B14081   6.090   6.145  10.015
   764G12c O00E14082   6.217   6.096  10.057
   764G12c H01B14083   6.218   6.001  10.062
   764G12c C02F14084   5.996   6.043   9.991
   764G12c O00F14085   6.042   5.909   9.995
   764G12c C02G14086   5.967   5.800   9.936
   764G12c H01714087   6.018   5.704   9.931
   764G12c H01614088   5.928   5.824   9.837
   764G12c H01514089   5.877   5.778   9.993
   764G12c C02E14090   5.863   6.080   9.953
   764G12c H01814091   5.784   6.006   9.944
   764G12c C01F14092   5.686   6.071   9.375
   764G12c C01G14093   5.595   6.126   9.279
   764G12c H00L14094   5.557   6.227   9.289
   764G12c C01H14095   5.590   6.067   9.149
   764G12c H00B14096   5.547   6.132   9.075
   764G12c C01I14097   5.642   5.937   9.129
   764G12c C01U14098   5.735   5.940   9.354
   764G12c C00S14099   6.242   5.692   9.294
   764G12c C00K14100   6.057   5.666   9.163
   764G12c C00N14101   5.867   5.904   9.391
   764G12c C00014102   5.694   5.865   9.239
   764G12c C01J14103   5.703   5.874   9.015
   764G12c C01K14104   5.687   5.918   8.880
   764G12c C01P14105   5.578   5.987   8.819
   764G12c C01Q14106   5.449   5.995   8.887
   764G12c H00G14107   5.409   5.911   8.943
   764G12c C01R14108   5.388   6.113   8.879
   764G12c H00F14109   5.416   6.202   8.825
   764G12c C01S14110   5.249   6.124   8.940
   764G12c H00E14111   5.179   6.175   8.873
   764G12c H00D14112   5.186   6.035   8.951
   764G12c O00514113   5.244   6.210   9.051
   764G12c H00C14114   5.242   6.165   9.134
   764G12c C01O14115   5.586   6.041   8.693
   764G12c H00H14116   5.504   6.082   8.636
   764G12c C01N14117   5.707   6.025   8.622
   764G12c O00614118   5.733   6.075   8.492
   764G12c C01T14119   5.633   6.146   8.427
   764G12c H00K14120   5.603   6.230   8.489
   764G12c H00J14121   5.551   6.077   8.406
   764G12c H00I14122   5.667   6.182   8.331
   764G12c C01M14123   5.810   5.941   8.671
   764G12c C02014124   6.022   5.662   9.025
   764G12c C02114125   6.102   5.613   8.914
   764G12c C01L14126   5.796   5.877   8.801
   764G12c O00714127   5.923   5.920   8.588
   764G12c C02214128   6.097   5.667   8.788
   764G12c C02314129   6.237   5.578   8.941
   764G12c C00G14130   6.502   5.625   8.980
   764G12c C00E14131   0.215   5.627   8.901
   764G12c O00A14132   0.349   5.599   8.912
   764G12c C02414133   0.382   5.460   8.915
   764G12c H00V14134   0.488   5.441   8.900
   764G12c H00U14135   0.333   5.404   8.836
   764G12c H00T14136   0.349   5.414   9.008
   774G12c C00D14137   6.272   5.705   7.394
   774G12c O00B14138   6.327   5.597   7.454
   774G12c C02514139   6.277   5.547   7.576
   774G12c C02614140   6.328   5.633   7.697
   774G12c H00Y14141   6.288   5.613   7.796
   774G12c H00X14142   6.305   5.739   7.688
   774G12c O00C14143   6.469   5.633   7.701
   774G12c H00W14144   6.492   5.607   7.789
   774G12c C02714145   6.180   5.449   7.568
   774G12c O00D14146   6.139   5.393   7.450
   774G12c H00Z14147   6.176   5.435   7.374
   774G12c C02814148   6.097   5.410   7.682
   774G12c C02914149   6.056   5.275   7.703
   774G12c H01014150   6.101   5.196   7.645
   774G12c C02T14151   5.948   5.249   7.797
   774G12c H01O14152   5.928   5.144   7.800
   774G12c C02S14153   5.894   5.352   7.878
   774G12c O00J14154   5.802   5.315   7.970
   774G12c H01P14155   5.764   5.232   7.945
   774G12c C02R14156   5.956   5.479   7.873
   774G12c O00I14157   5.919   5.565   7.975
   774G12c C02Q14158   5.994   5.678   8.003
   774G12c H01N14159   5.960   5.717   8.099
   774G12c H01R14160   5.971   5.749   7.924
   774G12c H01Q14161   6.101   5.656   8.002
   774G12c C02A14162   6.040   5.511   7.762
   774G12c H01114163   6.067   5.613   7.740
   774G12c C00C14164   6.145   5.753   7.414
   774G12c H01214165   6.082   5.690   7.476
   774G12c C00B14166   6.094   5.876   7.371
   774G12c C00A14167   5.963   5.938   7.399
   774G12c C00914168   5.839   5.871   7.401
   774G12c C00814169   5.805   5.736   7.408
   774G12c H01314170   5.868   5.655   7.442
   774G12c C00714171   5.680   5.704   7.348
   774G12c H01414172   5.657   5.599   7.358
   774G12c C00614173   5.602   5.799   7.278
   774G12c C00514174   5.644   5.934   7.286
   774G12c C00414175   5.576   6.034   7.218
   774G12c C00314176   5.637   6.165   7.208
   774G12c C00214177   5.564   6.265   7.138
   774G12c C00114178   5.587   6.402   7.105
   774G12c C00M14179   5.711   6.430   7.032
   774G12c C00L14180   5.840   6.398   7.091
   774G12c C00R14181   5.963   6.384   7.024
   774G12c C00Q14182   6.006   6.427   6.894
   774G12c C00V14183   6.135   6.381   6.857
   774G12c C00U14184   6.210   6.291   6.937
   774G12c C00T14185   6.161   6.245   7.060
   774G12c C01614186   6.209   6.129   7.124
   774G12c C01514187   6.324   6.071   7.074
   774G12c C01014188   6.380   6.123   6.955
   774G12c C01114189   6.487   6.040   6.893
   774G12c H00514190   0.008   6.050   6.794
   774G12c C01214191   0.005   5.919   6.950
   774G12c C01714192   0.100   5.836   6.885
   774G12c O00214193   0.207   5.785   6.965
   774G12c H00414194   0.225   5.698   6.934
   774G12c C01814195   0.088   5.800   6.754
   774G12c O00114196   6.500   5.830   6.672
   774G12c H00314197   6.430   5.793   6.724
   774G12c C01914198   0.187   5.724   6.684
   774G12c H00214199   0.195   5.746   6.577
   774G12c H00114200   0.280   5.747   6.737
   774G12c O00014201   0.150   5.589   6.688
   774G12c C01A14202   0.251   5.501   6.674
   774G12c C02K14203   0.322   5.462   6.788
   774G12c O00G14204   0.295   5.530   6.907
   774G12c C02M14205   0.341   5.460   7.023
   774G12c H01G14206   0.295   5.363   7.039
   774G12c H01F14207   0.316   5.524   7.108
   774G12c H01E14208   0.449   5.449   7.026
   774G12c C02J14209   0.429   5.366   6.776
   774G12c H01H14210   0.478   5.325   6.863
   774G12c C02I14211   0.455   5.296   6.656
   774G12c C02N14212   0.548   5.184   6.645
   774G12c H01M14213   0.550   5.113   6.727
   774G12c C02O14214   0.619   5.170   6.534
   774G12c H01L14215   0.594   5.230   6.448
   774G12c C02P14216   0.725   5.064   6.509
   774G12c H01K14217   0.681   4.987   6.445
   774G12c H01J14218   0.801   5.115   6.450
   774G12c O00H14219   0.775   5.013   6.629
   774G12c H01I14220   0.785   4.919   6.627
   774G12c C02H14221   0.386   5.348   6.541
   774G12c H01C14222   0.397   5.304   6.442
   774G12c C02L14223   0.288   5.450   6.549
   774G12c H01D14224   0.234   5.472   6.458
   774G12c C01314225   6.474   5.882   7.071
   774G12c H00014226   6.510   5.789   7.113
   774G12c C01414227   6.368   5.955   7.133
   774G12c C00F14228   6.305   5.903   7.243
   774G12c C00H14229   6.142   6.077   7.234
   774G12c C00I14230   6.028   6.145   7.282
   774G12c C00J14231   5.980   6.260   7.207
   774G12c C00Z14232   6.329   6.232   6.889
   774G12c C00Y14233   6.386   6.281   6.771
   774G12c H00614234   6.478   6.236   6.737
   774G12c C00X14235   6.314   6.373   6.685
   774G12c O00314236   6.361   6.424   6.564
   774G12c C01B14237   6.487   6.365   6.519
   774G12c H00914238   6.497   6.258   6.501
   774G12c H00814239   0.050   6.381   6.587
   774G12c H00714240   6.501   6.423   6.428
   774G12c C00W14241   6.192   6.425   6.732
   774G12c O00414242   6.134   6.519   6.654
   774G12c C01C14243   5.998   6.494   6.656
   774G12c H00A14244   5.943   6.442   6.580
   774G12c C00P14245   5.932   6.490   6.784
   774G12c C00O14246   5.784   6.506   6.788
   774G12c C01D14247   5.718   0.032   6.670
   774G12c H00S14248   5.770   0.066   6.581
   774G12c C01E14249   5.583   0.002   6.649
   774G12c O00814250   5.538   0.007   6.519
   774G12c C01V14251   5.467   0.124   6.501
   774G12c C01Z14252   5.318   0.108   6.519
   774G12c H00R14253   5.273   0.180   6.451
   774G12c H00Q14254   5.287   0.014   6.473
   774G12c O00914255   5.280   0.153   6.646
   774G12c H00P14256   5.355   0.167   6.701
   774G12c C01W14257   5.521   0.241   6.460
   774G12c H00O14258   5.629   0.244   6.448
   774G12c C01X14259   5.450   0.372   6.453
   774G12c H00N14260   5.514   0.440   6.397
   774G12c H00M14261   5.355   0.363   6.401
   774G12c C01Y14262   5.429   0.429   6.596
   774G12c C02D14263   5.317   0.510   6.611
   774G12c H01914264   5.259   0.529   6.522
   774G12c C02C14265   5.284   0.571   6.736
   774G12c H01A14266   5.212   0.647   6.760
   774G12c C02B14267   5.359   0.529   6.851
   774G12c O00E14268   5.327   0.580   6.978
   774G12c H01B14269   5.395   0.541   7.030
   774G12c C02F14270   5.474   0.449   6.834
   774G12c O00F14271   5.548   0.421   6.945
   774G12c C02G14272   5.643   0.321   6.932
   774G12c H01714273   5.718   0.341   6.855
   774G12c H01614274   5.601   0.226   6.897
   774G12c H01514275   5.695   0.305   7.026
   774G12c C02E14276   5.503   0.393   6.711
   774G12c H01814277   5.590   0.332   6.692
   774G12c C01F14278   5.506   6.467   6.752
   774G12c C01G14279   5.386   6.396   6.739
   774G12c H00L14280   5.349   6.381   6.639
   774G12c C01H14281   5.351   6.305   6.843
   774G12c H00B14282   5.294   6.217   6.819
   774G12c C01I14283   5.402   6.324   6.971
   774G12c C01U14284   5.553   6.485   6.888
   774G12c C00S14285   6.046   6.303   7.099
   774G12c C00K14286   5.848   6.298   7.197
   774G12c C00N14287   5.693   6.478   6.899
   774G12c C00014288   5.493   6.431   7.001
   774G12c C01J14289   5.441   6.224   7.069
   774G12c C01K14290   5.373   6.095   7.085
   774G12c C01P14291   5.236   6.059   7.048
   774G12c C01Q14292   5.131   6.154   7.014
   774G12c H00G14293   5.148   6.259   7.034
   774G12c C01R14294   5.009   6.127   6.970
   774G12c H00F14295   4.981   6.024   6.955
   774G12c C01S14296   4.912   6.240   6.933
   774G12c H00E14297   4.810   6.213   6.962
   774G12c H00D14298   4.930   6.333   6.987
   774G12c O00514299   4.919   6.264   6.793
   774G12c H00C14300   4.990   6.325   6.780
   774G12c C01O14301   5.208   5.920   7.039
   774G12c H00H14302   5.113   5.884   7.004
   774G12c C01N14303   5.288   5.830   7.108
   774G12c O00614304   5.244   5.698   7.122
   774G12c C01T14305   5.269   5.616   7.003
   774G12c H00K14306   5.371   5.627   6.965
   774G12c H00J14307   5.209   5.655   6.920
   774G12c H00I14308   5.249   5.511   7.022
   774G12c C01M14309   5.412   5.866   7.164
   774G12c C02014310   5.764   6.195   7.264
   774G12c C02114311   5.810   6.101   7.359
   774G12c C01L14312   5.452   6.003   7.154
   774G12c O00714313   5.487   5.767   7.217
   774G12c C02214314   5.748   5.976   7.369
   774G12c C02314315   5.946   6.076   7.372
   774G12c C00G14316   6.186   5.953   7.293
   774G12c C00E14317   6.358   5.788   7.308
   774G12c O00A14318   6.487   5.746   7.310
   774G12c C02414319   0.036   5.829   7.403
   774G12c H00V14320   0.102   5.771   7.468
   774G12c H00U14321   6.500   5.891   7.473
   774G12c H00T14322   0.101   5.898   7.350
   784G12c C00D14323   3.515   5.625   8.509
   784G12c O00B14324   3.462   5.697   8.405
   784G12c C02514325   3.546   5.766   8.320
   784G12c C02614326   3.549   5.917   8.323
   784G12c H00Y14327   3.453   5.959   8.292
   784G12c H00X14328   3.609   5.965   8.246
   784G12c O00C14329   3.578   5.966   8.452
   784G12c H00W14330   3.669   5.988   8.467
   784G12c C02714331   3.625   5.696   8.238
   784G12c O00D14332   3.608   5.561   8.238
   784G12c H00Z14333   3.524   5.551   8.281
   784G12c C02814334   3.727   5.748   8.156
   784G12c C02914335   3.744   5.705   8.028
   784G12c H01014336   3.672   5.637   7.984
   784G12c C02T14337   3.864   5.726   7.953
   784G12c H01O14338   3.884   5.686   7.854
   784G12c C02S14339   3.957   5.808   8.004
   784G12c O00J14340   4.072   5.844   7.941
   784G12c H01P14341   4.118   5.921   7.970
   784G12c C02R14342   3.939   5.871   8.127
   784G12c O00I14343   4.048   5.949   8.174
   784G12c C02Q14344   4.040   6.016   8.300
   784G12c H01N14345   3.947   6.072   8.306
   784G12c H01R14346   4.125   6.085   8.303
   784G12c H01Q14347   4.049   5.949   8.385
   784G12c C02A14348   3.834   5.827   8.208
   784G12c H01114349   3.843   5.869   8.307
   784G12c C00C14350   3.646   5.648   8.555
   784G12c H01214351   3.715   5.723   8.521
   784G12c C00B14352   3.689   5.590   8.677
   784G12c C00A14353   3.806   5.622   8.758
   784G12c C00914354   3.939   5.651   8.715
   784G12c C00814355   4.000   5.684   8.590
   784G12c H01314356   3.940   5.703   8.502
   784G12c C00714357   4.142   5.675   8.581
   784G12c H01414358   4.193   5.688   8.487
   784G12c C00614359   4.222   5.628   8.687
   784G12c C00514360   4.156   5.586   8.802
   784G12c C00414361   4.220   5.504   8.896
   784G12c C00314362   4.139   5.446   8.996
   784G12c C00214363   4.211   5.362   9.082
   784G12c C00114364   4.176   5.293   9.203
   784G12c C00M14365   4.057   5.212   9.218
   784G12c C00L14366   3.932   5.260   9.173
   784G12c C00R14367   3.823   5.176   9.139
   784G12c C00Q14368   3.798   5.033   9.147
   784G12c C00V14369   3.672   4.993   9.083
   784G12c C00U14370   3.598   5.082   9.001
   784G12c C00T14371   3.636   5.212   8.976
   784G12c C01614372   3.581   5.301   8.885
   784G12c C01514373   3.465   5.257   8.819
   784G12c C01014374   3.410   5.128   8.853
   784G12c C01114375   3.295   5.092   8.782
   784G12c H00514376   3.251   4.994   8.785
   784G12c C01214377   3.238   5.171   8.682
   784G12c C01714378   3.118   5.116   8.612
   784G12c O00214379   3.022   5.055   8.686
   784G12c H00414380   2.962   5.018   8.622
   784G12c C01814381   3.115   5.103   8.476
   784G12c O00114382   3.224   5.135   8.400
   784G12c H00314383   3.296   5.138   8.461
   784G12c C01914384   2.990   5.069   8.399
   784G12c H00214385   2.936   5.161   8.378
   784G12c H00114386   3.010   5.030   8.299
   784G12c O00014387   2.903   4.979   8.471
   784G12c C01A14388   2.772   5.006   8.454
   784G12c C02K14389   2.693   5.022   8.570
   784G12c O00G14390   2.744   4.999   8.697
   784G12c C02M14391   2.651   5.005   8.807
   784G12c H01G14392   2.713   4.974   8.891
   784G12c H01F14393   2.565   4.939   8.795
   784G12c H01E14394   2.610   5.102   8.835
   784G12c C02J14395   2.560   5.054   8.554
   784G12c H01H14396   2.504   5.073   8.645
   784G12c C02I14397   2.491   5.065   8.431
   784G12c C02N14398   2.351   5.086   8.409
   784G12c H01M14399   2.303   5.058   8.317
   784G12c C02O14400   2.280   5.150   8.501
   784G12c H01L14401   2.322   5.176   8.597
   784G12c C02P14402   2.139   5.187   8.481
   784G12c H01K14403   2.135   5.292   8.450
   784G12c H01J14404   2.102   5.145   8.387
   784G12c O00H14405   2.056   5.164   8.587
   784G12c H01I14406   2.041   5.071   8.586
   784G12c C02H14407   2.568   5.045   8.320
   784G12c H01C14408   2.525   5.048   8.221
   784G12c C02L14409   2.710   5.029   8.328
   784G12c H01D14410   2.766   5.022   8.236
   784G12c C01314411   3.298   5.291   8.643
   784G12c H00014412   3.254   5.332   8.554
   784G12c C01414413   3.415   5.335   8.716
   784G12c C00F14414   3.482   5.455   8.676
   784G12c C00H14415   3.641   5.422   8.855
   784G12c C00I14416   3.751   5.465   8.936
   784G12c C00J14417   3.789   5.377   9.042
   784G12c C00Z14418   3.482   5.040   8.938
   784G12c C00Y14419   3.433   4.902   8.960
   784G12c H00614420   3.337   4.881   8.916
   784G12c C00X14421   3.507   4.809   9.041
   784G12c O00314422   3.472   4.681   9.071
   784G12c C01B14423   3.341   4.624   9.040
   784G12c H00914424   3.352   4.621   8.931
   784G12c H00814425   3.255   4.688   9.062
   784G12c H00714426   3.336   4.526   9.088
   784G12c C00W14427   3.629   4.856   9.097
   784G12c O00414428   3.698   4.769   9.180
   784G12c C01C14429   3.833   4.798   9.169
   784G12c H00A14430   3.889   4.729   9.109
   784G12c C00P14431   3.887   4.927   9.185
   784G12c C00O14432   4.027   4.946   9.218
   784G12c C01D14433   4.111   4.835   9.244
   784G12c H00S14434   4.059   4.740   9.245
   784G12c C01E14435   4.254   4.830   9.235
   784G12c O00814436   4.333   4.712   9.242
   784G12c C01V14437   4.289   4.614   9.318
   784G12c C01Z14438   4.333   4.610   9.461
   784G12c H00R14439   4.422   4.549   9.476
   784G12c H00Q14440   4.346   4.713   9.495
   784G12c O00914441   4.231   4.551   9.543
   784G12c H00P14442   4.249   4.462   9.570
   784G12c C01W14443   4.225   4.516   9.253
   784G12c H00O14444   4.212   4.534   9.147
   784G12c C01X14445   4.171   4.383   9.299
   784G12c H00N14446   4.169   4.325   9.208
   784G12c H00M14447   4.245   4.342   9.368
   784G12c C01Y14448   4.027   4.392   9.349
   784G12c C02D14449   3.988   4.376   9.484
   784G12c H01914450   4.060   4.372   9.564
   784G12c C02C14451   3.858   4.355   9.528
   784G12c H01A14452   3.831   4.330   9.629
   784G12c C02B14453   3.757   4.350   9.425
   784G12c O00E14454   3.629   4.304   9.456
   784G12c H01B14455   3.566   4.308   9.386
   784G12c C02F14456   3.788   4.372   9.292
   784G12c O00F14457   3.681   4.364   9.205
   784G12c C02G14458   3.717   4.357   9.070
   784G12c H01714459   3.790   4.278   9.051
   784G12c H01614460   3.750   4.454   9.032
   784G12c H01514461   3.627   4.332   9.015
   784G12c C02E14462   3.924   4.385   9.254
   784G12c H01814463   3.959   4.393   9.152
   784G12c C01F14464   4.311   4.958   9.218
   784G12c C01G14465   4.440   4.971   9.163
   784G12c H00L14466   4.503   4.884   9.152
   784G12c C01H14467   4.480   5.104   9.117
   784G12c H00B14468   4.559   5.116   9.044
   784G12c C01I14469   4.388   5.211   9.142
   784G12c C01U14470   4.236   5.076   9.241
   784G12c C00S14471   3.736   5.253   9.063
   784G12c C00K14472   3.918   5.377   9.092
   784G12c C00N14473   4.094   5.072   9.228
   784G12c C00014474   4.287   5.210   9.234
   784G12c C01J14475   4.346   5.323   9.055
   784G12c C01K14476   4.433   5.398   8.968
   784G12c C01P14477   4.580   5.414   8.961
   784G12c C01Q14478   4.664   5.341   9.054
   784G12c H00G14479   4.639   5.318   9.156
   784G12c C01R14480   4.783   5.294   9.001
   784G12c H00F14481   4.818   5.310   8.900
   784G12c C01S14482   4.870   5.195   9.068
   784G12c H00E14483   4.838   5.098   9.030
   784G12c H00D14484   4.975   5.197   9.042
   784G12c O00514485   4.855   5.179   9.205
   784G12c H00C14486   4.919   5.115   9.230
   784G12c C01O14487   4.645   5.506   8.871
   784G12c H00H14488   4.750   5.532   8.875
   784G12c C01N14489   4.566   5.560   8.766
   784G12c O00614490   4.625   5.638   8.660
   784G12c C01T14491   4.761   5.668   8.677
   784G12c H00K14492   4.826   5.580   8.675
   784G12c H00J14493   4.776   5.722   8.770
   784G12c H00I14494   4.802   5.727   8.595
   784G12c C01M14495   4.427   5.545   8.771
   784G12c C02014496   4.005   5.470   9.022
   784G12c C02114497   3.955   5.574   8.935
   784G12c C01L14498   4.357   5.482   8.883
   784G12c O00714499   4.358   5.609   8.672
   784G12c C02214500   4.024   5.618   8.826
   784G12c C02314501   3.821   5.571   8.892
   784G12c C00G14502   3.601   5.491   8.735
   784G12c C00E14503   3.435   5.533   8.567
   784G12c O00A14504   3.313   5.525   8.504
   784G12c C02414505   3.213   5.603   8.575
   784G12c H00V14506   3.212   5.707   8.541
   784G12c H00U14507   3.238   5.604   8.681
   784G12c H00T14508   3.109   5.571   8.569
   794G12c C00D14509   0.224   1.132   7.631
   794G12c O00B14510   0.119   1.046   7.665
   794G12c C02514511   0.153   0.944   7.747
   794G12c C02614512   0.101   0.963   7.890
   794G12c H00Y14513   0.081   0.874   7.949
   794G12c H00X14514   0.008   1.017   7.871
   794G12c O00C14515   0.176   1.062   7.958
   794G12c H00W14516   0.150   1.065   8.049
   794G12c C02714517   0.209   0.832   7.696
   794G12c O00D14518   0.238   0.834   7.562
   794G12c H00Z14519   0.178   0.899   7.530
   794G12c C02814520   0.263   0.739   7.785
   794G12c C02914521   0.363   0.765   7.883
   794G12c H01014522   0.393   0.868   7.884
   794G12c C02T14523   0.415   0.670   7.978
   794G12c H01O14524   0.477   0.698   8.062
   794G12c C02S14525   0.367   0.539   7.966
   794G12c O00J14526   0.417   0.444   8.053
   794G12c H01P14527   0.376   0.360   8.039
   794G12c C02R14528   0.289   0.499   7.855
   794G12c O00I14529   0.264   0.366   7.849
   794G12c C02Q14530   0.153   0.329   7.783
   794G12c H01N14531   0.129   0.223   7.794
   794G12c H01R14532   0.159   0.353   7.677
   794G12c H01Q14533   0.066   0.378   7.826
   794G12c C02A14534   0.239   0.597   7.766
   794G12c H01114535   0.169   0.564   7.691
   794G12c C00C14536   0.357   1.106   7.663
   794G12c H01214537   0.385   1.025   7.729
   794G12c C00B14538   0.459   1.190   7.618
   794G12c C00A14539   0.603   1.181   7.642
   794G12c C00914540   0.680   1.134   7.751
   794G12c C00814541   0.650   1.065   7.870
   794G12c H01314542   0.552   1.019   7.876
   794G12c C00714543   0.739   1.066   7.978
   794G12c H01414544   0.715   1.009   8.066
   794G12c C00614545   0.851   1.148   7.973
   794G12c C00514546   0.878   1.215   7.852
   794G12c C00414547   0.965   1.327   7.845
   794G12c C00314548   0.975   1.407   7.725
   794G12c C00214549   1.067   1.516   7.725
   794G12c C00114550   1.102   1.619   7.634
   794G12c C00M14551   1.013   1.692   7.552
   794G12c C00L14552   0.904   1.629   7.488
   794G12c C00R14553   0.792   1.696   7.430
   794G12c C00Q14554   0.752   1.834   7.415
   794G12c C00V14555   0.623   1.850   7.361
   794G12c C00U14556   0.526   1.745   7.355
   794G12c C00T14557   0.558   1.615   7.394
   794G12c C01614558   0.473   1.513   7.423
   794G12c C01514559   0.343   1.530   7.383
   794G12c C01014560   0.312   1.648   7.313
   794G12c C01114561   0.183   1.660   7.249
   794G12c H00514562   0.150   1.741   7.187
   794G12c C01214563   0.093   1.552   7.252
   794G12c C01714564   6.494   1.543   7.173
   794G12c O00214565   6.395   1.459   7.218
   794G12c H00414566   6.340   1.426   7.149
   794G12c C01814567   6.476   1.595   7.052
   794G12c O00114568   0.055   1.661   6.979
   794G12c H00314569   0.136   1.613   6.991
   794G12c C01914570   6.352   1.574   6.965
   794G12c H00214571   6.280   1.654   6.979
   794G12c H00114572   6.390   1.574   6.863
   794G12c O00014573   6.297   1.444   6.977
   794G12c C01A14574   6.162   1.417   7.001
   794G12c C02K14575   6.129   1.287   7.041
   794G12c O00G14576   6.231   1.199   7.063
   794G12c C02M14577   6.230   1.151   7.196
   794G12c H01G14578   6.251   1.235   7.262
   794G12c H01F14579   6.323   1.101   7.222
   794G12c H01E14580   6.146   1.094   7.237
   794G12c C02J14581   5.992   1.255   7.066
   794G12c H01H14582   5.974   1.155   7.103
   794G12c C02I14583   5.882   1.348   7.055
   794G12c C02N14584   5.743   1.314   7.070
   794G12c H01M14585   5.669   1.390   7.093
   794G12c C02O14586   5.699   1.193   7.086
   794G12c H01L14587   5.757   1.102   7.087
   794G12c C02P14588   5.557   1.150   7.122
   794G12c H01K14589   5.564   1.107   7.221
   794G12c H01J14590   5.495   1.239   7.133
   794G12c O00H14591   5.501   1.062   7.031
   794G12c H01I14592   5.481   1.113   6.953
   794G12c C02H14593   5.925   1.472   7.007
   794G12c H01C14594   5.848   1.545   6.985
   794G12c C02L14595   6.055   1.512   6.985
   794G12c H01D14596   6.083   1.608   6.944
   794G12c C01314597   0.129   1.441   7.333
   794G12c H00014598   0.059   1.358   7.333
   794G12c C01414599   0.253   1.426   7.400
   794G12c C00F14600   0.289   1.324   7.491
   794G12c C00H14601   0.515   1.390   7.482
   794G12c C00I14602   0.652   1.370   7.497
   794G12c C00J14603   0.740   1.474   7.456
   794G12c C00Z14604   0.401   1.759   7.300
   794G12c C00Y14605   0.366   1.888   7.256
   794G12c H00614606   0.267   1.907   7.216
   794G12c C00X14607   0.451   2.001   7.272
   794G12c O00314608   0.410   2.129   7.238
   794G12c C01B14609   0.319   2.155   7.131
   794G12c H00914610   0.294   2.260   7.121
   794G12c H00814611   0.228   2.095   7.139
   794G12c H00714612   0.360   2.127   7.034
   794G12c C00W14613   0.579   1.984   7.326
   794G12c O00414614   0.651   2.101   7.352
   794G12c C01C14615   0.772   2.087   7.415
   794G12c H00A14616   0.826   2.178   7.431
   794G12c C00P14617   0.823   1.957   7.458
   794G12c C00O14618   0.925   1.947   7.562
   794G12c C01D14619   0.942   2.058   7.644
   794G12c H00S14620   0.885   2.150   7.636
   794G12c C01E14621   1.026   2.056   7.761
   794G12c O00814622   1.029   2.162   7.854
   794G12c C01V14623   1.076   2.280   7.797
   794G12c C01Z14624   0.970   2.385   7.830
   794G12c H00R14625   1.004   2.485   7.802
   794G12c H00Q14626   0.882   2.373   7.767
   794G12c O00914627   0.956   2.381   7.968
   794G12c H00P14628   0.956   2.291   7.996
   794G12c C01W14629   1.183   2.296   7.721
   794G12c H00O14630   1.255   2.217   7.705
   794G12c C01X14631   1.205   2.422   7.639
   794G12c H00N14632   1.153   2.513   7.671
   794G12c H00M14633   1.310   2.446   7.655
   794G12c C01Y14634   1.163   2.386   7.497
   794G12c C02D14635   1.248   2.304   7.427
   794G12c H01914636   1.346   2.289   7.470
   794G12c C02C14637   1.218   2.258   7.298
   794G12c H01A14638   1.294   2.201   7.246
   794G12c C02B14639   1.085   2.274   7.254
   794G12c O00E14640   1.042   2.211   7.142
   794G12c H01B14641   0.948   2.197   7.140
   794G12c C02F14642   0.995   2.356   7.326
   794G12c O00F14643   0.869   2.358   7.288
   794G12c C02G14644   0.786   2.467   7.316
   794G12c H01714645   0.832   2.554   7.270
   794G12c H01614646   0.787   2.476   7.425
   794G12c H01514647   0.691   2.464   7.263
   794G12c C02E14648   1.039   2.420   7.443
   794G12c H01814649   0.976   2.484   7.503
   794G12c C01F14650   1.087   1.935   7.796
   794G12c C01G14651   1.141   1.904   7.926
   794G12c H00L14652   1.139   1.989   7.993
   794G12c C01H14653   1.185   1.773   7.954
   794G12c H00B14654   1.191   1.741   8.057
   794G12c C01I14655   1.185   1.675   7.849
   794G12c C01U14656   1.099   1.836   7.698
   794G12c C00S14657   0.691   1.599   7.422
   794G12c C00K14658   0.869   1.494   7.516
   794G12c C00N14659   1.003   1.832   7.592
   794G12c C00014660   1.167   1.712   7.714
   794G12c C01J14661   1.138   1.542   7.850
   794G12c C01K14662   1.142   1.453   7.963
   794G12c C01P14663   1.227   1.460   8.082
   794G12c C01Q14664   1.342   1.552   8.080
   794G12c H00G14665   1.377   1.602   7.991
   794G12c C01R14666   1.411   1.575   8.194
   794G12c H00F14667   1.397   1.533   8.293
   794G12c C01S14668   1.532   1.671   8.191
   794G12c H00E14669   1.513   1.756   8.125
   794G12c H00D14670   1.553   1.697   8.294
   794G12c O00514671   1.645   1.587   8.161
   794G12c H00C14672   1.644   1.537   8.081
   794G12c C01O14673   1.210   1.359   8.180
   794G12c H00H14674   1.284   1.357   8.259
   794G12c C01N14675   1.111   1.263   8.179
   794G12c O00614676   1.089   1.162   8.274
   794G12c C01T14677   1.187   1.129   8.371
   794G12c H00K14678   1.156   1.052   8.442
   794G12c H00J14679   1.186   1.214   8.438
   794G12c H00I14680   1.287   1.105   8.336
   794G12c C01M14681   1.025   1.265   8.068
   794G12c C02014682   0.894   1.387   7.613
   794G12c C02114683   0.818   1.265   7.623
   794G12c C01L14684   1.040   1.355   7.957
   794G12c O00714685   0.919   1.177   8.079
   794G12c C02214686   0.806   1.191   7.737
   794G12c C02314687   0.686   1.261   7.568
   794G12c C00G14688   0.421   1.298   7.529
   794G12c C00E14689   0.187   1.240   7.547
   794G12c O00A14690   0.056   1.263   7.535
   794G12c C02414691   6.515   1.304   7.659
   794G12c H00V14692   0.047   1.378   7.719
   794G12c H00U14693   6.503   1.226   7.734
   794G12c H00T14694   6.422   1.352   7.629
   804G12c C00D14695   5.773   2.673   5.797
   804G12c O00B14696   5.688   2.576   5.755
   804G12c C02514697   5.731   2.448   5.749
   804G12c C02614698   5.769   2.403   5.611
   804G12c H00Y14699   5.820   2.307   5.613
   804G12c H00X14700   5.841   2.473   5.570
   804G12c O00C14701   5.648   2.400   5.536
   804G12c H00W14702   5.581   2.443   5.588
   804G12c C02714703   5.732   2.380   5.866
   804G12c O00D14704   5.685   2.437   5.985
   804G12c H00Z14705   5.726   2.521   5.998
   804G12c C02814706   5.762   2.238   5.875
   804G12c C02914707   5.700   2.141   5.795
   804G12c H01014708   5.630   2.165   5.716
   804G12c C02T14709   5.718   2.005   5.818
   804G12c H01O14710   5.682   1.928   5.752
   804G12c C02S14711   5.797   1.961   5.926
   804G12c O00J14712   5.821   1.825   5.940
   804G12c H01P14713   5.877   1.807   6.014
   804G12c C02R14714   5.867   2.056   6.003
   804G12c O00I14715   5.950   2.003   6.099
   804G12c C02Q14716   6.008   2.096   6.188
   804G12c H01N14717   6.077   2.168   6.144
   804G12c H01R14718   6.071   2.038   6.256
   804G12c H01Q14719   5.945   2.157   6.253
   804G12c C02A14720   5.846   2.193   5.979
   804G12c H01114721   5.880   2.275   6.040
   804G12c C00C14722   5.910   2.648   5.827
   804G12c H01214723   5.951   2.549   5.815
   804G12c C00B14724   5.997   2.752   5.859
   804G12c C00A14725   6.134   2.748   5.904
   804G12c C00914726   6.200   2.647   5.983
   804G12c C00814727   6.163   2.518   6.030
   804G12c H01314728   6.072   2.471   5.998
   804G12c C00714729   6.227   2.473   6.154
   804G12c H01414730   6.188   2.384   6.199
   804G12c C00614731   6.324   2.549   6.218
   804G12c C00514732   6.364   2.666   6.156
   804G12c C00414733   6.436   2.761   6.230
   804G12c C00314734   6.445   2.896   6.184
   804G12c C00214735   0.002   2.981   6.267
   804G12c C00114736   0.030   3.120   6.260
   804G12c C00M14737   6.450   3.219   6.231
   804G12c C00L14738   6.364   3.209   6.121
   804G12c C00R14739   6.247   3.286   6.101
   804G12c C00Q14740   6.192   3.397   6.174
   804G12c C00V14741   6.059   3.432   6.128
   804G12c C00U14742   5.981   3.348   6.046
   804G12c C00T14743   6.034   3.236   5.994
   804G12c C01614744   5.964   3.126   5.939
   804G12c C01514745   5.827   3.146   5.929
   804G12c C01014746   5.766   3.268   5.967
   804G12c C01114747   5.626   3.279   5.952
   804G12c H00514748   5.577   3.371   5.980
   804G12c C01214749   5.543   3.186   5.897
   804G12c C01714750   5.411   3.213   5.856
   804G12c O00214751   5.320   3.248   5.953
   804G12c H00414752   5.343   3.255   6.044
   804G12c C01814753   5.376   3.195   5.724
   804G12c O00114754   5.463   3.157   5.628
   804G12c H00314755   5.415   3.193   5.556
   804G12c C01914756   5.229   3.216   5.665
   804G12c H00214757   5.186   3.116   5.662
   804G12c H00114758   5.165   3.276   5.730
   804G12c O00014759   5.245   3.255   5.529
   804G12c C01A14760   5.238   3.395   5.511
   804G12c C02K14761   5.342   3.461   5.440
   804G12c O00G14762   5.447   3.393   5.392
   804G12c C02M14763   5.414   3.320   5.276
   804G12c H01G14764   5.493   3.296   5.204
   804G12c H01F14765   5.341   3.372   5.214
   804G12c H01E14766   5.377   3.223   5.309
   804G12c C02J14767   5.336   3.601   5.421
   804G12c H01H14768   5.425   3.649   5.382
   804G12c C02I14769   5.229   3.686   5.462
   804G12c C02N14770   5.229   3.833   5.453
   804G12c H01M14771   5.267   3.888   5.368
   804G12c C02O14772   5.187   3.898   5.560
   804G12c H01L14773   5.151   3.844   5.646
   804G12c C02P14774   5.174   4.054   5.571
   804G12c H01K14775   5.216   4.085   5.667
   804G12c H01J14776   5.222   4.098   5.484
   804G12c O00H14777   5.034   4.086   5.565
   804G12c H01I14778   5.030   4.179   5.580
   804G12c C02H14779   5.117   3.616   5.515
   804G12c H01C14780   5.031   3.677   5.537
   804G12c C02L14781   5.122   3.474   5.532
   804G12c H01D14782   5.028   3.434   5.567
   804G12c C01314783   5.609   3.068   5.858
   804G12c H00014784   5.542   2.994   5.816
   804G12c C01414785   5.746   3.041   5.880
   804G12c C00F14786   5.802   2.911   5.855
   804G12c C00H14787   6.020   2.999   5.913
   804G12c C00I14788   6.159   2.994   5.917
   804G12c C00J14789   6.232   3.105   5.965
   804G12c C00Z14790   5.845   3.372   6.027
   804G12c C00Y14791   5.790   3.500   6.061
   804G12c H00614792   5.687   3.526   6.040
   804G12c C00X14793   5.860   3.590   6.138
   804G12c O00314794   5.794   3.705   6.175
   804G12c C01B14795   5.851   3.816   6.126
   804G12c H00914796   5.790   3.905   6.142
   804G12c H00814797   5.874   3.816   6.020
   804G12c H00714798   5.947   3.831   6.175
   804G12c C00W14799   5.994   3.553   6.172
   804G12c O00414800   6.051   3.628   6.268
   804G12c C01C14801   6.173   3.595   6.318
   804G12c H00A14802   6.222   3.661   6.389
   804G12c C00P14803   6.238   3.471   6.286
   804G12c C00O14804   6.342   3.414   6.373
   804G12c C01D14805   6.354   3.464   6.505
   804G12c H00S14806   6.285   3.539   6.541
   804G12c C01E14807   6.436   3.408   6.604
   804G12c O00814808   6.438   3.451   6.734
   804G12c C01V14809   6.422   3.586   6.747
   804G12c C01Z14810   0.033   3.664   6.744
   804G12c H00R14811   0.060   3.714   6.836
   804G12c H00Q14812   0.116   3.594   6.731
   804G12c O00914813   0.015   3.741   6.635
   804G12c H00P14814   0.004   3.677   6.566
   804G12c C01W14815   6.299   3.641   6.771
   804G12c H00O14816   6.212   3.577   6.767
   804G12c C01X14817   6.264   3.789   6.797
   804G12c H00N14818   6.192   3.803   6.877
   804G12c H00M14819   6.351   3.835   6.843
   804G12c C01Y14820   6.217   3.846   6.666
   804G12c C02D14821   6.096   3.798   6.606
   804G12c H01914822   6.037   3.714   6.639
   804G12c C02C14823   6.049   3.857   6.491
   804G12c H01A14824   5.955   3.818   6.454
   804G12c C02B14825   6.111   3.964   6.430
   804G12c O00E14826   6.055   4.031   6.325
   804G12c H01B14827   6.125   4.083   6.289
   804G12c C02F14828   6.229   4.014   6.486
   804G12c O00F14829   6.274   4.124   6.424
   804G12c C02G14830   6.359   4.209   6.497
   804G12c H01714831   6.421   4.266   6.428
   804G12c H01614832   6.431   4.162   6.564
   804G12c H01514833   6.303   4.281   6.556
   804G12c C02E14834   6.290   3.949   6.599
   804G12c H01814835   6.380   3.987   6.645
   804G12c C01F14836   6.510   3.292   6.574
   804G12c C01G14837   0.041   3.197   6.664
   804G12c H00L14838   0.034   3.209   6.771
   804G12c C01H14839   0.081   3.068   6.605
   804G12c H00B14840   0.092   2.989   6.679
   804G12c C01I14841   0.098   3.048   6.466
   804G12c C01U14842   0.011   3.265   6.436
   804G12c C00S14843   6.169   3.221   6.015
   804G12c C00K14844   6.344   3.086   6.049
   804G12c C00N14845   6.434   3.312   6.343
   804G12c C00014846   0.084   3.154   6.386
   804G12c C01J14847   0.063   2.932   6.386
   804G12c C01K14848   0.067   2.794   6.425
   804G12c C01P14849   0.135   2.736   6.541
   804G12c C01Q14850   0.253   2.800   6.598
   804G12c H00G14851   0.327   2.848   6.537
   804G12c C01R14852   0.275   2.798   6.731
   804G12c H00F14853   0.208   2.751   6.802
   804G12c C01S14854   0.396   2.871   6.787
   804G12c H00E14855   0.396   2.960   6.724
   804G12c H00D14856   0.395   2.902   6.891
   804G12c O00514857   0.509   2.789   6.766
   804G12c H00C14858   0.516   2.772   6.673
   804G12c C01O14859   0.115   2.604   6.577
   804G12c H00H14860   0.175   2.560   6.655
   804G12c C01N14861   0.018   2.534   6.505
   804G12c O00614862   6.488   2.417   6.550
   804G12c C01T14863   0.017   2.357   6.665
   804G12c H00K14864   6.491   2.258   6.675
   804G12c H00J14865   6.518   2.416   6.755
   804G12c H00I14866   0.118   2.320   6.652
   804G12c C01M14867   6.476   2.585   6.390
   804G12c C02014868   6.383   2.945   6.069
   804G12c C02114869   6.332   2.839   5.982
   804G12c C01L14870   6.500   2.720   6.346
   804G12c O00714871   6.382   2.502   6.332
   804G12c C02214872   6.311   2.713   6.036
   804G12c C02314873   6.212   2.863   5.906
   804G12c C00G14874   5.942   2.887   5.873
   804G12c C00E14875   5.725   2.801   5.800
   804G12c O00A14876   5.602   2.809   5.749
   804G12c C02414877   5.600   2.837   5.611
   804G12c H00V14878   5.677   2.907   5.579
   804G12c H00U14879   5.503   2.880   5.584
   804G12c H00T14880   5.609   2.749   5.548
   814G12c C00D14881   1.190   2.620   4.819
   814G12c O00B14882   1.122   2.718   4.897
   814G12c C02514883   1.184   2.831   4.939
   814G12c C02614884   1.236   2.813   5.083
   814G12c H00Y14885   1.176   2.733   5.129
   814G12c H00X14886   1.228   2.905   5.140
   814G12c O00C14887   1.363   2.759   5.081
   814G12c H00W14888   1.358   2.673   5.041
   814G12c C02714889   1.205   2.938   4.861
   814G12c O00D14890   1.154   2.928   4.732
   814G12c H00Z14891   1.104   2.849   4.743
   814G12c C02814892   1.253   3.060   4.910
   814G12c C02914893   1.186   3.144   5.003
   814G12c H01014894   1.095   3.115   5.052
   814G12c C02T14895   1.232   3.271   5.043
   814G12c H01O14896   1.185   3.332   5.119
   814G12c C02S14897   1.341   3.326   4.968
   814G12c O00J14898   1.372   3.455   4.991
   814G12c H01P14899   1.430   3.483   4.922
   814G12c C02R14900   1.414   3.248   4.879
   814G12c O00I14901   1.517   3.304   4.812
   814G12c C02Q14902   1.628   3.225   4.775
   814G12c H01N14903   1.668   3.167   4.858
   814G12c H01R14904   1.702   3.284   4.720
   814G12c H01Q14905   1.593   3.149   4.705
   814G12c C02A14906   1.367   3.117   4.851
   814G12c H01114907   1.424   3.056   4.782
   814G12c C00C14908   1.321   2.630   4.776
   814G12c H01214909   1.382   2.717   4.796
   814G12c C00B14910   1.386   2.533   4.702
   814G12c C00A14911   1.507   2.556   4.635
   814G12c C00914912   1.550   2.679   4.576
   814G12c C00814913   1.514   2.817   4.578
   814G12c H01314914   1.445   2.853   4.654
   814G12c C00714915   1.575   2.901   4.480
   814G12c H01414916   1.556   3.007   4.476
   814G12c C00614917   1.652   2.853   4.370
   814G12c C00514918   1.672   2.715   4.368
   814G12c C00414919   1.726   2.648   4.254
   814G12c C00314920   1.724   2.509   4.246
   814G12c C00214921   1.769   2.453   4.119
   814G12c C00114922   1.769   2.322   4.064
   814G12c C00M14923   1.676   2.217   4.091
   814G12c C00L14924   1.628   2.186   4.221
   814G12c C00R14925   1.505   2.123   4.245
   814G12c C00Q14926   1.408   2.059   4.160
   814G12c C00V14927   1.294   2.011   4.228
   814G12c C00U14928   1.256   2.048   4.355
   814G12c C00T14929   1.335   2.136   4.426
   814G12c C01614930   1.294   2.215   4.531
   814G12c C01514931   1.168   2.184   4.585
   814G12c C01014932   1.094   2.074   4.532
   814G12c C01114933   0.975   2.040   4.599
   814G12c H00514934   0.917   1.957   4.562
   814G12c C01214935   0.913   2.118   4.700
   814G12c C01714936   0.787   2.085   4.754
   814G12c O00214937   0.689   2.179   4.761
   814G12c H00414938   0.614   2.128   4.789
   814G12c C01814939   0.761   1.954   4.794
   814G12c O00114940   0.859   1.861   4.801
   814G12c H00314941   0.945   1.887   4.772
   814G12c C01914942   0.632   1.893   4.839
   814G12c H00214943   0.594   1.837   4.753
   814G12c H00114944   0.648   1.832   4.927
   814G12c O00014945   0.531   1.990   4.856
   814G12c C01A14946   0.408   1.949   4.908
   814G12c C02K14947   0.324   2.049   4.956
   814G12c O00G14948   0.358   2.179   4.941
   814G12c C02M14949   0.259   2.276   4.897
   814G12c H01G14950   0.157   2.251   4.926
   814G12c H01F14951   0.264   2.274   4.789
   814G12c H01E14952   0.280   2.379   4.926
   814G12c C02J14953   0.196   2.009   5.004
   814G12c H01H14954   0.132   2.082   5.051
   814G12c C02I14955   0.151   1.870   5.010
   814G12c C02N14956   0.022   1.857   5.066
   814G12c H01M14957   6.479   1.942   5.085
   814G12c C02O14958   6.498   1.733   5.103
   814G12c H01L14959   0.038   1.644   5.093
   814G12c C02P14960   6.356   1.711   5.162
   814G12c H01K14961   6.290   1.798   5.172
   814G12c H01J14962   6.306   1.639   5.097
   814G12c O00H14963   6.385   1.645   5.287
   814G12c H01I14964   6.387   1.553   5.266
   814G12c C02H14965   0.235   1.773   4.968
   814G12c H01C14966   0.218   1.666   4.969
   814G12c C02L14967   0.366   1.814   4.920
   814G12c H01D14968   0.430   1.733   4.888
   814G12c C01314969   0.983   2.239   4.731
   814G12c H00014970   0.936   2.296   4.809
   814G12c C01414971   1.113   2.273   4.680
   814G12c C00F14972   1.183   2.393   4.711
   814G12c C00H14973   1.375   2.319   4.581
   814G12c C00I14974   1.507   2.334   4.529
   814G12c C00J14975   1.548   2.243   4.430
   814G12c C00Z14976   1.133   2.008   4.416
   814G12c C00Y14977   1.057   1.906   4.355
   814G12c H00614978   0.966   1.864   4.394
   814G12c C00X14979   1.103   1.852   4.234
   814G12c O00314980   1.030   1.752   4.186
   814G12c C01B14981   1.079   1.654   4.098
   814G12c H00914982   1.015   1.567   4.090
   814G12c H00814983   1.180   1.622   4.123
   814G12c H00714984   1.077   1.685   3.993
   814G12c C00W14985   1.211   1.914   4.165
   814G12c O00414986   1.242   1.870   4.039
   814G12c C01C14987   1.301   1.963   3.956
   814G12c H00A14988   1.228   2.007   3.890
   814G12c C00P14989   1.403   2.049   4.015
   814G12c C00O14990   1.482   2.132   3.928
   814G12c C01D14991   1.436   2.150   3.796
   814G12c H00S14992   1.352   2.094   3.758
   814G12c C01E14993   1.495   2.240   3.705
   814G12c O00814994   1.445   2.277   3.583
   814G12c C01V14995   1.306   2.300   3.570
   814G12c C01Z14996   1.254   2.215   3.460
   814G12c H00R14997   1.160   2.252   3.418
   814G12c H00Q14998   1.330   2.210   3.382
   814G12c O00914999   1.234   2.081   3.510
   814G12c H00P15000   1.317   2.050   3.543
   814G12c C01W15001   1.235   2.373   3.663
   814G12c H00O15002   1.299   2.430   3.730
   814G12c C01X15003   1.078   2.386   3.688
   814G12c H00N15004   1.051   2.486   3.723
   814G12c H00M15005   1.032   2.372   3.589
   814G12c C01Y15006   1.040   2.273   3.779
   814G12c C02D15007   1.012   2.317   3.912
   814G12c H01915008   1.039   2.415   3.947
   814G12c C02C15009   0.959   2.228   4.001
   814G12c H01A15010   0.941   2.260   4.102
   814G12c C02B15011   0.947   2.093   3.965
   814G12c O00E15012   0.894   2.001   4.054
   814G12c H01B15013   0.895   1.915   4.015
   814G12c C02F15014   0.980   2.047   3.837
   814G12c O00F15015   0.958   1.918   3.808
   814G12c C02G15016   1.012   1.864   3.689
   814G12c H01715017   0.938   1.883   3.610
   814G12c H01615018   1.014   1.755   3.699
   814G12c H01515019   1.111   1.890   3.654
   814G12c C02E15020   1.024   2.142   3.741
   814G12c H01815021   1.032   2.122   3.635
   814G12c C01F15022   1.596   2.321   3.753
   814G12c C01G15023   1.637   2.444   3.690
   814G12c H00L15024   1.585   2.469   3.599
   814G12c C01H15025   1.721   2.533   3.769
   814G12c H00B15026   1.731   2.637   3.741
   814G12c C01I15027   1.779   2.479   3.886
   814G12c C01U15028   1.666   2.281   3.872
   814G12c C00S15029   1.463   2.154   4.376
   814G12c C00K15030   1.634   2.292   4.324
   814G12c C00N15031   1.604   2.196   3.967
   814G12c C00015032   1.775   2.344   3.923
   814G12c C01J15033   1.804   2.544   4.011
   814G12c C01K15034   1.826   2.684   4.028
   814G12c C01P15035   1.887   2.775   3.934
   814G12c C01Q15036   1.970   2.708   3.839
   814G12c H00G15037   2.013   2.610   3.857
   814G12c C01R15038   2.010   2.762   3.722
   814G12c H00F15039   1.976   2.863   3.700
   814G12c C01S15040   2.110   2.701   3.625
   814G12c H00E15041   2.181   2.638   3.681
   814G12c H00D15042   2.056   2.634   3.559
   814G12c O00515043   2.174   2.805   3.549
   814G12c H00C15044   2.203   2.767   3.468
   814G12c C01O15045   1.881   2.911   3.959
   814G12c H00H15046   1.927   2.984   3.895
   814G12c C01N15047   1.817   2.957   4.075
   814G12c O00615048   1.826   3.086   4.113
   814G12c C01T15049   1.800   3.193   4.024
   814G12c H00K15050   1.737   3.169   3.938
   814G12c H00J15051   1.885   3.241   3.974
   814G12c H00I15052   1.738   3.263   4.079
   814G12c C01M15053   1.771   2.869   4.169
   814G12c C02015054   1.677   2.425   4.354
   814G12c C02115055   1.653   2.497   4.469
   814G12c C01L15056   1.772   2.734   4.148
   814G12c O00715057   1.702   2.929   4.268
   814G12c C02215058   1.641   2.631   4.475
   814G12c C02315059   1.574   2.446   4.571
   814G12c C00G15060   1.319   2.412   4.672
   814G12c C00E15061   1.117   2.503   4.783
   814G12c O00A15062   0.983   2.505   4.822
   814G12c C02415063   0.958   2.493   4.959
   814G12c H00V15064   0.963   2.391   4.997
   814G12c H00U15065   0.851   2.512   4.972
   814G12c H00T15066   1.020   2.560   5.018
   824G12c C00D15067   4.936   3.368   6.653
   824G12c O00B15068   4.858   3.330   6.542
   824G12c C02515069   4.905   3.348   6.414
   824G12c C02615070   4.939   3.219   6.346
   824G12c H00Y15071   4.927   3.242   6.240
   824G12c H00X15072   4.853   3.156   6.370
   824G12c O00C15073   5.061   3.163   6.378
   824G12c H00W15074   5.049   3.072   6.399
   824G12c C02715075   4.895   3.472   6.362
   824G12c O00D15076   4.843   3.578   6.436
   824G12c H00Z15077   4.821   3.540   6.520
   824G12c C02815078   4.929   3.508   6.222
   824G12c C02915079   5.041   3.455   6.156
   824G12c H01015080   5.099   3.374   6.199
   824G12c C02T15081   5.082   3.502   6.031
   824G12c H01O15082   5.163   3.458   5.974
   824G12c C02S15083   5.007   3.600   5.967
   824G12c O00J15084   5.047   3.633   5.846
   824G12c H01P15085   4.991   3.701   5.811
   824G12c C02R15086   4.894   3.659   6.028
   824G12c O00I15087   4.835   3.765   5.960
   824G12c C02Q15088   4.750   3.856   6.033
   824G12c H01N15089   4.808   3.914   6.104
   824G12c H01R15090   4.687   3.790   6.093
   824G12c H01Q15091   4.700   3.929   5.968
   824G12c C02A15092   4.854   3.609   6.157
   824G12c H01115093   4.764   3.647   6.205
   824G12c C00C15094   5.078   3.363   6.648
   824G12c H01215095   5.128   3.341   6.554
   824G12c C00B15096   5.151   3.390   6.764
   824G12c C00A15097   5.293   3.373   6.784
   824G12c C00915098   5.379   3.271   6.732
   824G12c C00815099   5.366   3.174   6.628
   824G12c H01315100   5.285   3.163   6.557
   824G12c C00715101   5.458   3.060   6.628
   824G12c H01415102   5.457   2.974   6.563
   824G12c C00615103   5.552   3.043   6.734
   824G12c C00515104   5.565   3.143   6.830
   824G12c C00415105   5.635   3.126   6.952
   824G12c C00315106   5.622   3.220   7.060
   824G12c C00215107   5.690   3.183   7.184
   824G12c C00115108   5.696   3.249   7.317
   824G12c C00M15109   5.578   3.300   7.380
   824G12c C00L15110   5.474   3.369   7.313
   824G12c C00R15111   5.344   3.409   7.363
   824G12c C00Q15112   5.286   3.382   7.489
   824G12c C00V15113   5.148   3.416   7.488
   824G12c C00U15114   5.072   3.455   7.370
   824G12c C00T15115   5.133   3.461   7.248
   824G12c C01615116   5.071   3.456   7.123
   824G12c C01515117   4.934   3.471   7.128
   824G12c C01015118   4.867   3.491   7.249
   824G12c C01115119   4.733   3.526   7.245
   824G12c H00515120   4.677   3.541   7.336
   824G12c C01215121   4.661   3.548   7.124
   824G12c C01715122   4.526   3.586   7.114
   824G12c O00215123   4.439   3.482   7.106
   824G12c H00415124   4.481   3.406   7.144
   824G12c C01815125   4.500   3.711   7.084
   824G12c O00115126   4.590   3.814   7.086
   824G12c H00315127   4.535   3.881   7.049
   824G12c C01915128   4.371   3.764   7.035
   824G12c H00215129   4.294   3.686   7.031
   824G12c H00115130   4.333   3.839   7.104
   824G12c O00015131   4.395   3.832   6.916
   824G12c C01A15132   4.285   3.885   6.855
   824G12c C02K15133   4.211   3.803   6.767
   824G12c O00G15134   4.249   3.674   6.758
   824G12c C02M15135   4.148   3.578   6.786
   824G12c H01G15136   4.195   3.480   6.795
   824G12c H01F15137   4.068   3.579   6.712
   824G12c H01E15138   4.114   3.606   6.885
   824G12c C02J15139   4.092   3.856   6.710
   824G12c H01H15140   4.038   3.796   6.638
   824G12c C02I15141   4.059   3.989   6.734
   824G12c C02N15142   3.949   4.065   6.676
   824G12c H01M15143   3.951   4.173   6.678
   824G12c C02O15144   3.848   4.002   6.612
   824G12c H01L15145   3.855   3.895   6.622
   824G12c C02P15146   3.746   4.056   6.516
   824G12c H01K15147   3.770   4.162   6.504
   824G12c H01J15148   3.760   4.018   6.415
   824G12c O00H15149   3.621   4.023   6.563
   824G12c H01I15150   3.616   4.061   6.650
   824G12c C02H15151   4.140   4.063   6.823
   824G12c H01C15152   4.109   4.165   6.839
   824G12c C02L15153   4.250   4.013   6.890
   824G12c H01D15154   4.306   4.078   6.956
   824G12c C01315155   4.733   3.530   7.009
   824G12c H00015156   4.676   3.533   6.918
   824G12c C01415157   4.868   3.478   7.007
   824G12c C00F15158   4.940   3.445   6.884
   824G12c C00H15159   5.150   3.453   7.005
   824G12c C00I15160   5.288   3.450   7.013
   824G12c C00J15161   5.353   3.458   7.140
   824G12c C00Z15162   4.934   3.478   7.369
   824G12c C00Y15163   4.871   3.488   7.497
   824G12c H00615164   4.769   3.521   7.507
   824G12c C00X15165   4.942   3.458   7.616
   824G12c O00315166   4.885   3.460   7.747
   824G12c C01B15167   4.747   3.487   7.752
   824G12c H00915168   4.738   3.589   7.715
   824G12c H00815169   4.705   3.486   7.853
   824G12c H00715170   4.694   3.410   7.694
   824G12c C00W15171   5.078   3.416   7.609
   824G12c O00415172   5.133   3.382   7.725
   824G12c C01C15173   5.257   3.318   7.724
   824G12c H00A15174   5.302   3.296   7.820
   824G12c C00P15175   5.336   3.309   7.606
   824G12c C00O15176   5.461   3.231   7.604
   824G12c C01D15177   5.483   3.142   7.719
   824G12c H00S15178   5.425   3.142   7.810
   824G12c C01E15179   5.579   3.039   7.714
   824G12c O00815180   5.596   2.960   7.828
   824G12c C01V15181   5.630   3.030   7.940
   824G12c C01Z15182   5.768   3.082   7.930
   824G12c H00R15183   5.827   3.064   8.020
   824G12c H00Q15184   5.826   3.029   7.854
   824G12c O00915185   5.769   3.221   7.908
   824G12c H00P15186   5.730   3.229   7.822
   824G12c C01W15187   5.549   3.046   8.047
   824G12c H00O15188   5.450   3.003   8.039
   824G12c C01X15189   5.571   3.123   8.172
   824G12c H00N15190   5.550   3.055   8.255
   824G12c H00M15191   5.677   3.149   8.176
   824G12c C01Y15192   5.476   3.240   8.162
   824G12c C02D15193   5.357   3.234   8.238
   824G12c H01915194   5.333   3.156   8.309
   824G12c C02C15195   5.248   3.324   8.202
   824G12c H01A15196   5.146   3.306   8.233
   824G12c C02B15197   5.279   3.433   8.120
   824G12c O00E15198   5.183   3.529   8.090
   824G12c H01B15199   5.226   3.589   8.031
   824G12c C02F15200   5.406   3.442   8.052
   824G12c O00F15201   5.408   3.548   7.971
   824G12c C02G15202   5.483   3.550   7.852
   824G12c H01715203   5.457   3.458   7.800
   824G12c H01615204   5.587   3.539   7.883
   824G12c H01515205   5.473   3.640   7.791
   824G12c C02E15206   5.503   3.339   8.067
   824G12c H01815207   5.603   3.351   8.028
   824G12c C01F15208   5.663   3.032   7.604
   824G12c C01G15209   5.730   2.914   7.553
   824G12c H00L15210   5.728   2.826   7.616
   824G12c C01H15211   5.778   2.909   7.413
   824G12c H00B15212   5.783   2.807   7.377
   824G12c C01I15213   5.774   3.025   7.332
   824G12c C01U15214   5.677   3.141   7.515
   824G12c C00S15215   5.272   3.456   7.255
   824G12c C00K15216   5.475   3.391   7.174
   824G12c C00N15217   5.563   3.224   7.502
   824G12c C00015218   5.757   3.152   7.398
   824G12c C01J15219   5.757   3.054   7.192
   824G12c C01K15220   5.781   2.965   7.080
   824G12c C01P15221   5.873   2.863   7.071
   824G12c C01Q15222   5.976   2.838   7.172
   824G12c H00G15223   6.033   2.918   7.217
   824G12c C01R15224   5.989   2.710   7.214
   824G12c H00F15225   5.925   2.634   7.170
   824G12c C01S15226   6.084   2.680   7.319
   824G12c H00E15227   6.135   2.774   7.342
   824G12c H00D15228   6.019   2.656   7.403
   824G12c O00515229   6.167   2.575   7.288
   824G12c H00C15230   6.113   2.502   7.260
   824G12c C01O15231   5.894   2.799   6.952
   824G12c H00H15232   5.970   2.723   6.959
   824G12c C01N15233   5.809   2.821   6.840
   824G12c O00615234   5.821   2.742   6.735
   824G12c C01T15235   5.879   2.815   6.629
   824G12c H00K15236   5.963   2.878   6.660
   824G12c H00J15237   5.826   2.898   6.583
   824G12c H00I15238   5.895   2.749   6.545
   824G12c C01M15239   5.722   2.926   6.850
   824G12c C02015240   5.534   3.336   7.053
   824G12c C02115241   5.485   3.361   6.919
   824G12c C01L15242   5.712   3.008   6.965
   824G12c O00715243   5.624   2.928   6.749
   824G12c C02215244   5.495   3.266   6.820
   824G12c C02315245   5.356   3.419   6.897
   824G12c C00G15246   5.081   3.435   6.883
   824G12c C00E15247   4.867   3.396   6.773
   824G12c O00A15248   4.735   3.395   6.768
   824G12c C02415249   4.693   3.277   6.837
   824G12c H00V15250   4.745   3.194   6.790
   824G12c H00U15251   4.589   3.253   6.816
   824G12c H00T15252   4.713   3.280   6.944
   834G12c C00D15253   3.774   6.098   4.197
   834G12c O00B15254   3.698   6.008   4.122
   834G12c C02515255   3.717   5.872   4.136
   834G12c C02615256   3.821   5.803   4.050
   834G12c H00Y15257   3.877   5.888   4.010
   834G12c H00X15258   3.772   5.752   3.967
   834G12c O00C15259   3.906   5.715   4.116
   834G12c H00W15260   3.856   5.668   4.181
   834G12c C02715261   3.645   5.813   4.236
   834G12c O00D15262   3.558   5.883   4.316
   834G12c H00Z15263   3.557   5.974   4.292
   834G12c C02815264   3.648   5.672   4.265
   834G12c C02915265   3.649   5.571   4.166
   834G12c H01015266   3.651   5.601   4.063
   834G12c C02T15267   3.661   5.437   4.198
   834G12c H01O15268   3.671   5.361   4.122
   834G12c C02S15269   3.681   5.397   4.335
   834G12c O00J15270   3.711   5.265   4.365
   834G12c H01P15271   3.728   5.254   4.457
   834G12c C02R15272   3.679   5.496   4.438
   834G12c O00I15273   3.703   5.455   4.568
   834G12c C02Q15274   3.588   5.410   4.642
   834G12c H01N15275   3.519   5.494   4.654
   834G12c H01R15276   3.605   5.384   4.746
   834G12c H01Q15277   3.539   5.327   4.592
   834G12c C02A15278   3.653   5.632   4.402
   834G12c H01115279   3.641   5.702   4.483
   834G12c C00C15280   3.886   6.048   4.263
   834G12c H01215281   3.928   5.952   4.238
   834G12c C00B15282   3.948   6.120   4.368
   834G12c C00A15283   4.024   6.064   4.472
   834G12c C00915284   4.020   5.930   4.525
   834G12c C00815285   3.940   5.816   4.489
   834G12c H01315286   3.881   5.823   4.399
   834G12c C00715287   3.935   5.705   4.577
   834G12c H01415288   3.875   5.619   4.553
   834G12c C00615289   3.981   5.720   4.714
   834G12c C00515290   4.046   5.839   4.749
   834G12c C00415291   4.078   5.878   4.883
   834G12c C00315292   4.117   6.010   4.911
   834G12c C00215293   4.121   6.037   5.054
   834G12c C00115294   4.140   6.161   5.125
   834G12c C00M15295   4.064   6.282   5.093
   834G12c C00L15296   4.065   6.327   4.960
   834G12c C00R15297   3.981   6.434   4.912
   834G12c C00Q15298   3.881   6.516   4.981
   834G12c C00V15299   3.808   0.071   4.885
   834G12c C00U15300   3.818   0.060   4.746
   834G12c C00T15301   3.905   6.497   4.689
   834G12c C01615302   3.891   6.433   4.561
   834G12c C01515303   3.799   6.497   4.471
   834G12c C01015304   3.734   0.093   4.517
   834G12c C01115305   3.648   0.165   4.429
   834G12c H00515306   3.603   0.261   4.450
   834G12c C01215307   3.623   0.124   4.298
   834G12c C01715308   3.528   0.198   4.211
   834G12c O00215309   3.427   0.275   4.263
   834G12c H00415310   3.361   0.284   4.196
   834G12c C01815311   3.535   0.192   4.077
   834G12c O00115312   3.628   0.124   4.001
   834G12c H00315313   3.592   0.101   3.916
   834G12c C01915314   3.429   0.256   3.988
   834G12c H00215315   3.436   0.364   3.999
   834G12c H00115316   3.440   0.234   3.882
   834G12c O00015317   3.301   0.203   4.020
   834G12c C01A15318   3.281   0.067   4.016
   834G12c C02K15319   3.169   0.022   4.097
   834G12c O00G15320   3.095   0.095   4.187
   834G12c C02M15321   3.055   0.229   4.155
   834G12c H01G15322   3.131   0.302   4.184
   834G12c H01F15323   2.971   0.257   4.219
   834G12c H01E15324   3.032   0.251   4.051
   834G12c C02J15325   3.149   6.405   4.100
   834G12c H01H15326   3.070   6.358   4.156
   834G12c C02I15327   3.231   6.314   4.020
   834G12c C02N15328   3.188   6.178   4.018
   834G12c H01M15329   3.085   6.150   4.033
   834G12c C02O15330   3.276   6.088   3.976
   834G12c H01L15331   3.381   6.110   3.967
   834G12c C02P15332   3.228   5.945   3.947
   834G12c H01K15333   3.282   5.876   4.012
   834G12c H01J15334   3.121   5.926   3.953
   834G12c O00H15335   3.259   5.926   3.820
   834G12c H01I15336   3.245   6.007   3.773
   834G12c C02H15337   3.327   6.370   3.936
   834G12c H01C15338   3.382   6.306   3.870
   834G12c C02L15339   3.348   6.502   3.932
   834G12c H01D15340   3.422   0.017   3.862
   834G12c C01315341   3.681   6.521   4.263
   834G12c H00015342   3.657   6.478   4.167
   834G12c C01415343   3.757   6.441   4.355
   834G12c C00F15344   3.798   6.310   4.325
   834G12c C00H15345   3.949   6.314   4.522
   834G12c C00I15346   4.051   6.266   4.603
   834G12c C00J15347   4.067   6.331   4.728
   834G12c C00Z15348   3.731   0.124   4.656
   834G12c C00Y15349   3.628   0.213   4.711
   834G12c H00615350   3.564   0.269   4.645
   834G12c C00X15351   3.612   0.218   4.852
   834G12c O00315352   3.504   0.275   4.916
   834G12c C01B15353   3.417   0.357   4.838
   834G12c H00915354   3.467   0.447   4.803
   834G12c H00815355   3.328   0.378   4.897
   834G12c H00715356   3.371   0.302   4.756
   834G12c C00W15357   3.708   0.152   4.934
   834G12c O00415358   3.677   0.164   5.065
   834G12c C01C15359   3.757   0.109   5.158
   834G12c H00A15360   3.752   0.153   5.257
   834G12c C00P15361   3.839   6.520   5.118
   834G12c C00O15362   3.877   6.420   5.215
   834G12c C01D15363   3.806   6.413   5.343
   834G12c H00S15364   3.736   6.486   5.381
   834G12c C01E15365   3.804   6.290   5.417
   834G12c O00815366   3.710   6.262   5.510
   834G12c C01V15367   3.599   6.345   5.527
   834G12c C01Z15368   3.595   6.412   5.662
   834G12c H00R15369   3.506   6.388   5.720
   834G12c H00Q15370   3.672   6.363   5.721
   834G12c O00915371   3.615   0.032   5.661
   834G12c H00P15372   3.586   0.074   5.581
   834G12c C01W15373   3.503   6.359   5.434
   834G12c H00O15374   3.510   6.304   5.341
   834G12c C01X15375   3.378   6.448   5.447
   834G12c H00N15376   3.300   6.394   5.393
   834G12c H00M15377   3.349   6.464   5.551
   834G12c C01Y15378   3.393   0.068   5.389
   834G12c C02D15379   3.371   0.090   5.248
   834G12c H01915380   3.349   0.008   5.182
   834G12c C02C15381   3.380   0.219   5.197
   834G12c H01A15382   3.373   0.226   5.090
   834G12c C02B15383   3.397   0.326   5.287
   834G12c O00E15384   3.407   0.454   5.253
   834G12c H01B15385   3.423   0.489   5.339
   834G12c C02F15386   3.414   0.306   5.424
   834G12c O00F15387   3.448   0.415   5.501
   834G12c C02G15388   3.521   0.390   5.623
   834G12c H01715389   3.572   0.482   5.653
   834G12c H01615390   3.606   0.323   5.617
   834G12c H01515391   3.469   0.362   5.715
   834G12c C02E15392   3.406   0.179   5.474
   834G12c H01815393   3.423   0.169   5.580
   834G12c C01F15394   3.904   6.194   5.390
   834G12c C01G15395   3.889   6.061   5.441
   834G12c H00L15396   3.820   6.036   5.520
   834G12c C01H15397   3.968   5.954   5.381
   834G12c H00B15398   3.940   5.851   5.397
   834G12c C01I15399   4.067   5.991   5.277
   834G12c C01U15400   4.010   6.219   5.296
   834G12c C00S15401   4.000   6.445   4.772
   834G12c C00K15402   4.105   6.255   4.844
   834G12c C00N15403   3.978   6.318   5.202
   834G12c C00015404   4.106   6.127   5.261
   834G12c C01J15405   4.096   5.930   5.153
   834G12c C01K15406   4.081   5.791   5.118
   834G12c C01P15407   4.105   5.675   5.195
   834G12c C01Q15408   4.119   5.680   5.339
   834G12c H00G15409   4.210   5.715   5.384
   834G12c C01R15410   4.031   5.622   5.422
   834G12c H00F15411   3.944   5.566   5.391
   834G12c C01S15412   4.061   5.616   5.572
   834G12c H00E15413   4.046   5.515   5.611
   834G12c H00D15414   4.161   5.650   5.597
   834G12c O00515415   3.977   5.703   5.638
   834G12c H00C15416   3.970   5.684   5.730
   834G12c C01O15417   4.082   5.547   5.135
   834G12c H00H15418   4.104   5.457   5.190
   834G12c C01N15419   4.032   5.530   5.004
   834G12c O00615420   3.982   5.409   4.950
   834G12c C01T15421   3.984   5.291   5.023
   834G12c H00K15422   3.920   5.311   5.109
   834G12c H00J15423   4.069   5.256   5.081
   834G12c H00I15424   3.942   5.207   4.968
   834G12c C01M15425   4.016   5.646   4.928
   834G12c C02015426   4.124   6.114   4.813
   834G12c C02115427   4.124   6.061   4.679
   834G12c C01L15428   4.055   5.778   4.980
   834G12c O00715429   3.972   5.619   4.800
   834G12c C02215430   4.083   5.934   4.650
   834G12c C02315431   4.099   6.143   4.562
   834G12c C00G15432   3.901   6.248   4.407
   834G12c C00E15433   3.729   6.228   4.231
   834G12c O00A15434   3.611   6.258   4.186
   834G12c C02415435   3.503   6.247   4.281
   834G12c H00V15436   3.519   6.311   4.368
   834G12c H00U15437   3.497   6.144   4.318
   834G12c H00T15438   3.411   6.283   4.235
   844G12c C00D15439   2.417   5.249   7.651
   844G12c O00B15440   2.338   5.240   7.761
   844G12c C02515441   2.392   5.281   7.882
   844G12c C02615442   2.459   5.178   7.970
   844G12c H00Y15443   2.392   5.113   8.027
   844G12c H00X15444   2.537   5.226   8.030
   844G12c O00C15445   2.520   5.086   7.893
   844G12c H00W15446   2.484   5.099   7.807
   844G12c C02715447   2.375   5.409   7.926
   844G12c O00D15448   2.323   5.499   7.839
   844G12c H00Z15449   2.330   5.447   7.760
   844G12c C02815450   2.427   5.455   8.054
   844G12c C02915451   2.402   5.400   8.185
   844G12c H01015452   2.338   5.314   8.193
   844G12c C02T15453   2.459   5.449   8.307
   844G12c H01O15454   2.445   5.395   8.400
   844G12c C02S15455   2.541   5.556   8.293
   844G12c O00J15456   2.597   5.615   8.404
   844G12c H01P15457   2.661   5.683   8.392
   844G12c C02R15458   2.566   5.619   8.168
   844G12c O00I15459   2.651   5.728   8.173
   844G12c C02Q15460   2.675   5.809   8.062
   844G12c H01N15461   2.710   5.751   7.977
   844G12c H01R15462   2.738   5.897   8.076
   844G12c H01Q15463   2.581   5.851   8.026
   844G12c C02A15464   2.510   5.565   8.052
   844G12c H01115465   2.531   5.617   7.959
   844G12c C00C15466   2.551   5.291   7.652
   844G12c H01215467   2.607   5.302   7.744
   844G12c C00B15468   2.629   5.294   7.534
   844G12c C00A15469   2.772   5.339   7.528
   844G12c C00915470   2.844   5.440   7.598
   844G12c C00815471   2.814   5.522   7.706
   844G12c H01315472   2.737   5.494   7.778
   844G12c C00715473   2.898   5.642   7.723
   844G12c H01415474   2.882   5.705   7.809
   844G12c C00615475   2.990   5.677   7.620
   844G12c C00515476   3.008   5.595   7.510
   844G12c C00415477   3.082   5.635   7.397
   844G12c C00315478   3.076   5.556   7.278
   844G12c C00215479   3.148   5.605   7.162
   844G12c C00115480   3.166   5.561   7.027
   844G12c C00M15481   3.048   5.521   6.949
   844G12c C00L15482   2.949   5.443   7.007
   844G12c C00R15483   2.817   5.415   6.949
   844G12c C00Q15484   2.750   5.453   6.832
   844G12c C00V15485   2.620   5.391   6.818
   844G12c C00U15486   2.559   5.326   6.926
   844G12c C00T15487   2.625   5.306   7.047
   844G12c C01615488   2.567   5.263   7.166
   844G12c C01515489   2.435   5.229   7.157
   844G12c C01015490   2.373   5.214   7.030
   844G12c C01115491   2.240   5.165   7.031
   844G12c H00515492   2.198   5.148   6.933
   844G12c C01215493   2.170   5.129   7.145
   844G12c C01715494   2.035   5.070   7.140
   844G12c O00215495   2.005   4.973   7.227
   844G12c H00415496   1.923   4.992   7.271
   844G12c C01815497   1.939   5.106   7.054
   844G12c O00115498   1.952   5.207   6.963
   844G12c H00315499   1.868   5.225   6.924
   844G12c C01915500   1.805   5.041   7.039
   844G12c H00215501   1.798   4.973   6.954
   844G12c H00115502   1.780   4.984   7.129
   844G12c O00015503   1.712   5.152   7.021
   844G12c C01A15504   1.622   5.136   6.919
   844G12c C02K15505   1.535   5.027   6.900
   844G12c O00G15506   1.559   4.914   6.978
   844G12c C02M15507   1.478   4.801   6.949
   844G12c H01G15508   1.514   4.726   7.020
   844G12c H01F15509   1.494   4.764   6.848
   844G12c H01E15510   1.372   4.813   6.972
   844G12c C02J15511   1.439   5.036   6.791
   844G12c H01H15512   1.377   4.950   6.769
   844G12c C02I15513   1.434   5.149   6.710
   844G12c C02N15514   1.333   5.174   6.606
   844G12c H01M15515   1.365   5.211   6.510
   844G12c C02O15516   1.209   5.129   6.628
   844G12c H01L15517   1.181   5.081   6.720
   844G12c C02P15518   1.090   5.136   6.538
   844G12c H01K15519   1.124   5.174   6.441
   844G12c H01J15520   1.046   5.037   6.527
   844G12c O00H15521   0.995   5.219   6.608
   844G12c H01I15522   0.943   5.166   6.668
   844G12c C02H15523   1.517   5.258   6.739
   844G12c H01C15524   1.518   5.350   6.683
   844G12c C02L15525   1.607   5.252   6.842
   844G12c H01D15526   1.671   5.337   6.856
   844G12c C01315527   2.243   5.141   7.265
   844G12c H00015528   2.198   5.096   7.353
   844G12c C01415529   2.368   5.199   7.275
   844G12c C00F15530   2.422   5.223   7.400
   844G12c C00H15531   2.642   5.259   7.288
   844G12c C00I15532   2.779   5.284   7.287
   844G12c C00J15533   2.832   5.319   7.158
   844G12c C00Z15534   2.431   5.269   6.914
   844G12c C00Y15535   2.366   5.279   6.791
   844G12c H00615536   2.273   5.228   6.773
   844G12c C00X15537   2.432   5.333   6.673
   844G12c O00315538   2.358   5.338   6.560
   844G12c C01B15539   2.389   5.224   6.477
   844G12c H00915540   2.350   5.238   6.376
   844G12c H00815541   2.343   5.132   6.515
   844G12c H00715542   2.496   5.214   6.462
   844G12c C00W15543   2.553   5.404   6.694
   844G12c O00415544   2.608   5.476   6.587
   844G12c C01C15545   2.703   5.569   6.625
   844G12c H00A15546   2.665   5.670   6.621
   844G12c C00P15547   2.793   5.545   6.733
   844G12c C00O15548   2.914   5.622   6.741
   844G12c C01D15549   2.937   5.729   6.648
   844G12c H00S15550   2.874   5.757   6.565
   844G12c C01E15551   3.033   5.828   6.671
   844G12c O00815552   3.031   5.928   6.573
   844G12c C01V15553   3.142   5.942   6.501
   844G12c C01Z15554   3.236   5.827   6.451
   844G12c H00R15555   3.170   5.740   6.438
   844G12c H00Q15556   3.296   5.850   6.364
   844G12c O00915557   3.330   5.804   6.547
   844G12c H00P15558   3.283   5.762   6.617
   844G12c C01W15559   3.155   6.064   6.436
   844G12c H00O15560   3.089   6.148   6.450
   844G12c C01X15561   3.257   6.112   6.338
   844G12c H00N15562   3.297   6.026   6.284
   844G12c H00M15563   3.221   6.181   6.261
   844G12c C01Y15564   3.370   6.190   6.410
   844G12c C02D15565   3.365   6.330   6.418
   844G12c H01915566   3.288   6.379   6.361
   844G12c C02C15567   3.470   6.394   6.496
   844G12c H01A15568   3.469   6.501   6.512
   844G12c C02B15569   3.565   6.318   6.578
   844G12c O00E15570   3.643   6.367   6.676
   844G12c H01B15571   3.698   6.301   6.715
   844G12c C02F15572   3.558   6.178   6.575
   844G12c O00F15573   3.639   6.110   6.662
   844G12c C02G15574   3.624   5.970   6.687
   844G12c H01715575   3.718   5.929   6.724
   844G12c H01615576   3.599   5.911   6.599
   844G12c H01515577   3.561   5.957   6.776
   844G12c C02E15578   3.465   6.112   6.489
   844G12c H01815579   3.460   6.005   6.482
   844G12c C01F15580   3.114   5.821   6.788
   844G12c C01G15581   3.168   5.938   6.855
   844G12c H00L15582   3.140   6.035   6.814
   844G12c C01H15583   3.222   5.919   6.990
   844G12c H00B15584   3.238   6.013   7.042
   844G12c C01I15585   3.235   5.787   7.037
   844G12c C01U15586   3.133   5.696   6.849
   844G12c C00S15587   2.758   5.331   7.042
   844G12c C00K15588   2.947   5.405   7.143
   844G12c C00N15589   3.024   5.611   6.831
   844G12c C00015590   3.218   5.673   6.955
   844G12c C01J15591   3.217   5.729   7.172
   844G12c C01K15592   3.223   5.813   7.293
   844G12c C01P15593   3.304   5.935   7.310
   844G12c C01Q15594   3.419   5.974   7.229
   844G12c H00G15595   3.442   6.075   7.197
   844G12c C01R15596   3.506   5.878   7.194
   844G12c H00F15597   3.483   5.776   7.222
   844G12c C01S15598   3.624   5.911   7.102
   844G12c H00E15599   3.597   6.001   7.046
   844G12c H00D15600   3.717   5.940   7.151
   844G12c O00515601   3.651   5.807   7.008
   844G12c H00C15602   3.569   5.764   6.988
   844G12c C01O15603   3.288   6.010   7.427
   844G12c H00H15604   3.352   6.096   7.443
   844G12c C01N15605   3.203   5.963   7.527
   844G12c O00615606   3.176   6.049   7.637
   844G12c C01T15607   3.211   6.187   7.641
   844G12c H00K15608   3.172   6.224   7.736
   844G12c H00J15609   3.158   6.242   7.563
   844G12c H00I15610   3.319   6.200   7.647
   844G12c C01M15611   3.135   5.838   7.515
   844G12c C02015612   3.006   5.431   7.270
   844G12c C02115613   2.962   5.379   7.396
   844G12c C01L15614   3.143   5.760   7.397
   844G12c O00715615   3.057   5.799   7.627
   844G12c C02215616   2.948   5.466   7.502
   844G12c C02315617   2.843   5.300   7.410
   844G12c C00G15618   2.563   5.256   7.407
   844G12c C00E15619   2.352   5.223   7.529
   844G12c O00A15620   2.219   5.190   7.539
   844G12c C02415621   2.144   5.310   7.526
   844G12c H00V15622   2.164   5.393   7.592
   844G12c H00U15623   2.039   5.282   7.522
   844G12c H00T15624   2.157   5.338   7.421
   854G12c C00D15625   1.928   5.646   3.549
   854G12c O00B15626   1.860   5.536   3.588
   854G12c C02515627   1.878   5.480   3.710
   854G12c C02615628   1.995   5.378   3.704
   854G12c H00Y15629   1.987   5.316   3.615
   854G12c H00X15630   1.987   5.299   3.780
   854G12c O00C15631   2.115   5.445   3.722
   854G12c H00W15632   2.173   5.398   3.781
   854G12c C02715633   1.794   5.500   3.817
   854G12c O00D15634   1.677   5.575   3.800
   854G12c H00Z15635   1.622   5.550   3.727
   854G12c C02815636   1.807   5.436   3.946
   854G12c C02915637   1.931   5.438   4.012
   854G12c H01015638   2.022   5.486   3.979
   854G12c C02T15639   1.943   5.384   4.142
   854G12c H01O15640   2.040   5.380   4.191
   854G12c C02S15641   1.839   5.310   4.194
   854G12c O00J15642   1.853   5.250   4.314
   854G12c H01P15643   1.763   5.224   4.331
   854G12c C02R15644   1.712   5.311   4.134
   854G12c O00I15645   1.606   5.245   4.205
   854G12c C02Q15646   1.475   5.252   4.157
   854G12c H01N15647   1.407   5.179   4.202
   854G12c H01R15648   1.473   5.231   4.050
   854G12c H01Q15649   1.424   5.347   4.173
   854G12c C02A15650   1.697   5.377   4.013
   854G12c H01115651   1.604   5.372   3.958
   854G12c C00C15652   2.008   5.715   3.641
   854G12c H01215653   2.015   5.682   3.744
   854G12c C00B15654   2.106   5.806   3.595
   854G12c C00A15655   2.206   5.872   3.677
   854G12c C00915656   2.221   5.897   3.817
   854G12c C00815657   2.148   5.868   3.929
   854G12c H01315658   2.063   5.801   3.934
   854G12c C00715659   2.167   5.953   4.044
   854G12c H01415660   2.106   5.943   4.132
   854G12c C00615661   2.253   6.069   4.039
   854G12c C00515662   2.324   6.089   3.922
   854G12c C00415663   2.392   6.213   3.898
   854G12c C00315664   2.446   6.240   3.768
   854G12c C00215665   2.500   6.375   3.749
   854G12c C00115666   2.563   6.438   3.636
   854G12c C00M15667   2.519   6.426   3.498
   854G12c C00L15668   2.482   6.307   3.435
   854G12c C00R15669   2.408   6.297   3.317
   854G12c C00Q15670   2.368   6.390   3.213
   854G12c C00V15671   2.273   6.334   3.123
   854G12c C00U15672   2.208   6.208   3.138
   854G12c C00T15673   2.244   6.121   3.242
   854G12c C01615674   2.175   6.009   3.283
   854G12c C01515675   2.067   5.970   3.205
   854G12c C01015676   2.032   6.042   3.095
   854G12c C01115677   1.934   5.990   3.010
   854G12c H00515678   1.899   6.038   2.920
   854G12c C01215679   1.857   5.879   3.041
   854G12c C01715680   1.759   5.824   2.951
   854G12c O00215681   1.690   5.916   2.876
   854G12c H00415682   1.615   5.869   2.842
   854G12c C01815683   1.747   5.695   2.941
   854G12c O00115684   1.823   5.603   3.007
   854G12c H00315685   1.894   5.656   3.038
   854G12c C01915686   1.642   5.641   2.844
   854G12c H00215687   1.690   5.642   2.746
   854G12c H00115688   1.617   5.538   2.867
   854G12c O00015689   1.529   5.728   2.829
   854G12c C01A15690   1.424   5.731   2.924
   854G12c C02K15691   1.311   5.812   2.895
   854G12c O00G15692   1.303   5.883   2.778
   854G12c C02M15693   1.184   5.947   2.735
   854G12c H01G15694   1.201   5.968   2.630
   854G12c H01F15695   1.147   6.033   2.791
   854G12c H01E15696   1.100   5.878   2.727
   854G12c C02J15697   1.212   5.830   2.992
   854G12c H01H15698   1.129   5.898   2.979
   854G12c C02I15699   1.212   5.754   3.109
   854G12c C02N15700   1.105   5.764   3.207
   854G12c H01M15701   1.055   5.859   3.216
   854G12c C02O15702   1.060   5.645   3.257
   854G12c H01L15703   1.106   5.553   3.221
   854G12c C02P15704   0.939   5.631   3.346
   854G12c H01K15705   0.956   5.551   3.417
   854G12c H01J15706   0.940   5.725   3.402
   854G12c O00H15707   0.825   5.592   3.267
   854G12c H01I15708   0.747   5.582   3.319
   854G12c C02H15709   1.321   5.671   3.140
   854G12c H01C15710   1.336   5.624   3.236
   854G12c C02L15711   1.432   5.668   3.050
   854G12c H01D15712   1.521   5.616   3.081
   854G12c C01315713   1.872   5.833   3.171
   854G12c H00015714   1.791   5.767   3.200
   854G12c C01415715   1.984   5.863   3.249
   854G12c C00F15716   2.001   5.800   3.374
   854G12c C00H15717   2.192   5.944   3.405
   854G12c C00I15718   2.305   5.989   3.484
   854G12c C00J15719   2.383   6.099   3.432
   854G12c C00Z15720   2.102   6.159   3.058
   854G12c C00Y15721   2.062   6.240   2.949
   854G12c H00615722   1.990   6.209   2.876
   854G12c C00X15723   2.130   6.366   2.927
   854G12c O00315724   2.092   6.457   2.836
   854G12c C01B15725   2.183   6.457   2.721
   854G12c H00915726   2.162   0.022   2.657
   854G12c H00815727   2.172   6.376   2.648
   854G12c H00715728   2.287   6.460   2.754
   854G12c C00W15729   2.231   6.411   3.011
   854G12c O00415730   2.294   0.012   2.976
   854G12c C01C15731   2.358   0.077   3.081
   854G12c H00A15732   2.420   0.161   3.054
   854G12c C00P15733   2.389   0.011   3.202
   854G12c C00O15734   2.427   0.089   3.320
   854G12c C01D15735   2.407   0.231   3.324
   854G12c H00S15736   2.381   0.276   3.229
   854G12c C01E15737   2.411   0.312   3.435
   854G12c O00815738   2.375   0.444   3.413
   854G12c C01V15739   2.446   0.554   3.452
   854G12c C01Z15740   2.360   0.675   3.415
   854G12c H00R15741   2.276   0.693   3.483
   854G12c H00Q15742   2.417   0.768   3.417
   854G12c O00915743   2.306   0.648   3.287
   854G12c H00P15744   2.298   0.553   3.289
   854G12c C01W15745   2.565   0.549   3.517
   854G12c H00O15746   2.615   0.456   3.539
   854G12c C01X15747   2.647   0.666   3.564
   854G12c H00N15748   2.751   0.643   3.542
   854G12c H00M15749   2.634   0.761   3.512
   854G12c C01Y15750   2.638   0.702   3.708
   854G12c C02D15751   2.744   0.771   3.766
   854G12c H01915752   2.826   0.810   3.708
   854G12c C02C15753   2.741   0.812   3.900
   854G12c H01A15754   2.830   0.864   3.931
   854G12c C02B15755   2.627   0.793   3.977
   854G12c O00E15756   2.636   0.838   4.100
   854G12c H01B15757   2.561   0.805   4.149
   854G12c C02F15758   2.511   0.725   3.917
   854G12c O00F15759   2.407   0.718   4.007
   854G12c C02G15760   2.299   0.630   3.970
   854G12c H01715761   2.320   0.532   3.928
   854G12c H01615762   2.243   0.686   3.895
   854G12c H01515763   2.223   0.632   4.048
   854G12c C02E15764   2.518   0.686   3.782
   854G12c H01815765   2.434   0.644   3.730
   854G12c C01F15766   2.457   0.252   3.558
   854G12c C01G15767   2.427   0.301   3.690
   854G12c H00L15768   2.362   0.385   3.710
   854G12c C01H15769   2.458   0.214   3.801
   854G12c H00B15770   2.416   0.256   3.891
   854G12c C01I15771   2.513   0.087   3.791
   854G12c C01U15772   2.523   0.123   3.550
   854G12c C00S15773   2.361   6.162   3.310
   854G12c C00K15774   2.439   6.197   3.517
   854G12c C00N15775   2.483   0.041   3.443
   854G12c C00015776   2.571   0.056   3.663
   854G12c C01J15777   2.492   6.475   3.851
   854G12c C01K15778   2.442   6.447   3.986
   854G12c C01P15779   2.437   0.012   4.101
   854G12c C01Q15780   2.493   0.144   4.099
   854G12c H00G15781   2.586   0.163   4.048
   854G12c C01R15782   2.412   0.242   4.151
   854G12c H00F15783   2.315   0.223   4.194
   854G12c C01S15784   2.437   0.392   4.161
   854G12c H00E15785   2.475   0.426   4.065
   854G12c H00D15786   2.347   0.448   4.185
   854G12c O00515787   2.518   0.413   4.283
   854G12c H00C15788   2.509   0.504   4.306
   854G12c C01O15789   2.373   6.494   4.223
   854G12c H00H15790   2.363   0.035   4.311
   854G12c C01N15791   2.310   6.370   4.235
   854G12c O00615792   2.239   6.355   4.357
   854G12c C01T15793   2.192   6.232   4.401
   854G12c H00K15794   2.135   6.243   4.493
   854G12c H00J15795   2.276   6.163   4.412
   854G12c H00I15796   2.118   6.183   4.337
   854G12c C01M15797   2.318   6.280   4.125
   854G12c C02015798   2.425   6.153   3.657
   854G12c C02115799   2.381   6.024   3.700
   854G12c C01L15800   2.391   6.312   4.002
   854G12c O00715801   2.264   6.158   4.142
   854G12c C02215802   2.329   5.994   3.820
   854G12c C02315803   2.312   5.943   3.616
   854G12c C00G15804   2.099   5.854   3.457
   854G12c C00E15805   1.929   5.686   3.417
   854G12c O00A15806   1.876   5.601   3.323
   854G12c C02415807   1.958   5.485   3.284
   854G12c H00V15808   1.962   5.403   3.356
   854G12c H00U15809   2.057   5.505   3.243
   854G12c H00T15810   1.893   5.448   3.205
   864G12c C00D15811   4.320   1.967   5.294
   864G12c O00B15812   4.399   2.080   5.265
   864G12c C02515813   4.534   2.059   5.235
   864G12c C02615814   4.628   2.052   5.354
   864G12c H00Y15815   4.563   2.060   5.442
   864G12c H00X15816   4.678   2.149   5.351
   864G12c O00C15817   4.717   1.952   5.353
   864G12c H00W15818   4.700   1.893   5.425
   864G12c C02715819   4.561   2.065   5.102
   864G12c O00D15820   4.453   2.069   5.024
   864G12c H00Z15821   4.387   2.090   5.088
   864G12c C02815822   4.695   2.063   5.037
   864G12c C02915823   4.703   2.000   4.909
   864G12c H01015824   4.616   1.951   4.868
   864G12c C02T15825   4.812   2.024   4.831
   864G12c H01O15826   4.814   1.993   4.728
   864G12c C02S15827   4.918   2.107   4.876
   864G12c O00J15828   5.025   2.124   4.797
   864G12c H01P15829   5.084   2.186   4.835
   864G12c C02R15830   4.911   2.160   5.008
   864G12c O00I15831   5.020   2.229   5.048
   864G12c C02Q15832   5.017   2.296   5.180
   864G12c H01N15833   5.085   2.381   5.173
   864G12c H01R15834   5.029   2.227   5.263
   864G12c H01Q15835   4.922   2.347   5.195
   864G12c C02A15836   4.801   2.136   5.087
   864G12c H01115837   4.780   2.162   5.190
   864G12c C00C15838   4.339   1.838   5.235
   864G12c H01215839   4.425   1.817   5.173
   864G12c C00B15840   4.240   1.736   5.257
   864G12c C00A15841   4.230   1.612   5.188
   864G12c C00915842   4.279   1.578   5.054
   864G12c C00815843   4.357   1.642   4.956
   864G12c H01315844   4.416   1.730   4.978
   864G12c C00715845   4.338   1.597   4.819
   864G12c H01415846   4.392   1.650   4.742
   864G12c C00615847   4.251   1.493   4.785
   864G12c C00515848   4.171   1.445   4.890
   864G12c C00415849   4.058   1.363   4.859
   864G12c C00315850   3.963   1.342   4.960
   864G12c C00215851   3.851   1.266   4.916
   864G12c C00115852   3.729   1.228   4.985
   864G12c C00M15853   3.662   1.322   5.079
   864G12c C00L15854   3.722   1.384   5.184
   864G12c C00R15855   3.671   1.489   5.264
   864G12c C00Q15856   3.545   1.552   5.268
   864G12c C00V15857   3.540   1.650   5.370
   864G12c C00U15858   3.656   1.705   5.432
   864G12c C00T15859   3.783   1.662   5.400
   864G12c C01615860   3.906   1.726   5.421
   864G12c C01515861   3.901   1.838   5.495
   864G12c C01015862   3.775   1.876   5.555
   864G12c C01115863   3.780   1.982   5.649
   864G12c H00515864   3.687   2.011   5.695
   864G12c C01215865   3.895   2.062   5.667
   864G12c C01715866   3.895   2.163   5.779
   864G12c O00215867   3.814   2.135   5.887
   864G12c H00415868   3.794   2.217   5.929
   864G12c C01815869   3.975   2.275   5.767
   864G12c O00115870   4.042   2.313   5.653
   864G12c H00315871   4.098   2.380   5.689
   864G12c C01915872   3.987   2.372   5.887
   864G12c H00215873   3.908   2.446   5.879
   864G12c H00115874   3.967   2.334   5.987
   864G12c O00015875   4.114   2.442   5.871
   864G12c C01A15876   4.136   2.542   5.970
   864G12c C02K15877   4.147   2.671   5.914
   864G12c O00G15878   4.122   2.685   5.778
   864G12c C02M15879   4.139   2.802   5.715
   864G12c H01G15880   4.099   2.885   5.773
   864G12c H01F15881   4.101   2.803   5.613
   864G12c H01E15882   4.246   2.819   5.712
   864G12c C02J15883   4.181   2.778   6.001
   864G12c H01H15884   4.207   2.876   5.963
   864G12c C02I15885   4.196   2.762   6.141
   864G12c C02N15886   4.235   2.875   6.226
   864G12c H01M15887   4.187   2.971   6.220
   864G12c C02O15888   4.330   2.860   6.316
   864G12c H01L15889   4.372   2.760   6.318
   864G12c C02P15890   4.370   2.969   6.416
   864G12c H01K15891   4.355   3.075   6.396
   864G12c H01J15892   4.322   2.951   6.512
   864G12c O00H15893   4.508   2.949   6.432
   864G12c H01I15894   4.552   3.009   6.375
   864G12c C02H15895   4.183   2.629   6.192
   864G12c H01C15896   4.200   2.600   6.294
   864G12c C02L15897   4.149   2.520   6.106
   864G12c H01D15898   4.138   2.419   6.145
   864G12c C01315899   4.008   2.028   5.587
   864G12c H00015900   4.101   2.084   5.591
   864G12c C01415901   4.013   1.915   5.498
   864G12c C00F15902   4.119   1.887   5.412
   864G12c C00H15903   4.025   1.677   5.366
   864G12c C00I15904   4.025   1.547   5.306
   864G12c C00J15905   3.898   1.488   5.292
   864G12c C00Z15906   3.655   1.812   5.518
   864G12c C00Y15907   3.527   1.859   5.560
   864G12c H00615908   3.507   1.941   5.627
   864G12c C00X15909   3.407   1.813   5.503
   864G12c O00315910   3.289   1.877   5.539
   864G12c C01B15911   3.178   1.805   5.591
   864G12c H00915912   3.115   1.867   5.655
   864G12c H00815913   3.226   1.725   5.647
   864G12c H00715914   3.107   1.757   5.525
   864G12c C00W15915   3.413   1.708   5.407
   864G12c O00415916   3.298   1.654   5.351
   864G12c C01C15917   3.312   1.604   5.226
   864G12c H00A15918   3.223   1.608   5.165
   864G12c C00P15919   3.433   1.541   5.180
   864G12c C00O15920   3.436   1.463   5.056
   864G12c C01D15921   3.341   1.488   4.957
   864G12c H00S15922   3.264   1.564   4.963
   864G12c C01E15923   3.354   1.433   4.823
   864G12c O00815924   3.267   1.468   4.720
   864G12c C01V15925   3.135   1.455   4.762
   864G12c C01Z15926   3.064   1.586   4.775
   864G12c H00R15927   2.964   1.558   4.808
   864G12c H00Q15928   3.115   1.651   4.846
   864G12c O00915929   3.039   1.649   4.657
   864G12c H00P15930   3.083   1.596   4.591
   864G12c C01W15931   3.080   1.336   4.781
   864G12c H00O15932   3.138   1.246   4.764
   864G12c C01X15933   2.936   1.308   4.829
   864G12c H00N15934   2.938   1.213   4.883
   864G12c H00M15935   2.896   1.384   4.897
   864G12c C01Y15936   2.847   1.285   4.711
   864G12c C02D15937   2.793   1.388   4.632
   864G12c H01915938   2.828   1.488   4.657
   864G12c C02C15939   2.708   1.378   4.520
   864G12c H01A15940   2.678   1.466   4.465
   864G12c C02B15941   2.671   1.250   4.487
   864G12c O00E15942   2.590   1.225   4.384
   864G12c H01B15943   2.551   1.140   4.401
   864G12c C02F15944   2.714   1.136   4.565
   864G12c O00F15945   2.666   1.014   4.527
   864G12c C02G15946   2.670   0.913   4.626
   864G12c H01715947   2.639   0.952   4.723
   864G12c H01615948   2.775   0.886   4.635
   864G12c H01515949   2.611   0.827   4.595
   864G12c C02E15950   2.800   1.157   4.682
   864G12c H01815951   2.830   1.074   4.744
   864G12c C01F15952   3.463   1.351   4.788
   864G12c C01G15953   3.516   1.343   4.657
   864G12c H00L15954   3.472   1.399   4.576
   864G12c C01H15955   3.634   1.277   4.631
   864G12c H00B15956   3.685   1.296   4.537
   864G12c C01I15957   3.701   1.224   4.747
   864G12c C01U15958   3.537   1.298   4.892
   864G12c C00S15959   3.780   1.546   5.330
   864G12c C00K15960   3.867   1.401   5.188
   864G12c C00N15961   3.536   1.363   5.017
   864G12c C00015962   3.641   1.215   4.875
   864G12c C01J15963   3.839   1.226   4.777
   864G12c C01K15964   3.936   1.241   4.679
   864G12c C01P15965   3.927   1.194   4.544
   864G12c C01Q15966   3.839   1.084   4.515
   864G12c H00G15967   3.810   1.022   4.600
   864G12c C01R15968   3.784   1.060   4.397
   864G12c H00F15969   3.819   1.111   4.309
   864G12c C01S15970   3.688   0.947   4.373
   864G12c H00E15971   3.758   0.863   4.373
   864G12c H00D15972   3.615   0.926   4.451
   864G12c O00515973   3.624   0.955   4.250
   864G12c H00C15974   3.550   1.014   4.250
   864G12c C01O15975   4.023   1.243   4.452
   864G12c H00H15976   4.011   1.209   4.350
   864G12c C01N15977   4.130   1.324   4.489
   864G12c O00615978   4.221   1.368   4.393
   864G12c C01T15979   4.202   1.334   4.256
   864G12c H00K15980   4.281   1.383   4.198
   864G12c H00J15981   4.111   1.365   4.205
   864G12c H00I15982   4.219   1.228   4.232
   864G12c C01M15983   4.139   1.362   4.624
   864G12c C02015984   3.976   1.385   5.096
   864G12c C02115985   4.107   1.429   5.122
   864G12c C01L15986   4.044   1.324   4.723
   864G12c O00715987   4.241   1.451   4.656
   864G12c C02215988   4.192   1.469   5.021
   864G12c C02315989   4.133   1.518   5.228
   864G12c C00G15990   4.134   1.764   5.347
   864G12c C00E15991   4.209   1.991   5.376
   864G12c O00A15992   4.193   2.130   5.404
   864G12c C02415993   4.129   2.202   5.300
   864G12c H00V15994   4.168   2.301   5.277
   864G12c H00U15995   4.025   2.220   5.328
   864G12c H00T15996   4.123   2.136   5.213
   874G12c C00D15997   4.986   5.089   4.261
   874G12c O00B15998   4.870   5.032   4.210
   874G12c C02515999   4.880   4.956   4.093
   874G12c C02616000   4.952   4.821   4.113
   874G12c H00Y16001   5.023   4.837   4.194
   874G12c H00X16002   5.004   4.790   4.022
   874G12c O00C16003   4.856   4.731   4.162
   874G12c H00W16004   4.793   4.782   4.209
   874G12c C02716005   4.820   5.003   3.984
   874G12c O00D16006   4.766   5.130   3.979
   874G12c H00Z16007   4.787   5.176   4.059
   874G12c C02816008   4.821   4.926   3.866
   874G12c C02916009   4.765   4.789   3.859
   874G12c H01016010   4.717   4.753   3.949
   874G12c C02T16011   4.781   4.712   3.742
   874G12c H01O16012   4.752   4.608   3.740
   874G12c C02S16013   4.848   4.770   3.630
   874G12c O00J16014   4.885   4.690   3.524
   874G12c H01P16015   4.922   4.739   3.453
   874G12c C02R16016   4.902   4.901   3.635
   874G12c O00I16017   4.966   4.939   3.522
   874G12c C02Q16018   5.040   5.057   3.533
   874G12c H01N16019   5.062   5.079   3.428
   874G12c H01R16020   5.138   5.049   3.581
   874G12c H01Q16021   4.986   5.142   3.574
   874G12c C02A16022   4.883   4.980   3.752
   874G12c H01116023   4.921   5.081   3.760
   874G12c C00C16024   5.098   5.122   4.182
   874G12c H01216025   5.087   5.122   4.075
   874G12c C00B16026   5.219   5.172   4.235
   874G12c C00A16027   5.336   5.216   4.166
   874G12c C00916028   5.393   5.181   4.039
   874G12c C00816029   5.358   5.091   3.935
   874G12c H01316030   5.252   5.070   3.930
   874G12c C00716031   5.460   5.048   3.848
   874G12c H01416032   5.442   4.990   3.759
   874G12c C00616033   5.598   5.074   3.870
   874G12c C00516034   5.629   5.157   3.978
   874G12c C00416035   5.762   5.166   4.029
   874G12c C00316036   5.784   5.233   4.153
   874G12c C00216037   5.918   5.228   4.202
   874G12c C00116038   5.980   5.280   4.319
   874G12c C00M16039   5.925   5.257   4.448
   874G12c C00L16040   5.793   5.292   4.481
   874G12c C00R16041   5.726   5.259   4.603
   874G12c C00Q16042   5.771   5.200   4.723
   874G12c C00V16043   5.660   5.158   4.807
   874G12c C00U16044   5.524   5.171   4.766
   874G12c C00T16045   5.491   5.216   4.642
   874G12c C01616046   5.366   5.210   4.584
   874G12c C01516047   5.263   5.173   4.662
   874G12c C01016048   5.282   5.147   4.798
   874G12c C01116049   5.167   5.127   4.875
   874G12c H00516050   5.185   5.094   4.976
   874G12c C01216051   5.036   5.147   4.824
   874G12c C01716052   4.917   5.132   4.909
   874G12c O00216053   4.805   5.084   4.849
   874G12c H00416054   4.743   5.085   4.920
   874G12c C01816055   4.910   5.159   5.041
   874G12c O00116056   5.021   5.205   5.115
   874G12c H00316057   5.065   5.276   5.071
   874G12c C01916058   4.788   5.115   5.123
   874G12c H00216059   4.767   5.010   5.100
   874G12c H00116060   4.812   5.100   5.228
   874G12c O00016061   4.667   5.192   5.093
   874G12c C01A16062   4.649   5.314   5.160
   874G12c C02K16063   4.518   5.367   5.174
   874G12c O00G16064   4.404   5.306   5.130
   874G12c C02M16065   4.378   5.331   4.992
   874G12c H01G16066   4.465   5.302   4.933
   874G12c H01F16067   4.346   5.435   4.988
   874G12c H01E16068   4.291   5.281   4.949
   874G12c C02J16069   4.502   5.485   5.246
   874G12c H01H16070   4.399   5.517   5.259
   874G12c C02I16071   4.607   5.560   5.303
   874G12c C02N16072   4.594   5.688   5.376
   874G12c H01M16073   4.669   5.765   5.367
   874G12c C02O16074   4.483   5.714   5.438
   874G12c H01L16075   4.403   5.642   5.441
   874G12c C02P16076   4.466   5.843   5.519
   874G12c H01K16077   4.359   5.856   5.505
   874G12c H01J16078   4.479   5.824   5.626
   874G12c O00H16079   4.515   5.963   5.469
   874G12c H01I16080   4.606   5.971   5.493
   874G12c C02H16081   4.738   5.510   5.279
   874G12c H01C16082   4.827   5.563   5.309
   874G12c C02L16083   4.756   5.388   5.210
   874G12c H01D16084   4.858   5.355   5.200
   874G12c C01316085   5.021   5.167   4.686
   874G12c H00016086   4.922   5.189   4.648
   874G12c C01416087   5.136   5.164   4.600
   874G12c C00F16088   5.123   5.144   4.461
   874G12c C00H16089   5.348   5.227   4.446
   874G12c C00I16090   5.457   5.281   4.374
   874G12c C00J16091   5.573   5.315   4.442
   874G12c C00Z16092   5.415   5.134   4.846
   874G12c C00Y16093   5.441   5.089   4.979
   874G12c H00616094   5.367   5.046   5.044
   874G12c C00X16095   5.572   5.080   5.027
   874G12c O00316096   5.575   5.045   5.164
   874G12c C01B16097   5.695   5.054   5.233
   874G12c H00916098   5.750   5.147   5.222
   874G12c H00816099   5.755   4.968   5.203
   874G12c H00716100   5.677   5.038   5.340
   874G12c C00W16101   5.682   5.109   4.941
   874G12c O00416102   5.809   5.100   4.987
   874G12c C01C16103   5.908   5.089   4.894
   874G12c H00A16104   6.008   5.074   4.933
   874G12c C00P16105   5.903   5.147   4.760
   874G12c C00O16106   6.019   5.150   4.681
   874G12c C01D16107   6.138   5.077   4.716
   874G12c H00S16108   6.148   5.025   4.810
   874G12c C01E16109   6.241   5.035   4.625
   874G12c O00816110   6.344   4.947   4.668
   874G12c C01V16111   6.325   4.816   4.638
   874G12c C01Z16112   6.455   4.747   4.671
   874G12c H00R16113   6.495   4.771   4.769
   874G12c H00Q16114   6.451   4.638   4.672
   874G12c O00916115   0.028   4.775   4.569
   874G12c H00P16116   0.113   4.751   4.601
   874G12c C01W16117   6.222   4.752   4.580
   874G12c H00O16118   6.138   4.816   4.555
   874G12c C01X16119   6.209   4.604   4.542
   874G12c H00N16120   6.118   4.599   4.482
   874G12c H00M16121   6.293   4.576   4.478
   874G12c C01Y16122   6.186   4.516   4.665
   874G12c C02D16123   6.257   4.395   4.671
   874G12c H01916124   6.327   4.370   4.593
   874G12c C02C16125   6.241   4.306   4.778
   874G12c H01A16126   6.304   4.218   4.772
   874G12c C02B16127   6.132   4.322   4.867
   874G12c O00E16128   6.116   4.229   4.972
   874G12c H01B16129   6.026   4.238   4.999
   874G12c C02F16130   6.059   4.443   4.862
   874G12c O00F16131   5.958   4.461   4.957
   874G12c C02G16132   5.896   4.587   4.967
   874G12c H01716133   5.840   4.591   5.060
   874G12c H01616134   5.818   4.598   4.891
   874G12c H01516135   5.969   4.669   4.967
   874G12c C02E16136   6.087   4.540   4.759
   874G12c H01816137   6.022   4.624   4.742
   874G12c C01F16138   6.227   5.081   4.491
   874G12c C01G16139   6.291   5.016   4.377
   874G12c H00L16140   6.346   4.925   4.397
   874G12c C01H16141   6.237   5.032   4.245
   874G12c H00B16142   6.256   4.949   4.179
   874G12c C01I16143   6.135   5.130   4.218
   874G12c C01U16144   6.132   5.177   4.456
   874G12c C00S16145   5.592   5.268   4.572
   874G12c C00K16146   5.697   5.313   4.378
   874G12c C00N16147   6.018   5.191   4.539
   874G12c C00016148   6.109   5.219   4.324
   874G12c C01J16149   6.017   5.151   4.130
   874G12c C01K16150   6.000   5.092   3.995
   874G12c C01P16151   6.097   5.039   3.904
   874G12c C01Q16152   6.237   5.035   3.941
   874G12c H00G16153   6.295   5.111   3.991
   874G12c C01R16154   6.309   4.928   3.910
   874G12c H00F16155   6.260   4.841   3.869
   874G12c C01S16156   6.457   4.913   3.944
   874G12c H00E16157   6.492   4.987   4.016
   874G12c H00D16158   6.468   4.815   3.992
   874G12c O00516159   6.521   4.916   3.816
   874G12c H00C16160   0.049   4.836   3.811
   874G12c C01O16161   6.058   5.005   3.777
   874G12c H00H16162   6.125   4.955   3.709
   874G12c C01N16163   5.924   4.997   3.742
   874G12c O00616164   5.881   4.940   3.625
   874G12c C01T16165   5.961   4.924   3.508
   874G12c H00K16166   6.045   4.857   3.529
   874G12c H00J16167   5.996   5.020   3.469
   874G12c H00I16168   5.911   4.884   3.420
   874G12c C01M16169   5.828   5.048   3.829
   874G12c C02016170   5.681   5.291   4.234
   874G12c C02116171   5.557   5.300   4.164
   874G12c C01L16172   5.866   5.102   3.959
   874G12c O00716173   5.698   5.021   3.796
   874G12c C02216174   5.529   5.230   4.045
   874G12c C02316175   5.445   5.279   4.235
   874G12c C00G16176   5.227   5.193   4.377
   874G12c C00E16177   4.996   5.102   4.400
   874G12c O00A16178   4.885   5.060   4.478
   874G12c C02416179   4.770   5.138   4.480
   874G12c H00V16180   4.709   5.121   4.391
   874G12c H00U16181   4.774   5.245   4.499
   874G12c H00T16182   4.714   5.100   4.566
   884G12c C00D16183   1.357   6.025   3.507
   884G12c O00B16184   1.283   5.914   3.476
   884G12c C02516185   1.160   5.917   3.531
   884G12c C02616186   1.146   5.811   3.651
   884G12c H00Y16187   1.047   5.773   3.673
   884G12c H00X16188   1.182   5.843   3.749
   884G12c O00C16189   1.224   5.700   3.598
   884G12c H00W16190   1.299   5.731   3.551
   884G12c C02716191   1.063   5.997   3.485
   884G12c O00D16192   1.087   6.074   3.376
   884G12c H00Z16193   1.172   6.042   3.350
   884G12c C02816194   0.939   6.010   3.556
   884G12c C02916195   0.942   6.059   3.688
   884G12c H01016196   1.032   6.089   3.741
   884G12c C02T16197   0.827   6.074   3.761
   884G12c H01O16198   0.838   6.122   3.858
   884G12c C02S16199   0.700   6.052   3.695
   884G12c O00J16200   0.577   6.067   3.755
   884G12c H01P16201   0.510   6.031   3.700
   884G12c C02R16202   0.696   5.988   3.567
   884G12c O00I16203   0.574   5.961   3.516
   884G12c C02Q16204   0.580   5.883   3.399
   884G12c H01N16205   0.487   5.829   3.380
   884G12c H01R16206   0.657   5.806   3.406
   884G12c H01Q16207   0.590   5.940   3.307
   884G12c C02A16208   0.819   5.982   3.493
   884G12c H01116209   0.822   5.947   3.391
   884G12c C00C16210   1.404   6.039   3.639
   884G12c H01216211   1.380   5.965   3.714
   884G12c C00B16212   1.488   6.146   3.667
   884G12c C00A16213   1.538   6.171   3.799
   884G12c C00916214   1.473   6.157   3.927
   884G12c C00816215   1.357   6.091   3.978
   884G12c H01316216   1.319   6.013   3.914
   884G12c C00716217   1.288   6.137   4.099
   884G12c H01416218   1.198   6.089   4.133
   884G12c C00616219   1.335   6.244   4.177
   884G12c C00516220   1.450   6.302   4.126
   884G12c C00416221   1.495   6.426   4.180
   884G12c C00316222   1.597   6.500   4.110
   884G12c C00216223   1.617   0.113   4.165
   884G12c C00116224   1.703   0.222   4.126
   884G12c C00M16225   1.706   0.262   3.986
   884G12c C00L16226   1.729   0.180   3.876
   884G12c C00R16227   1.708   0.216   3.740
   884G12c C00Q16228   1.682   0.337   3.677
   884G12c C00V16229   1.666   0.322   3.541
   884G12c C00U16230   1.633   0.198   3.475
   884G12c C00T16231   1.645   0.080   3.547
   884G12c C01616232   1.598   6.476   3.517
   884G12c C01516233   1.531   6.466   3.394
   884G12c C01016234   1.532   0.060   3.311
   884G12c C01116235   1.486   0.037   3.180
   884G12c H00516236   1.499   0.109   3.100
   884G12c C01216237   1.417   6.444   3.135
   884G12c C01716238   1.372   6.433   3.001
   884G12c O00216239   1.287   0.011   2.949
   884G12c H00416240   1.289   0.077   3.017
   884G12c C01816241   1.388   6.319   2.925
   884G12c O00116242   1.451   6.207   2.966
   884G12c H00316243   1.462   6.155   2.889
   884G12c C01916244   1.324   6.322   2.786
   884G12c H00216245   1.220   6.290   2.782
   884G12c H00116246   1.336   6.419   2.738
   884G12c O00016247   1.417   6.243   2.716
   884G12c C01A16248   1.403   6.218   2.582
   884G12c C02K16249   1.505   6.149   2.518
   884G12c O00G16250   1.608   6.104   2.604
   884G12c C02M16251   1.718   6.036   2.563
   884G12c H01G16252   1.777   6.099   2.496
   884G12c H01F16253   1.707   5.938   2.516
   884G12c H01E16254   1.787   6.026   2.647
   884G12c C02J16255   1.512   6.126   2.376
   884G12c H01H16256   1.601   6.082   2.334
   884G12c C02I16257   1.404   6.177   2.294
   884G12c C02N16258   1.388   6.168   2.150
   884G12c H01M16259   1.289   6.160   2.109
   884G12c C02O16260   1.494   6.161   2.067
   884G12c H01L16261   1.591   6.155   2.115
   884G12c C02P16262   1.487   6.171   1.916
   884G12c H01K16263   1.530   6.082   1.871
   884G12c H01J16264   1.383   6.161   1.883
   884G12c O00H16265   1.538   6.290   1.866
   884G12c H01I16266   1.535   6.286   1.772
   884G12c C02H16267   1.309   6.259   2.360
   884G12c H01C16268   1.241   6.302   2.288
   884G12c C02L16269   1.302   6.267   2.499
   884G12c H01D16270   1.221   6.331   2.530
   884G12c C01316271   1.411   6.346   3.227
   884G12c H00016272   1.356   6.264   3.183
   884G12c C01416273   1.477   6.344   3.358
   884G12c C00F16274   1.469   6.234   3.440
   884G12c C00H16275   1.595   6.366   3.605
   884G12c C00I16276   1.664   6.377   3.729
   884G12c C00J16277   1.723   6.505   3.760
   884G12c C00Z16278   1.584   0.185   3.351
   884G12c C00Y16279   1.575   0.304   3.272
   884G12c H00616280   1.521   0.295   3.179
   884G12c C00X16281   1.612   0.429   3.323
   884G12c O00316282   1.601   0.546   3.248
   884G12c C01B16283   1.554   0.537   3.110
   884G12c H00916284   1.594   0.452   3.055
   884G12c H00816285   1.564   0.627   3.048
   884G12c H00716286   1.448   0.519   3.128
   884G12c C00W16287   1.649   0.438   3.457
   884G12c O00416288   1.676   0.563   3.504
   884G12c C01C16289   1.642   0.579   3.634
   884G12c H00A16290   1.604   0.678   3.656
   884G12c C00P16291   1.654   0.468   3.729
   884G12c C00O16292   1.636   0.495   3.874
   884G12c C01D16293   1.578   0.620   3.920
   884G12c H00S16294   1.560   0.706   3.856
   884G12c C01E16295   1.525   0.648   4.048
   884G12c O00816296   1.444   0.760   4.074
   884G12c C01V16297   1.512   0.869   4.125
   884G12c C01Z16298   1.456   0.908   4.260
   884G12c H00R16299   1.485   1.009   4.287
   884G12c H00Q16300   1.349   0.923   4.247
   884G12c O00916301   1.497   0.821   4.361
   884G12c H00P16302   1.579   0.780   4.337
   884G12c C01W16303   1.618   0.920   4.059
   884G12c H00O16304   1.653   0.886   3.963
   884G12c C01X16305   1.720   1.021   4.115
   884G12c H00N16306   1.758   1.099   4.049
   884G12c H00M16307   1.675   1.067   4.203
   884G12c C01Y16308   1.838   0.950   4.175
   884G12c C02D16309   1.936   0.904   4.089
   884G12c H01916310   1.926   0.939   3.987
   884G12c C02C16311   2.048   0.838   4.141
   884G12c H01A16312   2.132   0.814   4.077
   884G12c C02B16313   2.056   0.807   4.277
   884G12c O00E16314   2.172   0.750   4.332
   884G12c H01B16315   2.187   0.781   4.420
   884G12c C02F16316   1.963   0.863   4.365
   884G12c O00F16317   1.964   0.838   4.501
   884G12c C02G16318   1.909   0.714   4.529
   884G12c H01716319   1.896   0.703   4.637
   884G12c H01616320   1.979   0.637   4.497
   884G12c H01516321   1.814   0.684   4.484
   884G12c C02E16322   1.846   0.934   4.312
   884G12c H01816323   1.774   0.975   4.381
   884G12c C01F16324   1.538   0.539   4.136
   884G12c C01G16325   1.461   0.525   4.257
   884G12c H00L16326   1.392   0.605   4.279
   884G12c C01H16327   1.452   0.400   4.323
   884G12c H00B16328   1.367   0.383   4.388
   884G12c C01I16329   1.551   0.301   4.292
   884G12c C01U16330   1.626   0.436   4.113
   884G12c C00S16331   1.715   0.093   3.668
   884G12c C00K16332   1.720   0.036   3.891
   884G12c C00N16333   1.663   0.401   3.982
   884G12c C00016334   1.657   0.330   4.204
   884G12c C01J16335   1.535   0.157   4.279
   884G12c C01K16336   1.439   0.083   4.346
   884G12c C01P16337   1.380   0.104   4.479
   884G12c C01Q16338   1.424   0.218   4.567
   884G12c H00G16339   1.526   0.236   4.596
   884G12c C01R16340   1.329   0.289   4.625
   884G12c H00F16341   1.224   0.273   4.608
   884G12c C01S16342   1.363   0.408   4.719
   884G12c H00E16343   1.346   0.367   4.818
   884G12c H00D16344   1.469   0.435   4.725
   884G12c O00516345   1.278   0.519   4.705
   884G12c H00C16346   1.196   0.481   4.732
   884G12c C01O16347   1.292   0.013   4.533
   884G12c H00H16348   1.267   0.030   4.636
   884G12c C01N16349   1.248   6.424   4.465
   884G12c O00616350   1.158   6.332   4.509
   884G12c C01T16351   1.129   6.333   4.641
   884G12c H00K16352   1.206   6.312   4.715
   884G12c H00J16353   1.052   6.258   4.663
   884G12c H00I16354   1.088   6.431   4.666
   884G12c C01M16355   1.315   6.395   4.345
   884G12c C02016356   1.658   6.465   3.988
   884G12c C02116357   1.623   6.334   3.955
   884G12c C01L16358   1.420   6.475   4.290
   884G12c O00716359   1.266   6.284   4.283
   884G12c C02216360   1.528   6.252   4.018
   884G12c C02316361   1.621   6.282   3.819
   884G12c C00G16362   1.523   6.247   3.570
   884G12c C00E16363   1.400   6.111   3.411
   884G12c O00A16364   1.366   6.066   3.284
   884G12c C02416365   1.468   6.000   3.215
   884G12c H00V16366   1.548   6.074   3.201
   884G12c H00U16367   1.432   5.984   3.114
   884G12c H00T16368   1.512   5.907   3.251
   894G12c C00D16369   0.314   0.577   6.985
   894G12c O00B16370   0.317   0.603   7.118
   894G12c C02516371   0.440   0.600   7.185
   894G12c C02616372   0.534   0.719   7.163
   894G12c H00Y16373   0.627   0.724   7.220
   894G12c H00X16374   0.472   0.807   7.183
   894G12c O00C16375   0.590   0.720   7.031
   894G12c H00W16376   0.619   0.809   7.018
   894G12c C02716377   0.465   0.495   7.272
   894G12c O00D16378   0.374   0.391   7.277
   894G12c H00Z16379   0.310   0.389   7.208
   894G12c C02816380   0.597   0.483   7.344
   894G12c C02916381   0.724   0.504   7.279
   894G12c H01016382   0.716   0.535   7.176
   894G12c C02T16383   0.848   0.498   7.345
   894G12c H01O16384   0.938   0.534   7.296
   894G12c C02S16385   0.846   0.460   7.484
   894G12c O00J16386   0.966   0.435   7.550
   894G12c H01P16387   0.948   0.406   7.639
   894G12c C02R16388   0.723   0.428   7.550
   894G12c O00I16389   0.722   0.394   7.684
   894G12c C02Q16390   0.599   0.374   7.754
   894G12c H01N16391   0.606   0.334   7.855
   894G12c H01R16392   0.547   0.295   7.700
   894G12c H01Q16393   0.532   0.460   7.750
   894G12c C02A16394   0.601   0.447   7.480
   894G12c H01116395   0.507   0.423   7.528
   894G12c C00C16396   0.422   0.515   6.927
   894G12c H01216397   0.505   0.473   6.981
   894G12c C00B16398   0.425   0.489   6.792
   894G12c C00A16399   0.533   0.417   6.723
   894G12c C00916400   0.673   0.411   6.753
   894G12c C00816401   0.758   0.456   6.855
   894G12c H01316402   0.716   0.479   6.952
   894G12c C00716403   0.896   0.480   6.832
   894G12c H01416404   0.962   0.503   6.914
   894G12c C00616405   0.954   0.462   6.705
   894G12c C00516406   0.862   0.424   6.603
   894G12c C00416407   0.898   0.432   6.467
   894G12c C00316408   0.801   0.416   6.363
   894G12c C00216409   0.842   0.434   6.228
   894G12c C00116410   0.779   0.444   6.099
   894G12c C00M16411   0.650   0.510   6.083
   894G12c C00L16412   0.538   0.475   6.164
   894G12c C00R16413   0.418   0.557   6.167
   894G12c C00Q16414   0.375   0.670   6.091
   894G12c C00V16415   0.249   0.722   6.134
   894G12c C00U16416   0.202   0.708   6.268
   894G12c C00T16417   0.262   0.616   6.351
   894G12c C01616418   0.249   0.611   6.489
   894G12c C01516419   0.144   0.683   6.539
   894G12c C01016420   0.065   0.766   6.457
   894G12c C01116421   6.481   0.833   6.513
   894G12c H00516422   6.415   0.900   6.459
   894G12c C01216423   6.462   0.847   6.653
   894G12c C01716424   6.354   0.915   6.707
   894G12c O00216425   6.263   0.846   6.776
   894G12c H00416426   6.190   0.906   6.779
   894G12c C01816427   6.336   1.042   6.666
   894G12c O00116428   6.425   1.111   6.593
   894G12c H00316429   6.487   1.042   6.577
   894G12c C01916430   6.225   1.134   6.707
   894G12c H00216431   6.213   1.135   6.816
   894G12c H00116432   6.246   1.239   6.690
   894G12c O00016433   6.102   1.084   6.655
   894G12c C01A16434   5.993   1.157   6.685
   894G12c C02K16435   5.975   1.292   6.643
   894G12c O00G16436   6.079   1.351   6.579
   894G12c C02M16437   6.064   1.472   6.504
   894G12c H01G16438   6.057   1.563   6.563
   894G12c H01F16439   5.986   1.467   6.428
   894G12c H01E16440   6.155   1.485   6.446
   894G12c C02J16441   5.862   1.370   6.674
   894G12c H01H16442   5.859   1.476   6.658
   894G12c C02I16443   5.753   1.312   6.737
   894G12c C02N16444   5.625   1.380   6.768
   894G12c H01M16445   5.543   1.335   6.821
   894G12c C02O16446   5.602   1.511   6.738
   894G12c H01L16447   5.683   1.564   6.690
   894G12c C02P16448   5.457   1.571   6.754
   894G12c H01K16449   5.390   1.499   6.800
   894G12c H01J16450   5.449   1.664   6.812
   894G12c O00H16451   5.411   1.603   6.624
   894G12c H01I16452   5.446   1.530   6.574
   894G12c C02H16453   5.763   1.178   6.775
   894G12c H01C16454   5.684   1.120   6.820
   894G12c C02L16455   5.871   1.096   6.736
   894G12c H01D16456   5.869   0.989   6.745
   894G12c C01316457   0.034   0.770   6.733
   894G12c H00016458   0.027   0.802   6.836
   894G12c C01416459   0.132   0.680   6.679
   894G12c C00F16460   0.218   0.610   6.763
   894G12c C00H16461   0.331   0.527   6.568
   894G12c C00I16462   0.431   0.453   6.505
   894G12c C00J16463   0.435   0.451   6.363
   894G12c C00Z16464   0.094   0.776   6.321
   894G12c C00Y16465   0.015   0.851   6.226
   894G12c H00616466   6.454   0.913   6.260
   894G12c C00X16467   0.060   0.877   6.098
   894G12c O00316468   6.513   0.960   6.005
   894G12c C01B16469   6.397   1.030   6.057
   894G12c H00916470   6.353   1.086   5.974
   894G12c H00816471   6.415   1.115   6.123
   894G12c H00716472   6.325   0.965   6.106
   894G12c C00W16473   0.183   0.816   6.049
   894G12c O00416474   0.229   0.858   5.931
   894G12c C01C16475   0.355   0.815   5.894
   894G12c H00A16476   0.392   0.840   5.795
   894G12c C00P16477   0.436   0.737   5.983
   894G12c C00O16478   0.576   0.735   5.961
   894G12c C01D16479   0.645   0.854   5.917
   894G12c H00S16480   0.593   0.940   5.876
   894G12c C01E16481   0.783   0.872   5.917
   894G12c O00816482   0.840   0.999   5.901
   894G12c C01V16483   0.832   1.068   6.020
   894G12c C01Z16484   0.970   1.078   6.094
   894G12c H00R16485   1.051   1.066   6.022
   894G12c H00Q16486   0.985   1.174   6.143
   894G12c O00916487   0.978   0.977   6.193
   894G12c H00P16488   0.936   0.897   6.165
   894G12c C01W16489   0.712   1.103   6.076
   894G12c H00O16490   0.617   1.102   6.025
   894G12c C01X16491   0.702   1.179   6.215
   894G12c H00N16492   0.803   1.180   6.256
   894G12c H00M16493   0.671   1.283   6.205
   894G12c C01Y16494   0.615   1.101   6.306
   894G12c C02D16495   0.493   1.158   6.349
   894G12c H01916496   0.466   1.258   6.320
   894G12c C02C16497   0.408   1.079   6.436
   894G12c H01A16498   0.321   1.123   6.483
   894G12c C02B16499   0.458   0.955   6.487
   894G12c O00E16500   0.392   0.886   6.581
   894G12c H01B16501   0.440   0.806   6.594
   894G12c C02F16502   0.574   0.900   6.439
   894G12c O00F16503   0.608   0.777   6.492
   894G12c C02G16504   0.742   0.769   6.551
   894G12c H01716505   0.758   0.850   6.623
   894G12c H01616506   0.828   0.784   6.486
   894G12c H01516507   0.761   0.678   6.609
   894G12c C02E16508   0.657   0.966   6.349
   894G12c H01816509   0.744   0.915   6.311
   894G12c C01F16510   0.864   0.761   5.953
   894G12c C01G16511   1.011   0.760   5.982
   894G12c H00L16512   1.079   0.841   5.961
   894G12c C01H16513   1.072   0.652   6.053
   894G12c H00B16514   1.170   0.657   6.099
   894G12c C01I16515   0.996   0.537   6.087
   894G12c C01U16516   0.806   0.635   5.980
   894G12c C00S16517   0.350   0.525   6.287
   894G12c C00K16518   0.555   0.424   6.297
   894G12c C00N16519   0.663   0.628   6.000
   894G12c C00016520   0.874   0.517   6.022
   894G12c C01J16521   0.982   0.472   6.215
   894G12c C01K16522   1.084   0.476   6.313
   894G12c C01P16523   1.227   0.474   6.291
   894G12c C01Q16524   1.288   0.442   6.167
   894G12c H00G16525   1.375   0.498   6.137
   894G12c C01R16526   1.239   0.340   6.089
   894G12c H00F16527   1.149   0.287   6.117
   894G12c C01S16528   1.301   0.303   5.954
   894G12c H00E16529   1.354   0.209   5.967
   894G12c H00D16530   1.226   0.289   5.876
   894G12c O00516531   1.381   0.400   5.894
   894G12c H00C16532   1.416   0.371   5.811
   894G12c C01O16533   1.312   0.503   6.395
   894G12c H00H16534   1.416   0.522   6.374
   894G12c C01N16535   1.259   0.506   6.521
   894G12c O00616536   1.348   0.514   6.632
   894G12c C01T16537   1.494   0.495   6.619
   894G12c H00K16538   1.531   0.584   6.568
   894G12c H00J16539   1.520   0.402   6.568
   894G12c H00I16540   1.539   0.489   6.719
   894G12c C01M16541   1.121   0.486   6.551
   894G12c C02016542   0.663   0.388   6.389
   894G12c C02116543   0.641   0.352   6.523
   894G12c C01L16544   1.029   0.469   6.441
   894G12c O00716545   1.087   0.489   6.683
   894G12c C02216546   0.733   0.382   6.626
   894G12c C02316547   0.520   0.382   6.588
   894G12c C00G16548   0.323   0.538   6.711
   894G12c C00E16549   0.210   0.613   6.906
   894G12c O00A16550   0.097   0.651   6.975
   894G12c C02416551   0.014   0.547   7.005
   894G12c H00V16552   0.063   0.467   7.060
   894G12c H00U16553   6.487   0.512   6.914
   894G12c H00T16554   6.452   0.596   7.057
   904G12c C00D16555   4.680   6.076   2.600
   904G12c O00B16556   4.767   6.137   2.516
   904G12c C02516557   4.905   6.126   2.538
   904G12c C02616558   4.963   6.228   2.636
   904G12c H00Y16559   5.067   6.211   2.666
   904G12c H00X16560   4.903   6.211   2.725
   904G12c O00C16561   4.950   6.357   2.588
   904G12c H00W16562   4.880   6.390   2.642
   904G12c C02716563   4.969   6.025   2.479
   904G12c O00D16564   4.895   5.944   2.391
   904G12c H00Z16565   4.842   6.007   2.344
   904G12c C02816566   5.109   6.001   2.518
   904G12c C02916567   5.140   5.879   2.576
   904G12c H01016568   5.062   5.813   2.614
   904G12c C02T16569   5.271   5.846   2.605
   904G12c H01O16570   5.295   5.753   2.655
   904G12c C02S16571   5.376   5.923   2.569
   904G12c O00J16572   5.509   5.881   2.588
   904G12c H01P16573   5.561   5.959   2.592
   904G12c C02R16574   5.353   6.051   2.522
   904G12c O00I16575   5.466   6.120   2.474
   904G12c C02Q16576   5.443   6.249   2.435
   904G12c H01N16577   5.377   6.305   2.502
   904G12c H01R16578   5.406   6.269   2.335
   904G12c H01Q16579   5.538   6.302   2.437
   904G12c C02A16580   5.215   6.094   2.499
   904G12c H01116581   5.204   6.189   2.449
   904G12c C00C16582   4.726   5.993   2.708
   904G12c H01216583   4.827   5.955   2.712
   904G12c C00B16584   4.635   5.962   2.812
   904G12c C00A16585   4.666   5.890   2.929
   904G12c C00916586   4.775   5.796   2.962
   904G12c C00816587   4.887   5.743   2.896
   904G12c H01316588   4.929   5.788   2.807
   904G12c C00716589   4.938   5.620   2.942
   904G12c H01416590   5.026   5.578   2.895
   904G12c C00616591   4.880   5.543   3.047
   904G12c C00516592   4.769   5.603   3.106
   904G12c C00416593   4.680   5.527   3.187
   904G12c C00316594   4.555   5.575   3.228
   904G12c C00216595   4.473   5.484   3.309
   904G12c C00116596   4.352   5.517   3.379
   904G12c C00M16597   4.237   5.576   3.319
   904G12c C00L16598   4.241   5.703   3.252
   904G12c C00R16599   4.145   5.752   3.162
   904G12c C00Q16600   4.015   5.711   3.119
   904G12c C00V16601   3.960   5.784   3.018
   904G12c C00U16602   4.033   5.876   2.936
   904G12c C00T16603   4.165   5.903   2.963
   904G12c C01616604   4.260   5.961   2.878
   904G12c C01516605   4.215   6.019   2.760
   904G12c C01016606   4.073   6.011   2.740
   904G12c C01116607   4.017   6.081   2.631
   904G12c H00516608   3.913   6.101   2.612
   904G12c C01216609   4.101   6.144   2.533
   904G12c C01716610   4.040   6.219   2.424
   904G12c O00216611   3.925   6.170   2.373
   904G12c H00416612   3.906   6.078   2.386
   904G12c C01816613   4.088   6.341   2.383
   904G12c O00116614   4.196   6.408   2.435
   904G12c H00316615   4.173   6.499   2.425
   904G12c C01916616   4.014   6.427   2.281
   904G12c H00216617   4.053   6.421   2.179
   904G12c H00116618   3.910   6.395   2.274
   904G12c O00016619   4.031   0.043   2.315
   904G12c C01A16620   3.912   0.107   2.314
   904G12c C02K16621   3.868   0.184   2.203
   904G12c O00G16622   3.965   0.198   2.100
   904G12c C02M16623   3.941   0.305   2.006
   904G12c H01G16624   3.849   0.294   1.949
   904G12c H01F16625   4.013   0.312   1.925
   904G12c H01E16626   3.939   0.399   2.061
   904G12c C02J16627   3.736   0.233   2.199
   904G12c H01H16628   3.702   0.281   2.108
   904G12c C02I16629   3.642   0.207   2.303
   904G12c C02N16630   3.503   0.248   2.293
   904G12c H01M16631   3.434   0.209   2.367
   904G12c C02O16632   3.462   0.340   2.200
   904G12c H01L16633   3.538   0.389   2.141
   904G12c C02P16634   3.320   0.371   2.170
   904G12c H01K16635   3.240   0.319   2.225
   904G12c H01J16636   3.304   0.476   2.195
   904G12c O00H16637   3.294   0.352   2.035
   904G12c H01I16638   3.342   0.276   2.007
   904G12c C02H16639   3.689   0.131   2.414
   904G12c H01C16640   3.620   0.103   2.492
   904G12c C02L16641   3.821   0.084   2.421
   904G12c H01D16642   3.854   0.028   2.507
   904G12c C01316643   4.240   6.128   2.551
   904G12c H00016644   4.301   6.173   2.474
   904G12c C01416645   4.301   6.079   2.670
   904G12c C00F16646   4.442   6.066   2.686
   904G12c C00H16647   4.399   5.962   2.903
   904G12c C00I16648   4.441   5.913   3.031
   904G12c C00J16649   4.344   5.863   3.119
   904G12c C00Z16650   3.983   5.932   2.821
   904G12c C00Y16651   3.852   5.896   2.779
   904G12c H00616652   3.811   5.926   2.684
   904G12c C00X16653   3.778   5.801   2.851
   904G12c O00316654   3.644   5.767   2.816
   904G12c C01B16655   3.599   5.805   2.687
   904G12c H00916656   3.498   5.769   2.664
   904G12c H00816657   3.660   5.765   2.606
   904G12c H00716658   3.599   5.914   2.678
   904G12c C00W16659   3.828   5.750   2.973
   904G12c O00416660   3.741   5.672   3.051
   904G12c C01C16661   3.797   5.599   3.153
   904G12c H00A16662   3.726   5.575   3.231
   904G12c C00P16663   3.942   5.599   3.175
   904G12c C00O16664   3.997   5.493   3.258
   904G12c C01D16665   3.921   5.372   3.273
   904G12c H00S16666   3.819   5.369   3.236
   904G12c C01E16667   3.972   5.248   3.311
   904G12c O00816668   3.894   5.135   3.306
   904G12c C01V16669   3.765   5.131   3.354
   904G12c C01Z16670   3.678   5.017   3.291
   904G12c H00R16671   3.581   5.066   3.276
   904G12c H00Q16672   3.707   4.999   3.188
   904G12c O00916673   3.687   4.902   3.381
   904G12c H00P16674   3.771   4.861   3.370
   904G12c C01W16675   3.714   5.226   3.443
   904G12c H00O16676   3.779   5.298   3.489
   904G12c C01X16677   3.572   5.227   3.492
   904G12c H00N16678   3.529   5.127   3.487
   904G12c H00M16679   3.585   5.249   3.598
   904G12c C01Y16680   3.471   5.320   3.422
   904G12c C02D16681   3.360   5.263   3.345
   904G12c H01916682   3.343   5.156   3.349
   904G12c C02C16683   3.274   5.340   3.267
   904G12c H01A16684   3.195   5.294   3.210
   904G12c C02B16685   3.292   5.480   3.266
   904G12c O00E16686   3.219   5.558   3.181
   904G12c H01B16687   3.234   5.652   3.185
   904G12c C02F16688   3.398   5.544   3.343
   904G12c O00F16689   3.399   5.687   3.335
   904G12c C02G16690   3.498   5.756   3.409
   904G12c H01716691   3.599   5.725   3.380
   904G12c H01616692   3.493   5.741   3.517
   904G12c H01516693   3.497   5.865   3.402
   904G12c C02E16694   3.485   5.462   3.419
   904G12c H01816695   3.548   5.505   3.495
   904G12c C01F16696   4.110   5.252   3.342
   904G12c C01G16697   4.193   5.140   3.333
   904G12c H00L16698   4.144   5.045   3.319
   904G12c C01H16699   4.337   5.152   3.336
   904G12c H00B16700   4.398   5.067   3.310
   904G12c C01I16701   4.389   5.279   3.360
   904G12c C01U16702   4.175   5.370   3.375
   904G12c C00S16703   4.212   5.857   3.087
   904G12c C00K16704   4.367   5.755   3.203
   904G12c C00N16705   4.125   5.487   3.315
   904G12c C00016706   4.307   5.380   3.410
   904G12c C01J16707   4.511   5.346   3.322
   904G12c C01K16708   4.643   5.295   3.283
   904G12c C01P16709   4.699   5.161   3.306
   904G12c C01Q16710   4.639   5.061   3.397
   904G12c H00G16711   4.617   4.960   3.368
   904G12c C01R16712   4.600   5.096   3.523
   904G12c H00F16713   4.606   5.200   3.551
   904G12c C01S16714   4.523   5.006   3.621
   904G12c H00E16715   4.550   4.902   3.601
   904G12c H00D16716   4.560   5.036   3.719
   904G12c O00516717   4.379   5.018   3.612
   904G12c H00C16718   4.355   5.106   3.636
   904G12c C01O16719   4.825   5.123   3.260
   904G12c H00H16720   4.867   5.026   3.282
   904G12c C01N16721   4.892   5.212   3.175
   904G12c O00616722   5.014   5.176   3.112
   904G12c C01T16723   5.058   5.037   3.122
   904G12c H00K16724   5.049   4.994   3.222
   904G12c H00J16725   5.166   5.032   3.113
   904G12c H00I16726   5.002   4.967   3.060
   904G12c C01M16727   4.845   5.337   3.152
   904G12c C02016728   4.510   5.708   3.198
   904G12c C02116729   4.609   5.783   3.131
   904G12c C01L16730   4.722   5.393   3.211
   904G12c O00716731   4.924   5.420   3.078
   904G12c C02216732   4.727   5.730   3.082
   904G12c C02316733   4.578   5.885   3.039
   904G12c C00G16734   4.493   5.996   2.798
   904G12c C00E16735   4.544   6.108   2.594
   904G12c O00A16736   4.520   6.192   2.481
   904G12c C02416737   4.502   6.330   2.513
   904G12c H00V16738   4.462   6.376   2.423
   904G12c H00U16739   4.597   6.373   2.544
   904G12c H00T16740   4.442   6.350   2.601
   914G12c C00D16741   5.869   4.624   7.797
   914G12c O00B16742   5.916   4.608   7.925
   914G12c C02516743   6.043   4.664   7.952
   914G12c C02616744   6.068   4.814   7.904
   914G12c H00Y16745   6.074   4.824   7.796
   914G12c H00X16746   6.163   4.853   7.940
   914G12c O00C16747   5.962   4.902   7.949
   914G12c H00W16748   5.975   4.918   8.041
   914G12c C02716749   6.121   4.588   8.034
   914G12c O00D16750   6.079   4.460   8.088
   914G12c H00Z16751   5.994   4.445   8.050
   914G12c C02816752   6.253   4.624   8.072
   914G12c C02916753   6.347   4.687   7.982
   914G12c H01016754   6.303   4.688   7.883
   914G12c C02T16755   6.476   4.732   8.026
   914G12c H01O16756   0.027   4.782   7.962
   914G12c C02S16757   6.510   4.694   8.160
   914G12c O00J16758   0.114   4.722   8.204
   914G12c H01P16759   0.131   4.654   8.268
   914G12c C02R16760   6.422   4.629   8.251
   914G12c O00I16761   6.468   4.599   8.379
   914G12c C02Q16762   6.362   4.569   8.473
   914G12c H01N16763   6.330   4.466   8.458
   914G12c H01R16764   6.271   4.628   8.480
   914G12c H01Q16765   6.403   4.587   8.572
   914G12c C02A16766   6.296   4.593   8.202
   914G12c H01116767   6.236   4.530   8.265
   914G12c C00C16768   5.730   4.646   7.787
   914G12c H01216769   5.675   4.669   7.877
   914G12c C00B16770   5.668   4.682   7.665
   914G12c C00A16771   5.534   4.732   7.646
   914G12c C00916772   5.414   4.693   7.718
   914G12c C00816773   5.377   4.620   7.836
   914G12c H01316774   5.459   4.606   7.905
   914G12c C00716775   5.246   4.565   7.850
   914G12c H01416776   5.219   4.517   7.943
   914G12c C00616777   5.154   4.580   7.752
   914G12c C00516778   5.196   4.650   7.637
   914G12c C00416779   5.115   4.663   7.523
   914G12c C00316780   5.169   4.714   7.404
   914G12c C00216781   5.083   4.709   7.288
   914G12c C00116782   5.107   4.729   7.152
   914G12c C00M16783   5.228   4.677   7.095
   914G12c C00L16784   5.351   4.733   7.125
   914G12c C00R16785   5.471   4.676   7.078
   914G12c C00Q16786   5.502   4.584   6.978
   914G12c C00V16787   5.644   4.554   6.970
   914G12c C00U16788   5.729   4.579   7.078
   914G12c C00T16789   5.701   4.661   7.181
   914G12c C01616790   5.761   4.665   7.308
   914G12c C01516791   5.888   4.602   7.310
   914G12c C01016792   5.942   4.557   7.192
   914G12c C01116793   6.078   4.526   7.182
   914G12c H00516794   6.128   4.507   7.088
   914G12c C01216795   6.154   4.528   7.299
   914G12c C01716796   6.301   4.507   7.286
   914G12c O00216797   6.350   4.417   7.373
   914G12c H00416798   6.436   4.446   7.398
   914G12c C01816799   6.371   4.578   7.193
   914G12c O00116800   6.325   4.686   7.132
   914G12c H00316801   6.233   4.707   7.144
   914G12c C01916802   0.001   4.557   7.188
   914G12c H00216803   0.033   4.489   7.109
   914G12c H00116804   0.047   4.652   7.161
   914G12c O00016805   0.059   4.544   7.320
   914G12c C01A16806   0.196   4.545   7.318
   914G12c C02K16807   0.271   4.437   7.269
   914G12c O00G16808   0.206   4.336   7.204
   914G12c C02M16809   0.275   4.234   7.122
   914G12c H01G16810   0.314   4.285   7.034
   914G12c H01F16811   0.216   4.147   7.094
   914G12c H01E16812   0.358   4.188   7.177
   914G12c C02J16813   0.410   4.436   7.290
   914G12c H01H16814   0.475   4.359   7.250
   914G12c C02I16815   0.477   4.538   7.363
   914G12c C02N16816   0.617   4.514   7.404
   914G12c H01M16817   0.667   4.422   7.376
   914G12c C02O16818   0.683   4.585   7.505
   914G12c H01L16819   0.627   4.670   7.540
   914G12c C02P16820   0.814   4.548   7.569
   914G12c H01K16821   0.862   4.472   7.508
   914G12c H01J16822   0.879   4.635   7.556
   914G12c O00H16823   0.796   4.511   7.697
   914G12c H01I16824   0.785   4.592   7.745
   914G12c C02H16825   0.400   4.647   7.412
   914G12c H01C16826   0.448   4.727   7.466
   914G12c C02L16827   0.259   4.642   7.396
   914G12c H01D16828   0.199   4.724   7.434
   914G12c C01316829   6.092   4.551   7.424
   914G12c H00016830   6.160   4.540   7.508
   914G12c C01416831   5.955   4.590   7.431
   914G12c C00F16832   5.879   4.620   7.550
   914G12c C00H16833   5.696   4.706   7.422
   914G12c C00I16834   5.568   4.772   7.409
   914G12c C00J16835   5.514   4.785   7.274
   914G12c C00Z16836   5.860   4.535   7.079
   914G12c C00Y16837   5.908   4.455   6.969
   914G12c H00616838   5.998   4.395   6.972
   914G12c C00X16839   5.818   4.415   6.869
   914G12c O00316840   5.865   4.324   6.774
   914G12c C01B16841   5.857   4.362   6.643
   914G12c H00916842   5.867   4.471   6.643
   914G12c H00816843   5.760   4.341   6.598
   914G12c H00716844   5.938   4.307   6.596
   914G12c C00W16845   5.689   4.462   6.870
   914G12c O00416846   5.600   4.406   6.777
   914G12c C01C16847   5.468   4.442   6.784
   914G12c H00A16848   5.416   4.460   6.691
   914G12c C00P16849   5.410   4.511   6.895
   914G12c C00O16850   5.266   4.497   6.909
   914G12c C01D16851   5.185   4.395   6.852
   914G12c H00S16852   5.236   4.327   6.786
   914G12c C01E16853   5.045   4.370   6.873
   914G12c O00816854   4.984   4.256   6.827
   914G12c C01V16855   4.963   4.271   6.688
   914G12c C01Z16856   5.080   4.223   6.594
   914G12c H00R16857   5.155   4.170   6.652
   914G12c H00Q16858   5.045   4.155   6.516
   914G12c O00916859   5.139   4.326   6.525
   914G12c H00P16860   5.138   4.404   6.578
   914G12c C01W16861   4.854   4.337   6.641
   914G12c H00O16862   4.778   4.364   6.712
   914G12c C01X16863   4.831   4.381   6.498
   914G12c H00N16864   4.878   4.315   6.425
   914G12c H00M16865   4.724   4.388   6.479
   914G12c C01Y16866   4.865   4.526   6.491
   914G12c C02D16867   4.809   4.612   6.590
   914G12c H01916868   4.727   4.584   6.656
   914G12c C02C16869   4.850   4.746   6.604
   914G12c H01A16870   4.803   4.807   6.680
   914G12c C02B16871   4.945   4.798   6.510
   914G12c O00E16872   4.981   4.928   6.508
   914G12c H01B16873   5.041   4.926   6.435
   914G12c C02F16874   4.998   4.712   6.412
   914G12c O00F16875   5.096   4.773   6.324
   914G12c C02G16876   5.162   4.706   6.221
   914G12c H01716877   5.242   4.768   6.181
   914G12c H01616878   5.094   4.681   6.139
   914G12c H01516879   5.205   4.609   6.248
   914G12c C02E16880   4.961   4.579   6.399
   914G12c H01816881   4.990   4.514   6.318
   914G12c C01F16882   4.981   4.468   6.953
   914G12c C01G16883   4.855   4.449   7.004
   914G12c H00L16884   4.791   4.365   6.980
   914G12c C01H16885   4.809   4.523   7.120
   914G12c H00B16886   4.732   4.478   7.180
   914G12c C01I16887   4.901   4.620   7.169
   914G12c C01U16888   5.044   4.590   6.987
   914G12c C00S16889   5.575   4.723   7.168
   914G12c C00K16890   5.373   4.771   7.260
   914G12c C00N16891   5.186   4.581   6.996
   914G12c C00016892   4.997   4.682   7.084
   914G12c C01J16893   4.952   4.650   7.298
   914G12c C01K16894   4.894   4.611   7.423
   914G12c C01P16895   4.755   4.586   7.454
   914G12c C01Q16896   4.661   4.639   7.362
   914G12c H00G16897   4.699   4.726   7.310
   914G12c C01R16898   4.538   4.587   7.345
   914G12c H00F16899   4.510   4.494   7.393
   914G12c C01S16900   4.440   4.638   7.242
   914G12c H00E16901   4.337   4.651   7.276
   914G12c H00D16902   4.456   4.742   7.216
   914G12c O00516903   4.455   4.569   7.120
   914G12c H00C16904   4.460   4.632   7.049
   914G12c C01O16905   4.718   4.532   7.580
   914G12c H00H16906   4.614   4.508   7.592
   914G12c C01N16907   4.814   4.505   7.677
   914G12c O00616908   4.783   4.433   7.790
   914G12c C01T16909   4.645   4.407   7.818
   914G12c H00K16910   4.625   4.373   7.920
   914G12c H00J16911   4.612   4.319   7.763
   914G12c H00I16912   4.574   4.485   7.791
   914G12c C01M16913   4.941   4.547   7.655
   914G12c C02016914   5.303   4.761   7.386
   914G12c C02116915   5.359   4.775   7.513
   914G12c C01L16916   4.983   4.612   7.532
   914G12c O00716917   5.029   4.525   7.757
   914G12c C02216918   5.311   4.717   7.627
   914G12c C02316919   5.499   4.789   7.527
   914G12c C00G16920   5.748   4.674   7.548
   914G12c C00E16921   5.942   4.604   7.678
   914G12c O00A16922   6.066   4.566   7.697
   914G12c C02416923   6.083   4.423   7.709
   914G12c H00V16924   6.030   4.365   7.634
   914G12c H00U16925   6.056   4.383   7.807
   914G12c H00T16926   6.188   4.405   7.687
   924G12c C00D16927   3.352   1.553   8.803
   924G12c O00B16928   3.484   1.607   8.787
   924G12c C02516929   3.586   1.517   8.762
   924G12c C02616930   3.691   1.520   8.868
   924G12c H00Y16931   3.701   1.627   8.889
   924G12c H00X16932   3.791   1.487   8.840
   924G12c O00C16933   3.641   1.442   8.982
   924G12c H00W16934   3.693   1.470   9.056
   924G12c C02716935   3.594   1.462   8.639
   924G12c O00D16936   3.501   1.484   8.543
   924G12c H00Z16937   3.424   1.501   8.595
   924G12c C02816938   3.707   1.376   8.610
   924G12c C02916939   3.787   1.387   8.495
   924G12c H01016940   3.770   1.474   8.432
   924G12c C02T16941   3.904   1.310   8.471
   924G12c H01O16942   3.971   1.331   8.389
   924G12c C02S16943   3.945   1.219   8.569
   924G12c O00J16944   4.057   1.145   8.545
   924G12c H01P16945   4.084   1.109   8.628
   924G12c C02R16946   3.873   1.202   8.687
   924G12c O00I16947   3.924   1.109   8.778
   924G12c C02Q16948   3.854   1.109   8.903
   924G12c H01N16949   3.878   1.197   8.963
   924G12c H01R16950   3.904   1.030   8.959
   924G12c H01Q16951   3.750   1.079   8.895
   924G12c C02A16952   3.751   1.277   8.703
   924G12c H01116953   3.673   1.253   8.774
   924G12c C00C16954   3.330   1.420   8.825
   924G12c H01216955   3.411   1.348   8.825
   924G12c C00B16956   3.206   1.364   8.856
   924G12c C00A16957   3.174   1.231   8.887
   924G12c C00916958   3.222   1.101   8.845
   924G12c C00816959   3.316   1.063   8.748
   924G12c H01316960   3.386   1.140   8.720
   924G12c C00716961   3.310   0.938   8.684
   924G12c H01416962   3.391   0.912   8.618
   924G12c C00616963   3.195   0.855   8.702
   924G12c C00516964   3.102   0.893   8.796
   924G12c C00416965   2.974   0.835   8.803
   924G12c C00316966   2.867   0.897   8.874
   924G12c C00216967   2.740   0.831   8.867
   924G12c C00116968   2.607   0.869   8.913
   924G12c C00M16969   2.552   1.000   8.903
   924G12c C00L16970   2.624   1.115   8.929
   924G12c C00R16971   2.587   1.247   8.907
   924G12c C00Q16972   2.476   1.306   8.830
   924G12c C00V16973   2.493   1.444   8.821
   924G12c C00U16974   2.615   1.511   8.837
   924G12c C00T16975   2.725   1.449   8.872
   924G12c C01616976   2.856   1.495   8.868
   924G12c C01516977   2.868   1.627   8.824
   924G12c C01016978   2.754   1.701   8.794
   924G12c C01116979   2.776   1.821   8.730
   924G12c H00516980   2.690   1.873   8.690
   924G12c C01216981   2.895   1.873   8.698
   924G12c C01716982   2.913   1.989   8.615
   924G12c O00216983   3.008   1.992   8.522
   924G12c H00416984   2.993   2.067   8.466
   924G12c C01816985   2.825   2.091   8.627
   924G12c O00116986   2.730   2.094   8.725
   924G12c H00316987   2.785   2.074   8.799
   924G12c C01916988   2.817   2.209   8.534
   924G12c H00216989   2.774   2.166   8.444
   924G12c H00116990   2.745   2.283   8.570
   924G12c O00016991   2.951   2.260   8.509
   924G12c C01A16992   2.966   2.355   8.410
   924G12c C02K16993   3.098   2.388   8.364
   924G12c O00G16994   3.209   2.340   8.429
   924G12c C02M16995   3.337   2.404   8.420
   924G12c H01G16996   3.326   2.512   8.431
   924G12c H01F16997   3.392   2.388   8.328
   924G12c H01E16998   3.401   2.373   8.502
   924G12c C02J16999   3.108   2.476   8.257
   924G12c H01H17000   3.206   2.513   8.228
   924G12c C02I17001   3.000   2.530   8.185
   924G12c C02N17002   3.001   2.607   8.064
   924G12c H01M17003   2.926   2.682   8.045
   924G12c C02O17004   3.104   2.572   7.979
   924G12c H01L17005   3.164   2.485   8.003
   924G12c C02P17006   3.145   2.655   7.859
   924G12c H01K17007   3.065   2.726   7.840
   924G12c H01J17008   3.237   2.712   7.867
   924G12c O00H17009   3.150   2.578   7.734
   924G12c H01I17010   3.239   2.584   7.702
   924G12c C02H17011   2.868   2.502   8.235
   924G12c H01C17012   2.782   2.544   8.185
   924G12c C02L17013   2.857   2.414   8.345
   924G12c H01D17014   2.756   2.386   8.371
   924G12c C01317015   3.008   1.801   8.732
   924G12c H00017016   3.094   1.854   8.695
   924G12c C01417017   2.996   1.678   8.798
   924G12c C00F17018   3.113   1.592   8.822
   924G12c C00H17019   2.964   1.412   8.896
   924G12c C00I17020   2.941   1.281   8.942
   924G12c C00J17021   2.804   1.249   8.969
   924G12c C00Z17022   2.628   1.643   8.800
   924G12c C00Y17023   2.513   1.718   8.768
   924G12c H00617024   2.506   1.823   8.747
   924G12c C00X17025   2.382   1.658   8.763
   924G12c O00317026   2.267   1.727   8.746
   924G12c C01B17027   2.239   1.747   8.608
   924G12c H00917028   2.142   1.795   8.597
   924G12c H00817029   2.246   1.662   8.541
   924G12c H00717030   2.304   1.826   8.571
   924G12c C00W17031   2.380   1.520   8.777
   924G12c O00417032   2.256   1.464   8.760
   924G12c C01C17033   2.259   1.333   8.714
   924G12c H00A17034   2.213   1.318   8.617
   924G12c C00P17035   2.364   1.242   8.760
   924G12c C00O17036   2.358   1.100   8.740
   924G12c C01D17037   2.255   1.044   8.657
   924G12c H00S17038   2.175   1.107   8.621
   924G12c C01E17039   2.259   0.910   8.608
   924G12c O00817040   2.167   0.861   8.519
   924G12c C01V17041   2.038   0.861   8.574
   924G12c C01Z17042   1.934   0.895   8.468
   924G12c H00R17043   1.839   0.928   8.509
   924G12c H00Q17044   1.961   0.974   8.398
   924G12c O00917045   1.923   0.773   8.397
   924G12c H00P17046   1.993   0.770   8.334
   924G12c C01W17047   1.998   0.839   8.702
   924G12c H00O17048   2.077   0.824   8.775
   924G12c C01X17049   1.861   0.840   8.761
   924G12c H00N17050   1.790   0.823   8.680
   924G12c H00M17051   1.854   0.751   8.824
   924G12c C01Y17052   1.831   0.968   8.837
   924G12c C02D17053   1.843   1.094   8.773
   924G12c H01917054   1.881   1.096   8.672
   924G12c C02C17055   1.809   1.213   8.844
   924G12c H01A17056   1.820   1.307   8.791
   924G12c C02B17057   1.751   1.198   8.970
   924G12c O00E17058   1.710   1.309   9.029
   924G12c H01B17059   1.686   1.292   9.118
   924G12c C02F17060   1.731   1.070   9.032
   924G12c O00F17061   1.669   1.074   9.156
   924G12c C02G17062   1.612   0.945   9.202
   924G12c H01717063   1.692   0.880   9.240
   924G12c H01617064   1.551   0.901   9.123
   924G12c H01517065   1.547   0.966   9.287
   924G12c C02E17066   1.776   0.954   8.967
   924G12c H01817067   1.768   0.856   9.012
   924G12c C01F17068   2.355   0.825   8.662
   924G12c C01G17069   2.398   0.699   8.602
   924G12c H00L17070   2.338   0.655   8.524
   924G12c C01H17071   2.517   0.638   8.648
   924G12c H00B17072   2.560   0.559   8.588
   924G12c C01I17073   2.587   0.688   8.764
   924G12c C01U17074   2.422   0.861   8.780
   924G12c C00S17075   2.701   1.328   8.930
   924G12c C00K17076   2.763   1.109   8.949
   924G12c C00N17077   2.439   1.002   8.810
   924G12c C00017078   2.519   0.780   8.846
   924G12c C01J17079   2.727   0.705   8.796
   924G12c C01K17080   2.839   0.643   8.733
   924G12c C01P17081   2.848   0.513   8.672
   924G12c C01Q17082   2.735   0.421   8.685
   924G12c H00G17083   2.676   0.435   8.775
   924G12c C01R17084   2.702   0.333   8.587
   924G12c H00F17085   2.759   0.334   8.495
   924G12c C01S17086   2.588   0.235   8.591
   924G12c H00E17087   2.606   0.136   8.634
   924G12c H00D17088   2.510   0.283   8.649
   924G12c O00517089   2.526   0.228   8.469
   924G12c H00C17090   2.593   0.203   8.407
   924G12c C01O17091   2.964   0.468   8.604
   924G12c H00H17092   2.966   0.373   8.554
   924G12c C01N17093   3.070   0.549   8.585
   924G12c O00617094   3.189   0.508   8.526
   924G12c C01T17095   3.181   0.394   8.443
   924G12c H00K17096   3.275   0.362   8.397
   924G12c H00J17097   3.115   0.423   8.361
   924G12c H00I17098   3.137   0.306   8.488
   924G12c C01M17099   3.065   0.672   8.651
   924G12c C02017100   2.879   1.024   8.939
   924G12c C02117101   3.019   1.062   8.954
   924G12c C01L17102   2.956   0.715   8.731
   924G12c O00717103   3.181   0.739   8.636
   924G12c C02217104   3.116   1.010   8.876
   924G12c C02317105   3.046   1.198   8.940
   924G12c C00G17106   3.095   1.456   8.861
   924G12c C00E17107   3.246   1.643   8.799
   924G12c O00A17108   3.280   1.775   8.778
   924G12c C02417109   3.287   1.853   8.899
   924G12c H00V17110   3.277   1.962   8.898
   924G12c H00U17111   3.379   1.834   8.954
   924G12c H00T17112   3.207   1.814   8.962
   934G12c C00D17113   4.790   3.221   5.532
   934G12c O00B17114   4.682   3.296   5.566
   934G12c C02517115   4.632   3.380   5.466
   934G12c C02617116   4.522   3.323   5.377
   934G12c H00Y17117   4.431   3.381   5.381
   934G12c H00X17118   4.506   3.221   5.412
   934G12c O00C17119   4.581   3.303   5.250
   934G12c H00W17120   4.594   3.392   5.223
   934G12c C02717121   4.689   3.500   5.447
   934G12c O00D17122   4.781   3.537   5.535
   934G12c H00Z17123   4.758   3.476   5.604
   934G12c C02817124   4.666   3.586   5.335
   934G12c C02917125   4.537   3.616   5.284
   934G12c H01017126   4.439   3.585   5.318
   934G12c C02T17127   4.522   3.709   5.176
   934G12c H01O17128   4.424   3.735   5.137
   934G12c C02S17129   4.627   3.775   5.111
   934G12c O00J17130   4.598   3.862   5.006
   934G12c H01P17131   4.672   3.875   4.949
   934G12c C02R17132   4.759   3.745   5.157
   934G12c O00I17133   4.855   3.816   5.090
   934G12c C02Q17134   4.986   3.803   5.129
   934G12c H01N17135   4.983   3.843   5.231
   934G12c H01R17136   5.059   3.866   5.079
   934G12c H01Q17137   5.010   3.697   5.126
   934G12c C02A17138   4.779   3.657   5.271
   934G12c H01117139   4.881   3.639   5.299
   934G12c C00C17140   4.847   3.222   5.408
   934G12c H01217141   4.827   3.295   5.331
   934G12c C00B17142   4.961   3.135   5.383
   934G12c C00A17143   5.040   3.135   5.263
   934G12c C00917144   4.993   3.154   5.129
   934G12c C00817145   4.868   3.189   5.074
   934G12c H01317146   4.787   3.222   5.138
   934G12c C00717147   4.843   3.163   4.938
   934G12c H01417148   4.748   3.181   4.890
   934G12c C00617149   4.938   3.088   4.865
   934G12c C00517150   5.056   3.044   4.926
   934G12c C00417151   5.138   2.946   4.876
   934G12c C00317152   5.240   2.888   4.956
   934G12c C00217153   5.315   2.784   4.896
   934G12c C00117154   5.419   2.697   4.944
   934G12c C00M17155   5.415   2.626   5.070
   934G12c C00L17156   5.387   2.698   5.195
   934G12c C00R17157   5.333   2.639   5.313
   934G12c C00Q17158   5.316   2.505   5.352
   934G12c C00V17159   5.240   2.489   5.470
   934G12c C00U17160   5.177   2.594   5.532
   934G12c C00T17161   5.196   2.726   5.493
   934G12c C01617162   5.114   2.832   5.534
   934G12c C01517163   5.031   2.810   5.637
   934G12c C01017164   5.021   2.682   5.696
   934G12c C01117165   4.930   2.660   5.802
   934G12c H00517166   4.931   2.568   5.860
   934G12c C01217167   4.837   2.755   5.837
   934G12c C01717168   4.738   2.727   5.944
   934G12c O00217169   4.709   2.821   6.037
   934G12c H00417170   4.646   2.785   6.097
   934G12c C01817171   4.673   2.609   5.937
   934G12c O00117172   4.698   2.522   5.832
   934G12c H00317173   4.651   2.441   5.831
   934G12c C01917174   4.556   2.572   6.030
   934G12c H00217175   4.460   2.594   5.983
   934G12c H00117176   4.564   2.463   6.036
   934G12c O00017177   4.575   2.624   6.158
   934G12c C01A17178   4.604   2.538   6.255
   934G12c C02K17179   4.737   2.492   6.274
   934G12c O00G17180   4.832   2.543   6.183
   934G12c C02M17181   4.932   2.441   6.157
   934G12c H01G17182   4.999   2.447   6.243
   934G12c H01F17183   4.991   2.461   6.067
   934G12c H01E17184   4.908   2.335   6.157
   934G12c C02J17185   4.772   2.419   6.392
   934G12c H01H17186   4.872   2.382   6.408
   934G12c C02I17187   4.673   2.379   6.482
   934G12c C02N17188   4.698   2.296   6.596
   934G12c H01M17189   4.630   2.216   6.623
   934G12c C02O17190   4.814   2.316   6.665
   934G12c H01L17191   4.892   2.387   6.639
   934G12c C02P17192   4.848   2.229   6.780
   934G12c H01K17193   4.880   2.295   6.860
   934G12c H01J17194   4.759   2.176   6.815
   934G12c O00H17195   4.946   2.149   6.720
   934G12c H01I17196   4.916   2.107   6.642
   934G12c C02H17197   4.544   2.421   6.456
   934G12c H01C17198   4.466   2.405   6.529
   934G12c C02L17199   4.508   2.498   6.346
   934G12c H01D17200   4.407   2.536   6.341
   934G12c C01317201   4.844   2.876   5.770
   934G12c H00017202   4.773   2.943   5.815
   934G12c C01417203   4.933   2.904   5.668
   934G12c C00F17204   4.922   3.022   5.592
   934G12c C00H17205   5.105   2.945   5.455
   934G12c C00I17206   5.190   2.961   5.346
   934G12c C00J17207   5.294   2.866   5.322
   934G12c C00Z17208   5.098   2.574   5.644
   934G12c C00Y17209   5.098   2.443   5.706
   934G12c H00617210   5.048   2.415   5.798
   934G12c C00X17211   5.181   2.346   5.658
   934G12c O00317212   5.197   2.237   5.738
   934G12c C01B17213   5.331   2.174   5.744
   934G12c H00917214   5.339   2.110   5.831
   934G12c H00817215   5.411   2.249   5.747
   934G12c H00717216   5.353   2.105   5.663
   934G12c C00W17217   5.235   2.360   5.530
   934G12c O00417218   5.299   2.253   5.479
   934G12c C01C17219   5.370   2.268   5.364
   934G12c H00A17220   5.419   2.179   5.328
   934G12c C00P17221   5.361   2.384   5.285
   934G12c C00O17222   5.380   2.376   5.144
   934G12c C01D17223   5.365   2.252   5.081
   934G12c H00S17224   5.341   2.160   5.133
   934G12c C01E17225   5.347   2.238   4.940
   934G12c O00817226   5.334   2.119   4.874
   934G12c C01V17227   5.362   2.005   4.949
   934G12c C01Z17228   5.508   1.989   5.014
   934G12c H00R17229   5.563   2.080   5.039
   934G12c H00Q17230   5.507   1.933   5.107
   934G12c O00917231   5.591   1.933   4.916
   934G12c H00P17232   5.594   1.840   4.930
   934G12c C01W17233   5.268   1.908   4.964
   934G12c H00O17234   5.170   1.925   4.921
   934G12c C01X17235   5.276   1.787   5.058
   934G12c H00N17236   5.219   1.701   5.023
   934G12c H00M17237   5.383   1.765   5.062
   934G12c C01Y17238   5.238   1.836   5.199
   934G12c C02D17239   5.108   1.880   5.224
   934G12c H01917240   5.040   1.891   5.141
   934G12c C02C17241   5.068   1.919   5.352
   934G12c H01A17242   4.962   1.939   5.362
   934G12c C02B17243   5.157   1.911   5.458
   934G12c O00E17244   5.138   1.962   5.582
   934G12c H01B17245   5.222   1.947   5.622
   934G12c C02F17246   5.288   1.855   5.442
   934G12c O00F17247   5.369   1.844   5.554
   934G12c C02G17248   5.474   1.757   5.551
   934G12c H01717249   5.449   1.657   5.516
   934G12c H01617250   5.512   1.750   5.653
   934G12c H01517251   5.544   1.800   5.480
   934G12c C02E17252   5.328   1.821   5.312
   934G12c H01817253   5.424   1.777   5.290
   934G12c C01F17254   5.344   2.354   4.864
   934G12c C01G17255   5.291   2.358   4.732
   934G12c H00L17256   5.232   2.284   4.680
   934G12c C01H17257   5.290   2.486   4.669
   934G12c H00B17258   5.223   2.498   4.585
   934G12c C01I17259   5.327   2.602   4.744
   934G12c C01U17260   5.403   2.474   4.916
   934G12c C00S17261   5.286   2.750   5.393
   934G12c C00K17262   5.327   2.831   5.192
   934G12c C00N17263   5.400   2.486   5.056
   934G12c C00017264   5.420   2.593   4.847
   934G12c C01J17265   5.275   2.738   4.762
   934G12c C01K17266   5.179   2.801   4.674
   934G12c C01P17267   5.160   2.787   4.532
   934G12c C01Q17268   5.256   2.718   4.451
   934G12c H00G17269   5.358   2.705   4.484
   934G12c C01R17270   5.238   2.700   4.322
   934G12c H00F17271   5.146   2.722   4.270
   934G12c C01S17272   5.349   2.652   4.226
   934G12c H00E17273   5.361   2.716   4.139
   934G12c H00D17274   5.447   2.651   4.275
   934G12c O00517275   5.312   2.532   4.177
   934G12c H00C17276   5.352   2.463   4.228
   934G12c C01O17277   5.037   2.836   4.477
   934G12c H00H17278   5.002   2.814   4.378
   934G12c C01N17279   4.951   2.919   4.548
   934G12c O00617280   4.832   2.974   4.503
   934G12c C01T17281   4.783   2.934   4.370
   934G12c H00K17282   4.741   2.833   4.366
   934G12c H00J17283   4.844   2.963   4.284
   934G12c H00I17284   4.693   2.993   4.360
   934G12c C01M17285   4.986   2.954   4.679
   934G12c C02017286   5.267   2.922   5.093
   934G12c C02117287   5.206   3.044   5.129
   934G12c C01L17288   5.105   2.900   4.745
   934G12c O00717289   4.903   3.044   4.740
   934G12c C02217290   5.101   3.098   5.053
   934G12c C02317291   5.163   3.067   5.262
   934G12c C00G17292   5.002   3.039   5.478
   934G12c C00E17293   4.831   3.126   5.626
   934G12c O00A17294   4.794   3.151   5.755
   934G12c C02417295   4.896   3.210   5.841
   934G12c H00V17296   4.865   3.212   5.945
   934G12c H00U17297   4.929   3.313   5.828
   934G12c H00T17298   4.987   3.150   5.834
   944G12c C00D17299   3.036   2.086   6.587
   944G12c O00B17300   3.115   2.028   6.496
   944G12c C02517301   3.201   2.091   6.409
   944G12c C02617302   3.134   2.107   6.267
   944G12c H00Y17303   3.182   2.187   6.210
   944G12c H00X17304   3.030   2.129   6.289
   944G12c O00C17305   3.128   1.990   6.188
   944G12c H00W17306   3.145   1.911   6.238
   944G12c C02717307   3.329   2.133   6.444
   944G12c O00D17308   3.367   2.117   6.577
   944G12c H00Z17309   3.292   2.087   6.627
   944G12c C02817310   3.427   2.178   6.350
   944G12c C02917311   3.436   2.143   6.212
   944G12c H01017312   3.365   2.076   6.166
   944G12c C02T17313   3.542   2.185   6.128
   944G12c H01O17314   3.553   2.155   6.024
   944G12c C02S17315   3.643   2.255   6.186
   944G12c O00J17316   3.745   2.313   6.119
   944G12c H01P17317   3.778   2.383   6.172
   944G12c C02R17318   3.639   2.297   6.320
   944G12c O00I17319   3.742   2.367   6.369
   944G12c C02Q17320   3.744   2.410   6.505
   944G12c H01N17321   3.751   2.324   6.572
   944G12c H01R17322   3.658   2.477   6.508
   944G12c H01Q17323   3.833   2.471   6.516
   944G12c C02A17324   3.534   2.259   6.401
   944G12c H01117325   3.525   2.292   6.504
   944G12c C00C17326   2.955   1.998   6.659
   944G12c H01217327   2.957   1.891   6.649
   944G12c C00B17328   2.865   2.049   6.751
   944G12c C00A17329   2.763   1.973   6.828
   944G12c C00917330   2.682   1.858   6.783
   944G12c C00817331   2.668   1.794   6.657
   944G12c H01317332   2.745   1.793   6.581
   944G12c C00717333   2.537   1.750   6.619
   944G12c H01417334   2.522   1.706   6.521
   944G12c C00617335   2.421   1.764   6.699
   944G12c C00517336   2.440   1.826   6.818
   944G12c C00417337   2.327   1.876   6.892
   944G12c C00317338   2.349   1.979   6.994
   944G12c C00217339   2.223   2.030   7.060
   944G12c C00117340   2.197   2.139   7.147
   944G12c C00M17341   2.260   2.266   7.134
   944G12c C00L17342   2.402   2.277   7.124
   944G12c C00R17343   2.474   2.397   7.093
   944G12c C00Q17344   2.425   2.537   7.074
   944G12c C00V17345   2.532   2.620   7.032
   944G12c C00U17346   2.652   2.572   6.979
   944G12c C00T17347   2.684   2.440   6.986
   944G12c C01617348   2.785   2.381   6.909
   944G12c C01517349   2.866   2.469   6.842
   944G12c C01017350   2.864   2.604   6.866
   944G12c C01117351   2.969   2.678   6.819
   944G12c H00517352   2.980   2.781   6.852
   944G12c C01217353   3.083   2.624   6.758
   944G12c C01717354   3.198   2.707   6.728
   944G12c O00217355   3.247   2.785   6.827
   944G12c H00417356   3.300   2.853   6.787
   944G12c C01817357   3.262   2.703   6.606
   944G12c O00117358   3.208   2.623   6.512
   944G12c H00317359   3.139   2.571   6.551
   944G12c C01917360   3.371   2.801   6.567
   944G12c H00217361   3.448   2.749   6.510
   944G12c H00117362   3.317   2.868   6.500
   944G12c O00017363   3.434   2.872   6.676
   944G12c C01A17364   3.512   2.984   6.645
   944G12c C02K17365   3.574   3.055   6.752
   944G12c O00G17366   3.544   3.012   6.883
   944G12c C02M17367   3.431   3.081   6.935
   944G12c H01G17368   3.334   3.063   6.888
   944G12c H01F17369   3.442   3.189   6.945
   944G12c H01E17370   3.421   3.039   7.035
   944G12c C02J17371   3.669   3.152   6.730
   944G12c H01H17372   3.734   3.201   6.800
   944G12c C02I17373   3.692   3.189   6.599
   944G12c C02N17374   3.788   3.295   6.581
   944G12c H01M17375   3.869   3.298   6.652
   944G12c C02O17376   3.779   3.387   6.486
   944G12c H01L17377   3.698   3.387   6.414
   944G12c C02P17378   3.888   3.494   6.474
   944G12c H01K17379   3.972   3.476   6.541
   944G12c H01J17380   3.920   3.465   6.374
   944G12c O00H17381   3.838   3.621   6.482
   944G12c H01I17382   3.804   3.653   6.400
   944G12c C02H17383   3.623   3.136   6.491
   944G12c H01C17384   3.626   3.190   6.397
   944G12c C02L17385   3.531   3.033   6.517
   944G12c H01D17386   3.469   3.000   6.435
   944G12c C01317387   3.080   2.489   6.726
   944G12c H00017388   3.162   2.427   6.693
   944G12c C01417389   2.967   2.411   6.761
   944G12c C00F17390   2.957   2.273   6.721
   944G12c C00H17391   2.793   2.242   6.898
   944G12c C00I17392   2.705   2.160   6.975
   944G12c C00J17393   2.610   2.224   7.063
   944G12c C00Z17394   2.749   2.655   6.930
   944G12c C00Y17395   2.727   2.791   6.945
   944G12c H00617396   2.801   2.853   6.896
   944G12c C00X17397   2.613   2.847   7.011
   944G12c O00317398   2.594   2.986   7.010
   944G12c C01B17399   2.703   3.074   6.997
   944G12c H00917400   2.799   3.035   7.031
   944G12c H00817401   2.685   3.170   7.045
   944G12c H00717402   2.709   3.098   6.891
   944G12c C00W17403   2.511   2.760   7.043
   944G12c O00417404   2.387   2.819   7.058
   944G12c C01C17405   2.281   2.738   7.077
   944G12c H00A17406   2.202   2.784   7.135
   944G12c C00P17407   2.294   2.595   7.093
   944G12c C00O17408   2.172   2.513   7.102
   944G12c C01D17409   2.038   2.568   7.085
   944G12c H00S17410   2.019   2.669   7.053
   944G12c C01E17411   1.925   2.494   7.047
   944G12c O00817412   1.823   2.545   6.977
   944G12c C01V17413   1.728   2.619   7.042
   944G12c C01Z17414   1.611   2.644   6.949
   944G12c H00R17415   1.570   2.741   6.980
   944G12c H00Q17416   1.641   2.677   6.850
   944G12c O00917417   1.528   2.532   6.942
   944G12c H00P17418   1.558   2.476   7.011
   944G12c C01W17419   1.719   2.648   7.171
   944G12c H00O17420   1.798   2.619   7.239
   944G12c C01X17421   1.609   2.717   7.247
   944G12c H00N17422   1.521   2.734   7.184
   944G12c H00M17423   1.592   2.652   7.332
   944G12c C01Y17424   1.640   2.856   7.293
   944G12c C02D17425   1.640   2.967   7.206
   944G12c H01917426   1.612   2.952   7.103
   944G12c C02C17427   1.657   3.093   7.258
   944G12c H01A17428   1.659   3.172   7.184
   944G12c C02B17429   1.691   3.120   7.394
   944G12c O00E17430   1.701   3.245   7.451
   944G12c H01B17431   1.739   3.245   7.537
   944G12c C02F17432   1.699   3.009   7.482
   944G12c O00F17433   1.731   3.034   7.616
   944G12c C02G17434   1.738   2.926   7.706
   944G12c H01717435   1.642   2.875   7.703
   944G12c H01617436   1.748   2.977   7.802
   944G12c H01517437   1.817   2.853   7.687
   944G12c C02E17438   1.678   2.878   7.432
   944G12c H01817439   1.685   2.794   7.499
   944G12c C01F17440   1.937   2.354   7.065
   944G12c C01G17441   1.840   2.257   7.011
   944G12c H00L17442   1.752   2.304   6.968
   944G12c C01H17443   1.866   2.119   7.012
   944G12c H00B17444   1.807   2.057   6.946
   944G12c C01I17445   1.992   2.074   7.066
   944G12c C01U17446   2.041   2.295   7.136
   944G12c C00S17447   2.602   2.360   7.063
   944G12c C00K17448   2.484   2.167   7.086
   944G12c C00N17449   2.164   2.372   7.127
   944G12c C00017450   2.061   2.157   7.155
   944G12c C01J17451   2.093   1.977   7.021
   944G12c C01K17452   2.076   1.866   6.926
   944G12c C01P17453   1.954   1.800   6.883
   944G12c C01Q17454   1.824   1.805   6.945
   944G12c H00G17455   1.737   1.801   6.880
   944G12c C01R17456   1.814   1.812   7.078
   944G12c H00F17457   1.896   1.815   7.148
   944G12c C01S17458   1.691   1.806   7.160
   944G12c H00E17459   1.672   1.704   7.194
   944G12c H00D17460   1.710   1.866   7.249
   944G12c O00517461   1.573   1.849   7.090
   944G12c H00C17462   1.501   1.793   7.115
   944G12c C01O17463   1.955   1.708   6.772
   944G12c H00H17464   1.859   1.673   6.739
   944G12c C01N17465   2.072   1.690   6.699
   944G12c O00617466   2.070   1.605   6.592
   944G12c C01T17467   1.939   1.558   6.537
   944G12c H00K17468   1.872   1.505   6.605
   944G12c H00J17469   1.951   1.491   6.452
   944G12c H00I17470   1.889   1.643   6.490
   944G12c C01M17471   2.189   1.749   6.741
   944G12c C02017472   2.476   2.040   7.025
   944G12c C02117473   2.584   1.959   6.975
   944G12c C01L17474   2.198   1.827   6.860
   944G12c O00717475   2.297   1.731   6.657
   944G12c C02217476   2.566   1.869   6.866
   944G12c C02317477   2.707   2.026   6.943
   944G12c C00G17478   2.872   2.187   6.791
   944G12c C00E17479   3.027   2.224   6.607
   944G12c O00A17480   3.090   2.304   6.513
   944G12c C02417481   2.996   2.381   6.433
   944G12c H00V17482   2.920   2.324   6.380
   944G12c H00U17483   3.053   2.430   6.354
   944G12c H00T17484   2.925   2.447   6.484
   954G12c C00D17485   5.734   5.607   5.545
   954G12c O00B17486   5.747   5.646   5.417
   954G12c C02517487   5.633   5.646   5.341
   954G12c C02617488   5.547   5.768   5.343
   954G12c H00Y17489   5.442   5.750   5.366
   954G12c H00X17490   5.567   5.816   5.247
   954G12c O00C17491   5.587   5.872   5.436
   954G12c H00W17492   5.681   5.870   5.434
   954G12c C02717493   5.610   5.533   5.269
   954G12c O00D17494   5.704   5.434   5.270
   954G12c H00Z17495   5.783   5.470   5.308
   954G12c C02817496   5.493   5.511   5.195
   954G12c C02917497   5.432   5.380   5.197
   954G12c H01017498   5.475   5.304   5.260
   954G12c C02T17499   5.316   5.355   5.128
   954G12c H01O17500   5.273   5.256   5.136
   954G12c C02S17501   5.256   5.453   5.045
   954G12c O00J17502   5.137   5.434   4.987
   954G12c H01P17503   5.099   5.519   4.969
   954G12c C02R17504   5.316   5.580   5.039
   954G12c O00I17505   5.252   5.673   4.964
   954G12c C02Q17506   5.302   5.806   4.965
   954G12c H01N17507   5.401   5.802   4.919
   954G12c H01R17508   5.322   5.836   5.067
   954G12c H01Q17509   5.228   5.867   4.913
   954G12c C02A17510   5.432   5.610   5.110
   954G12c H01117511   5.479   5.706   5.095
   954G12c C00C17512   5.612   5.580   5.606
   954G12c H01217513   5.518   5.600   5.557
   954G12c C00B17514   5.604   5.530   5.734
   954G12c C00A17515   5.482   5.533   5.809
   954G12c C00917516   5.370   5.622   5.802
   954G12c C00817517   5.327   5.730   5.716
   954G12c H01317518   5.379   5.744   5.622
   954G12c C00717519   5.224   5.818   5.770
   954G12c H01417520   5.187   5.903   5.714
   954G12c C00617521   5.179   5.809   5.902
   954G12c C00517522   5.219   5.700   5.975
   954G12c C00417523   5.204   5.699   6.113
   954G12c C00317524   5.281   5.607   6.196
   954G12c C00217525   5.255   5.614   6.337
   954G12c C00117526   5.317   5.547   6.449
   954G12c C00M17527   5.462   5.519   6.465
   954G12c C00L17528   5.537   5.462   6.363
   954G12c C00R17529   5.680   5.451   6.353
   954G12c C00Q17530   5.781   5.498   6.444
   954G12c C00V17531   5.910   5.474   6.386
   954G12c C00U17532   5.931   5.464   6.249
   954G12c C00T17533   5.824   5.450   6.158
   954G12c C01617534   5.826   5.455   6.022
   954G12c C01517535   5.953   5.469   5.967
   954G12c C01017536   6.071   5.466   6.052
   954G12c C01117537   6.197   5.465   5.990
   954G12c H00517538   6.290   5.484   6.042
   954G12c C01217539   6.209   5.462   5.850
   954G12c C01717540   6.339   5.457   5.783
   954G12c O00217541   6.368   5.547   5.683
   954G12c H00417542   6.457   5.527   5.661
   954G12c C01817543   6.428   5.366   5.827
   954G12c O00117544   6.392   5.274   5.918
   954G12c H00317545   6.300   5.255   5.914
   954G12c C01917546   0.048   5.342   5.772
   954G12c H00217547   0.121   5.351   5.853
   954G12c H00117548   0.054   5.244   5.724
   954G12c O00017549   0.092   5.454   5.699
   954G12c C01A17550   0.182   5.441   5.599
   954G12c C02K17551   0.179   5.541   5.500
   954G12c O00G17552   0.086   5.638   5.529
   954G12c C02M17553   0.088   5.759   5.451
   954G12c H01G17554   0.051   5.750   5.349
   954G12c H01F17555   0.189   5.798   5.445
   954G12c H01E17556   0.025   5.834   5.499
   954G12c C02J17557   0.263   5.536   5.383
   954G12c H01H17558   0.244   5.611   5.308
   954G12c C02I17559   0.354   5.426   5.366
   954G12c C02N17560   0.451   5.416   5.264
   954G12c H01M17561   0.536   5.351   5.282
   954G12c C02O17562   0.442   5.476   5.145
   954G12c H01L17563   0.360   5.546   5.132
   954G12c C02P17564   0.536   5.463   5.028
   954G12c H01K17565   0.503   5.517   4.939
   954G12c H01J17566   0.633   5.504   5.059
   954G12c O00H17567   0.554   5.333   4.979
   954G12c H01I17568   0.645   5.317   4.961
   954G12c C02H17569   0.356   5.327   5.464
   954G12c H01C17570   0.432   5.251   5.454
   954G12c C02L17571   0.275   5.333   5.583
   954G12c H01D17572   0.278   5.252   5.654
   954G12c C01317573   6.099   5.476   5.773
   954G12c H00017574   6.113   5.473   5.666
   954G12c C01417575   5.964   5.493   5.829
   954G12c C00F17576   5.847   5.515   5.748
   954G12c C00H17577   5.712   5.454   5.944
   954G12c C00I17578   5.587   5.435   6.002
   954G12c C00J17579   5.591   5.411   6.143
   954G12c C00Z17580   6.056   5.467   6.191
   954G12c C00Y17581   6.165   5.457   6.274
   954G12c H00617582   6.268   5.453   6.243
   954G12c C00X17583   6.155   5.468   6.418
   954G12c O00317584   6.259   5.450   6.505
   954G12c C01B17585   6.396   5.448   6.462
   954G12c H00917586   6.404   5.541   6.406
   954G12c H00817587   6.433   5.369   6.398
   954G12c H00717588   6.462   5.463   6.547
   954G12c C00W17589   6.028   5.485   6.473
   954G12c O00417590   6.007   5.521   6.601
   954G12c C01C17591   5.898   5.584   6.640
   954G12c H00A17592   5.912   5.644   6.729
   954G12c C00P17593   5.775   5.572   6.565
   954G12c C00O17594   5.651   5.638   6.609
   954G12c C01D17595   5.661   5.750   6.694
   954G12c H00S17596   5.761   5.778   6.723
   954G12c C01E17597   5.552   5.835   6.737
   954G12c O00817598   5.566   5.957   6.806
   954G12c C01V17599   5.689   5.996   6.852
   954G12c C01Z17600   5.732   6.129   6.809
   954G12c H00R17601   5.642   6.189   6.818
   954G12c H00Q17602   5.807   6.178   6.871
   954G12c O00917603   5.764   6.132   6.672
   954G12c H00P17604   5.687   6.106   6.624
   954G12c C01W17605   5.756   5.922   6.938
   954G12c H00O17606   5.707   5.830   6.966
   954G12c C01X17607   5.884   5.955   7.008
   954G12c H00N17608   5.918   6.058   7.010
   954G12c H00M17609   5.868   5.930   7.113
   954G12c C01Y17610   5.992   5.873   6.948
   954G12c C02D17611   6.075   5.927   6.845
   954G12c H01917612   6.048   6.016   6.789
   954G12c C02C17613   6.191   5.855   6.801
   954G12c H01A17614   6.247   5.887   6.714
   954G12c C02B17615   6.213   5.727   6.856
   954G12c O00E17616   6.329   5.657   6.834
   954G12c H01B17617   6.312   5.565   6.849
   954G12c C02F17618   6.127   5.673   6.959
   954G12c O00F17619   6.165   5.551   7.011
   954G12c C02G17620   6.101   5.508   7.133
   954G12c H01717621   6.106   5.571   7.221
   954G12c H01617622   6.140   5.407   7.142
   954G12c H01517623   5.994   5.499   7.112
   954G12c C02E17624   6.019   5.747   7.005
   954G12c H01817625   5.957   5.718   7.088
   954G12c C01F17626   5.422   5.794   6.686
   954G12c C01G17627   5.311   5.881   6.685
   954G12c H00L17628   5.307   5.982   6.724
   954G12c C01H17629   5.203   5.857   6.592
   954G12c H00B17630   5.132   5.936   6.576
   954G12c C01I17631   5.195   5.734   6.526
   954G12c C01U17632   5.399   5.668   6.619
   954G12c C00S17633   5.711   5.409   6.221
   954G12c C00K17634   5.488   5.459   6.227
   954G12c C00N17635   5.518   5.606   6.567
   954G12c C00017636   5.274   5.628   6.559
   954G12c C01J17637   5.167   5.714   6.387
   954G12c C01K17638   5.088   5.806   6.307
   954G12c C01P17639   4.984   5.898   6.341
   954G12c C01Q17640   4.912   5.881   6.464
   954G12c H00G17641   4.889   5.782   6.500
   954G12c C01R17642   4.868   5.990   6.529
   954G12c H00F17643   4.885   6.088   6.486
   954G12c C01S17644   4.797   5.983   6.667
   954G12c H00E17645   4.742   5.889   6.671
   954G12c H00D17646   4.882   5.983   6.736
   954G12c O00517647   4.729   6.104   6.695
   954G12c H00C17648   4.790   6.173   6.716
   954G12c C01O17649   4.925   5.986   6.243
   954G12c H00H17650   4.840   6.049   6.266
   954G12c C01N17651   4.965   5.985   6.109
   954G12c O00617652   4.918   6.064   6.010
   954G12c C01T17653   4.806   6.133   6.027
   954G12c H00K17654   4.729   6.067   6.067
   954G12c H00J17655   4.776   6.194   5.942
   954G12c H00I17656   4.833   6.209   6.100
   954G12c C01M17657   5.070   5.898   6.080
   954G12c C02017658   5.381   5.514   6.150
   954G12c C02117659   5.369   5.511   6.006
   954G12c C01L17660   5.128   5.802   6.170
   954G12c O00717661   5.099   5.907   5.947
   954G12c C02217662   5.300   5.597   5.928
   954G12c C02317663   5.475   5.469   5.929
   954G12c C00G17664   5.720   5.495   5.806
   954G12c C00E17665   5.854   5.569   5.615
   954G12c O00A17666   5.969   5.587   5.548
   954G12c C02417667   6.014   5.721   5.551
   954G12c H00V17668   6.041   5.749   5.653
   954G12c H00U17669   5.940   5.797   5.523
   954G12c H00T17670   6.101   5.746   5.490
   964G12c C00D17671   4.563   1.605   5.437
   964G12c O00B17672   4.683   1.660   5.392
   964G12c C02517673   4.772   1.581   5.323
   964G12c C02617674   4.841   1.469   5.400
   964G12c H00Y17675   4.900   1.404   5.334
   964G12c H00X17676   4.769   1.412   5.458
   964G12c O00C17677   4.930   1.528   5.491
   964G12c H00W17678   5.012   1.554   5.453
   964G12c C02717679   4.788   1.615   5.192
   964G12c O00D17680   4.714   1.715   5.141
   964G12c H00Z17681   4.691   1.766   5.217
   964G12c C02817682   4.883   1.544   5.107
   964G12c C02917683   5.014   1.523   5.142
   964G12c H01017684   5.062   1.549   5.235
   964G12c C02T17685   5.098   1.444   5.062
   964G12c H01O17686   5.196   1.419   5.101
   964G12c C02S17687   5.057   1.384   4.945
   964G12c O00J17688   5.132   1.301   4.876
   964G12c H01P17689   5.073   1.274   4.807
   964G12c C02R17690   4.925   1.408   4.899
   964G12c O00I17691   4.880   1.345   4.784
   964G12c C02Q17692   4.743   1.380   4.745
   964G12c H01N17693   4.719   1.486   4.735
   964G12c H01R17694   4.672   1.337   4.817
   964G12c H01Q17695   4.738   1.327   4.650
   964G12c C02A17696   4.843   1.486   4.982
   964G12c H01117697   4.738   1.496   4.956
   964G12c C00C17698   4.507   1.484   5.395
   964G12c H01217699   4.556   1.422   5.321
   964G12c C00B17700   4.394   1.434   5.450
   964G12c C00A17701   4.326   1.311   5.416
   964G12c C00917702   4.320   1.230   5.292
   964G12c C00817703   4.375   1.249   5.165
   964G12c H01317704   4.463   1.311   5.171
   964G12c C00717705   4.317   1.171   5.055
   964G12c H01417706   4.367   1.172   4.959
   964G12c C00617707   4.193   1.098   5.072
   964G12c C00517708   4.141   1.095   5.199
   964G12c C00417709   4.012   1.041   5.228
   964G12c C00317710   3.953   1.064   5.355
   964G12c C00217711   3.821   1.019   5.369
   964G12c C00117712   3.719   1.045   5.470
   964G12c C00M17713   3.702   1.169   5.547
   964G12c C00L17714   3.812   1.225   5.612
   964G12c C00R17715   3.814   1.358   5.664
   964G12c C00Q17716   3.717   1.459   5.684
   964G12c C00V17717   3.760   1.576   5.757
   964G12c C00U17718   3.899   1.602   5.769
   964G12c C00T17719   3.993   1.516   5.715
   964G12c C01617720   4.119   1.546   5.682
   964G12c C01517721   4.158   1.678   5.713
   964G12c C01017722   4.068   1.764   5.789
   964G12c C01117723   4.119   1.892   5.836
   964G12c H00517724   4.055   1.951   5.899
   964G12c C01217725   4.252   1.931   5.812
   964G12c C01717726   4.296   2.051   5.878
   964G12c O00217727   4.257   2.075   6.011
   964G12c H00417728   4.201   2.008   6.048
   964G12c C01817729   4.367   2.145   5.810
   964G12c O00117730   4.417   2.129   5.680
   964G12c H00317731   4.484   2.195   5.678
   964G12c C01917732   4.407   2.280   5.869
   964G12c H00217733   4.350   2.362   5.826
   964G12c H00117734   4.390   2.283   5.977
   964G12c O00017735   4.552   2.305   5.842
   964G12c C01A17736   4.641   2.225   5.909
   964G12c C02K17737   4.744   2.160   5.832
   964G12c O00G17738   4.751   2.197   5.702
   964G12c C02M17739   4.858   2.146   5.619
   964G12c H01G17740   4.951   2.177   5.667
   964G12c H01F17741   4.854   2.188   5.519
   964G12c H01E17742   4.861   2.037   5.608
   964G12c C02J17743   4.833   2.062   5.888
   964G12c H01H17744   4.914   2.011   5.837
   964G12c C02I17745   4.813   2.034   6.027
   964G12c C02N17746   4.896   1.939   6.097
   964G12c H01M17747   4.904   1.963   6.202
   964G12c C02O17748   4.936   1.826   6.038
   964G12c H01L17749   4.899   1.807   5.938
   964G12c C02P17750   5.004   1.704   6.104
   964G12c H01K17751   5.068   1.659   6.028
   964G12c H01J17752   5.073   1.739   6.181
   964G12c O00H17753   4.917   1.612   6.160
   964G12c H01I17754   4.847   1.592   6.100
   964G12c C02H17755   4.723   2.110   6.106
   964G12c H01C17756   4.704   2.081   6.209
   964G12c C02L17757   4.637   2.206   6.048
   964G12c H01D17758   4.558   2.255   6.102
   964G12c C01317759   4.327   1.852   5.719
   964G12c H00017760   4.423   1.895   5.694
   964G12c C01417761   4.285   1.719   5.670
   964G12c C00F17762   4.364   1.638   5.583
   964G12c C00H17763   4.204   1.460   5.609
   964G12c C00I17764   4.160   1.327   5.586
   964G12c C00J17765   4.027   1.296   5.622
   964G12c C00Z17766   3.941   1.716   5.823
   964G12c C00Y17767   3.843   1.802   5.885
   964G12c H00617768   3.855   1.901   5.925
   964G12c C00X17769   3.704   1.773   5.881
   964G12c O00317770   3.608   1.854   5.932
   964G12c C01B17771   3.650   1.905   6.062
   964G12c H00917772   3.557   1.926   6.115
   964G12c H00817773   3.708   1.996   6.048
   964G12c H00717774   3.698   1.819   6.108
   964G12c C00W17775   3.662   1.659   5.807
   964G12c O00417776   3.527   1.642   5.801
   964G12c C01C17777   3.486   1.545   5.712
   964G12c H00A17778   3.392   1.503   5.743
   964G12c C00P17779   3.575   1.444   5.662
   964G12c C00O17780   3.514   1.356   5.563
   964G12c C01D17781   3.383   1.383   5.503
   964G12c H00S17782   3.328   1.473   5.523
   964G12c C01E17783   3.334   1.299   5.397
   964G12c O00817784   3.219   1.339   5.328
   964G12c C01V17785   3.109   1.335   5.409
   964G12c C01Z17786   3.059   1.193   5.427
   964G12c H00R17787   2.957   1.192   5.388
   964G12c H00Q17788   3.113   1.117   5.369
   964G12c O00917789   3.052   1.161   5.564
   964G12c H00P17790   3.041   1.067   5.575
   964G12c C01W17791   3.065   1.446   5.475
   964G12c H00O17792   3.099   1.546   5.452
   964G12c C01X17793   2.952   1.458   5.586
   964G12c H00N17794   2.876   1.528   5.551
   964G12c H00M17795   2.908   1.360   5.603
   964G12c C01Y17796   3.006   1.508   5.715
   964G12c C02D17797   2.938   1.617   5.775
   964G12c H01917798   2.853   1.667   5.731
   964G12c C02C17799   2.991   1.670   5.895
   964G12c H01A17800   2.948   1.757   5.943
   964G12c C02B17801   3.109   1.610   5.951
   964G12c O00E17802   3.170   1.663   6.061
   964G12c H01B17803   3.262   1.642   6.055
   964G12c C02F17804   3.164   1.495   5.894
   964G12c O00F17805   3.273   1.439   5.960
   964G12c C02G17806   3.316   1.308   5.916
   964G12c H01717807   3.236   1.235   5.908
   964G12c H01617808   3.408   1.285   5.970
   964G12c H01517809   3.348   1.319   5.813
   964G12c C02E17810   3.105   1.437   5.783
   964G12c H01817811   3.140   1.346   5.738
   964G12c C01F17812   3.408   1.193   5.348
   964G12c C01G17813   3.392   1.126   5.223
   964G12c H00L17814   3.315   1.152   5.152
   964G12c C01H17815   3.495   1.036   5.176
   964G12c H00B17816   3.489   1.011   5.072
   964G12c C01I17817   3.601   1.000   5.264
   964G12c C01U17818   3.512   1.144   5.426
   964G12c C00S17819   3.947   1.393   5.682
   964G12c C00K17820   3.950   1.192   5.572
   964G12c C00N17821   3.571   1.234   5.523
   964G12c C00017822   3.593   1.028   5.403
   964G12c C01J17823   3.747   0.970   5.248
   964G12c C01K17824   3.811   0.936   5.127
   964G12c C01P17825   3.759   0.865   5.018
   964G12c C01Q17826   3.631   0.795   5.029
   964G12c H00G17827   3.596   0.745   5.118
   964G12c C01R17828   3.542   0.788   4.927
   964G12c H00F17829   3.563   0.850   4.841
   964G12c C01S17830   3.410   0.719   4.927
   964G12c H00E17831   3.403   0.687   4.823
   964G12c H00D17832   3.401   0.630   4.990
   964G12c O00517833   3.305   0.809   4.967
   964G12c H00C17834   3.229   0.759   4.993
   964G12c C01O17835   3.830   0.847   4.900
   964G12c H00H17836   3.785   0.786   4.824
   964G12c C01N17837   3.957   0.895   4.888
   964G12c O00617838   4.027   0.901   4.768
   964G12c C01T17839   4.002   0.808   4.668
   964G12c H00K17840   4.035   0.714   4.712
   964G12c H00J17841   4.067   0.831   4.584
   964G12c H00I17842   3.901   0.781   4.636
   964G12c C01M17843   4.016   0.966   4.993
   964G12c C02017844   4.021   1.126   5.465
   964G12c C02117845   4.158   1.141   5.436
   964G12c C01L17846   3.948   0.975   5.123
   964G12c O00717847   4.125   1.038   4.965
   964G12c C02217848   4.211   1.133   5.312
   964G12c C02317849   4.237   1.247   5.499
   964G12c C00G17850   4.324   1.509   5.553
   964G12c C00E17851   4.488   1.685   5.524
   964G12c O00A17852   4.551   1.803   5.556
   964G12c C02417853   4.653   1.788   5.650
   964G12c H00V17854   4.625   1.725   5.735
   964G12c H00U17855   4.682   1.887   5.685
   964G12c H00T17856   4.740   1.752   5.595
   974G12c C00D17857   5.533   2.045   6.943
   974G12c O00B17858   5.531   1.911   6.946
   974G12c C02517859   5.519   1.846   7.072
   974G12c C02617860   5.396   1.862   7.151
   974G12c H00Y17861   5.332   1.775   7.140
   974G12c H00X17862   5.347   1.949   7.107
   974G12c O00C17863   5.425   1.881   7.291
   974G12c H00W17864   5.474   1.807   7.325
   974G12c C02717865   5.631   1.777   7.110
   974G12c O00D17866   5.742   1.781   7.028
   974G12c H00Z17867   5.722   1.833   6.952
   974G12c C02817868   5.635   1.693   7.225
   974G12c C02917869   5.533   1.594   7.251
   974G12c H01017870   5.452   1.582   7.180
   974G12c C02T17871   5.538   1.522   7.371
   974G12c H01O17872   5.462   1.450   7.398
   974G12c C02S17873   5.643   1.540   7.462
   974G12c O00J17874   5.639   1.463   7.573
   974G12c H01P17875   5.726   1.466   7.611
   974G12c C02R17876   5.742   1.630   7.437
   974G12c O00I17877   5.840   1.649   7.544
   974G12c C02Q17878   5.913   1.765   7.534
   974G12c H01N17879   5.859   1.859   7.535
   974G12c H01R17880   5.983   1.750   7.452
   974G12c H01Q17881   5.976   1.753   7.623
   974G12c C02A17882   5.741   1.702   7.315
   974G12c H01117883   5.806   1.785   7.293
   974G12c C00C17884   5.578   2.123   7.054
   974G12c H01217885   5.611   2.080   7.147
   974G12c C00B17886   5.570   2.266   7.045
   974G12c C00A17887   5.583   2.363   7.150
   974G12c C00917888   5.548   2.345   7.287
   974G12c C00817889   5.494   2.236   7.354
   974G12c H01317890   5.502   2.134   7.319
   974G12c C00717891   5.419   2.264   7.473
   974G12c H01417892   5.384   2.188   7.541
   974G12c C00617893   5.389   2.396   7.513
   974G12c C00517894   5.444   2.499   7.438
   974G12c C00417895   5.389   2.631   7.449
   974G12c C00317896   5.426   2.728   7.348
   974G12c C00217897   5.363   2.858   7.364
   974G12c C00117898   5.366   2.978   7.286
   974G12c C00M17899   5.337   2.971   7.143
   974G12c C00L17900   5.408   2.884   7.059
   974G12c C00R17901   5.361   2.848   6.930
   974G12c C00Q17902   5.253   2.895   6.846
   974G12c C00V17903   5.235   2.819   6.727
   974G12c C00U17904   5.306   2.701   6.702
   974G12c C00T17905   5.393   2.649   6.794
   974G12c C01617906   5.435   2.518   6.796
   974G12c C01517907   5.405   2.439   6.691
   974G12c C01017908   5.346   2.496   6.579
   974G12c C01117909   5.327   2.420   6.463
   974G12c H00517910   5.268   2.454   6.379
   974G12c C01217911   5.376   2.290   6.460
   974G12c C01717912   5.367   2.210   6.333
   974G12c O00217913   5.486   2.163   6.279
   974G12c H00417914   5.457   2.110   6.206
   974G12c C01817915   5.244   2.169   6.287
   974G12c O00117916   5.131   2.207   6.353
   974G12c H00317917   5.156   2.258   6.429
   974G12c C01917918   5.224   2.083   6.163
   974G12c H00217919   5.121   2.047   6.163
   974G12c H00117920   5.226   2.154   6.081
   974G12c O00017921   5.321   1.973   6.170
   974G12c C01A17922   5.316   1.878   6.073
   974G12c C02K17923   5.401   1.762   6.101
   974G12c O00G17924   5.485   1.758   6.209
   974G12c C02M17925   5.615   1.799   6.170
   974G12c H01G17926   5.652   1.733   6.092
   974G12c H01F17927   5.682   1.804   6.256
   974G12c H01E17928   5.607   1.900   6.128
   974G12c C02J17929   5.399   1.658   6.006
   974G12c H01H17930   5.452   1.567   6.028
   974G12c C02I17931   5.319   1.663   5.891
   974G12c C02N17932   5.334   1.553   5.796
   974G12c H01M17933   5.427   1.505   5.768
   974G12c C02O17934   5.219   1.510   5.732
   974G12c H01L17935   5.124   1.558   5.751
   974G12c C02P17936   5.205   1.411   5.618
   974G12c H01K17937   5.284   1.335   5.626
   974G12c H01J17938   5.104   1.379   5.642
   974G12c O00H17939   5.208   1.474   5.487
   974G12c H01I17940   5.288   1.437   5.456
   974G12c C02H17941   5.239   1.775   5.859
   974G12c H01C17942   5.180   1.779   5.769
   974G12c C02L17943   5.233   1.887   5.952
   974G12c H01D17944   5.170   1.971   5.928
   974G12c C01317945   5.437   2.233   6.567
   974G12c H00017946   5.463   2.130   6.548
   974G12c C01417947   5.445   2.304   6.694
   974G12c C00F17948   5.494   2.247   6.808
   974G12c C00H17949   5.512   2.465   6.903
   974G12c C00I17950   5.551   2.554   7.005
   974G12c C00J17951   5.504   2.683   6.991
   974G12c C00Z17952   5.286   2.620   6.592
   974G12c C00Y17953   5.206   2.674   6.487
   974G12c H00617954   5.182   2.616   6.399
   974G12c C00X17955   5.135   2.793   6.502
   974G12c O00317956   5.047   2.833   6.401
   974G12c C01B17957   4.915   2.777   6.415
   974G12c H00917958   4.853   2.814   6.334
   974G12c H00817959   4.859   2.790   6.508
   974G12c H00717960   4.914   2.668   6.409
   974G12c C00W17961   5.141   2.867   6.626
   974G12c O00417962   5.063   2.973   6.642
   974G12c C01C17963   5.062   3.034   6.763
   974G12c H00A17964   4.996   3.120   6.766
   974G12c C00P17965   5.146   2.993   6.873
   974G12c C00O17966   5.122   3.048   7.002
   974G12c C01D17967   4.991   3.100   7.036
   974G12c H00S17968   4.910   3.108   6.965
   974G12c C01E17969   4.949   3.130   7.165
   974G12c O00817970   4.814   3.169   7.173
   974G12c C01V17971   4.717   3.076   7.190
   974G12c C01Z17972   4.572   3.134   7.180
   974G12c H00R17973   4.528   3.146   7.081
   974G12c H00Q17974   4.508   3.082   7.251
   974G12c O00917975   4.587   3.263   7.232
   974G12c H00P17976   4.676   3.290   7.217
   974G12c C01W17977   4.742   2.942   7.200
   974G12c H00O17978   4.842   2.904   7.211
   974G12c C01X17979   4.638   2.829   7.188
   974G12c H00N17980   4.678   2.757   7.259
   974G12c H00M17981   4.539   2.868   7.213
   974G12c C01Y17982   4.640   2.765   7.054
   974G12c C02D17983   4.536   2.799   6.968
   974G12c H01917984   4.451   2.857   7.001
   974G12c C02C17985   4.541   2.759   6.832
   974G12c H01A17986   4.460   2.792   6.769
   974G12c C02B17987   4.656   2.691   6.783
   974G12c O00E17988   4.659   2.641   6.658
   974G12c H01B17989   4.718   2.567   6.651
   974G12c C02F17990   4.762   2.663   6.870
   974G12c O00F17991   4.866   2.594   6.810
   974G12c C02G17992   4.986   2.561   6.872
   974G12c H01717993   5.046   2.506   6.800
   974G12c H01617994   4.979   2.499   6.962
   974G12c H01517995   5.042   2.651   6.898
   974G12c C02E17996   4.757   2.697   7.008
   974G12c H01817997   4.837   2.682   7.079
   974G12c C01F17998   5.033   3.103   7.274
   974G12c C01G17999   4.990   3.087   7.408
   974G12c H00L18000   4.884   3.093   7.426
   974G12c C01H18001   5.082   3.024   7.500
   974G12c H00B18002   5.031   2.974   7.581
   974G12c C01I18003   5.215   3.002   7.462
   974G12c C01U18004   5.170   3.075   7.247
   974G12c C00S18005   5.433   2.735   6.890
   974G12c C00K18006   5.483   2.766   7.103
   974G12c C00N18007   5.209   3.039   7.115
   974G12c C00018008   5.270   3.062   7.347
   974G12c C01J18009   5.287   2.884   7.485
   974G12c C01K18010   5.270   2.792   7.597
   974G12c C01P18011   5.216   2.820   7.731
   974G12c C01Q18012   5.193   2.948   7.788
   974G12c H00G18013   5.266   3.025   7.809
   974G12c C01R18014   5.070   2.970   7.838
   974G12c H00F18015   4.985   2.904   7.832
   974G12c C01S18016   5.033   3.091   7.921
   974G12c H00E18017   4.962   3.164   7.882
   974G12c H00D18018   4.966   3.057   8.000
   974G12c O00518019   5.143   3.164   7.958
   974G12c H00C18020   5.113   3.246   7.994
   974G12c C01O18021   5.198   2.710   7.815
   974G12c H00H18022   5.155   2.725   7.913
   974G12c C01N18023   5.233   2.579   7.781
   974G12c O00618024   5.211   2.479   7.869
   974G12c C01T18025   5.193   2.495   8.010
   974G12c H00K18026   5.105   2.548   8.048
   974G12c H00J18027   5.286   2.539   8.044
   974G12c H00I18028   5.183   2.402   8.066
   974G12c C01M18029   5.292   2.555   7.657
   974G12c C02018030   5.499   2.697   7.232
   974G12c C02118031   5.567   2.570   7.242
   974G12c C01L18032   5.315   2.663   7.566
   974G12c O00718033   5.314   2.426   7.625
   974G12c C02218034   5.530   2.476   7.333
   974G12c C02318035   5.592   2.500   7.123
   974G12c C00G18036   5.528   2.327   6.921
   974G12c C00E18037   5.493   2.104   6.821
   974G12c O00A18038   5.429   2.023   6.732
   974G12c C02418039   5.287   2.008   6.741
   974G12c H00V18040   5.225   2.094   6.718
   974G12c H00U18041   5.260   1.978   6.842
   974G12c H00T18042   5.260   1.934   6.665
   984G12c C00D18043   1.378   4.266   5.474
   984G12c O00B18044   1.264   4.324   5.410
   984G12c C02518045   1.143   4.288   5.461
   984G12c C02618046   1.068   4.396   5.543
   984G12c H00Y18047   1.141   4.441   5.611
   984G12c H00X18048   0.999   4.359   5.618
   984G12c O00C18049   1.013   4.497   5.455
   984G12c H00W18050   1.058   4.491   5.372
   984G12c C02718051   1.099   4.163   5.442
   984G12c O00D18052   1.175   4.070   5.384
   984G12c H00Z18053   1.125   4.026   5.317
   984G12c C02818054   0.965   4.119   5.484
   984G12c C02918055   0.941   3.993   5.551
   984G12c H01018056   1.024   3.929   5.576
   984G12c C02T18057   0.807   3.961   5.576
   984G12c H01O18058   0.778   3.874   5.632
   984G12c C02S18059   0.696   4.046   5.543
   984G12c O00J18060   0.568   4.013   5.575
   984G12c H01P18061   0.509   4.084   5.555
   984G12c C02R18062   0.721   4.159   5.469
   984G12c O00I18063   0.609   4.219   5.422
   984G12c C02Q18064   0.618   4.287   5.298
   984G12c H01N18065   0.699   4.359   5.297
   984G12c H01R18066   0.527   4.333   5.259
   984G12c H01Q18067   0.645   4.227   5.211
   984G12c C02A18068   0.855   4.201   5.451
   984G12c H01118069   0.874   4.290   5.393
   984G12c C00C18070   1.383   4.217   5.602
   984G12c H01218071   1.297   4.213   5.667
   984G12c C00B18072   1.500   4.141   5.640
   984G12c C00A18073   1.517   4.073   5.768
   984G12c C00918074   1.472   4.103   5.903
   984G12c C00818075   1.401   4.209   5.964
   984G12c H01318076   1.358   4.282   5.897
   984G12c C00718077   1.419   4.235   6.103
   984G12c H01418078   1.368   4.320   6.145
   984G12c C00618079   1.509   4.155   6.180
   984G12c C00518080   1.573   4.050   6.112
   984G12c C00418081   1.687   3.986   6.167
   984G12c C00318082   1.778   3.910   6.086
   984G12c C00218083   1.892   3.848   6.145
   984G12c C00118084   2.001   3.771   6.096
   984G12c C00M18085   2.081   3.802   5.975
   984G12c C00L18086   2.015   3.820   5.853
   984G12c C00R18087   2.066   3.884   5.743
   984G12c C00Q18088   2.199   3.930   5.712
   984G12c C00V18089   2.205   4.002   5.585
   984G12c C00U18090   2.090   4.052   5.522
   984G12c C00T18091   1.962   4.024   5.561
   984G12c C01618092   1.846   4.081   5.518
   984G12c C01518093   1.854   4.170   5.418
   984G12c C01018094   1.983   4.209   5.370
   984G12c C01118095   1.989   4.314   5.271
   984G12c H00518096   2.086   4.353   5.242
   984G12c C01218097   1.877   4.365   5.212
   984G12c C01718098   1.889   4.464   5.109
   984G12c O00218099   1.958   4.574   5.138
   984G12c H00418100   1.936   4.632   5.066
   984G12c C01818101   1.836   4.435   4.986
   984G12c O00118102   1.781   4.308   4.966
   984G12c H00318103   1.774   4.269   5.052
   984G12c C01918104   1.836   4.524   4.866
   984G12c H00218105   1.885   4.466   4.788
   984G12c H00118106   1.735   4.543   4.830
   984G12c O00018107   1.891   4.652   4.902
   984G12c C01A18108   1.935   4.742   4.805
   984G12c C02K18109   1.887   4.873   4.817
   984G12c O00G18110   1.794   4.897   4.915
   984G12c C02M18111   1.695   4.999   4.897
   984G12c H01G18112   1.628   4.958   4.821
   984G12c H01F18113   1.733   5.099   4.877
   984G12c H01E18114   1.637   5.002   4.989
   984G12c C02J18115   1.928   4.967   4.720
   984G12c H01H18116   1.896   5.070   4.727
   984G12c C02I18117   2.017   4.928   4.617
   984G12c C02N18118   2.059   5.034   4.529
   984G12c H01M18119   1.993   5.105   4.482
   984G12c C02O18120   2.191   5.048   4.497
   984G12c H01L18121   2.267   4.988   4.547
   984G12c C02P18122   2.235   5.161   4.411
   984G12c H01K18123   2.158   5.238   4.414
   984G12c H01J18124   2.330   5.206   4.438
   984G12c O00H18125   2.261   5.102   4.284
   984G12c H01I18126   2.201   5.031   4.270
   984G12c C02H18127   2.055   4.795   4.606
   984G12c H01C18128   2.115   4.766   4.521
   984G12c C02L18129   2.016   4.702   4.703
   984G12c H01D18130   2.051   4.599   4.710
   984G12c C01318131   1.750   4.332   5.274
   984G12c H00018132   1.673   4.392   5.227
   984G12c C01418133   1.735   4.238   5.379
   984G12c C00F18134   1.614   4.211   5.440
   984G12c C00H18135   1.725   4.052   5.583
   984G12c C00I18136   1.723   3.956   5.690
   984G12c C00J18137   1.842   3.892   5.723
   984G12c C00Z18138   2.097   4.147   5.416
   984G12c C00Y18139   2.225   4.185   5.370
   984G12c H00618140   2.250   4.241   5.281
   984G12c C00X18141   2.339   4.134   5.434
   984G12c O00318142   2.467   4.169   5.395
   984G12c C01B18143   2.495   4.230   5.275
   984G12c H00918144   2.459   4.332   5.263
   984G12c H00818145   2.458   4.177   5.188
   984G12c H00718146   2.604   4.234   5.264
   984G12c C00W18147   2.331   4.039   5.539
   984G12c O00418148   2.446   3.988   5.591
   984G12c C01C18149   2.432   3.993   5.726
   984G12c H00A18150   2.491   4.069   5.775
   984G12c C00P18151   2.320   3.930   5.792
   984G12c C00O18152   2.325   3.889   5.930
   984G12c C01D18153   2.438   3.912   6.013
   984G12c H00S18154   2.525   3.945   5.959
   984G12c C01E18155   2.435   3.923   6.154
   984G12c O00818156   2.545   3.972   6.219
   984G12c C01V18157   2.612   3.887   6.307
   984G12c C01Z18158   2.731   3.958   6.359
   984G12c H00R18159   2.793   3.884   6.408
   984G12c H00Q18160   2.789   3.987   6.271
   984G12c O00918161   2.681   4.060   6.442
   984G12c H00P18162   2.586   4.055   6.438
   984G12c C01W18163   2.586   3.760   6.336
   984G12c H00O18164   2.509   3.705   6.283
   984G12c C01X18165   2.645   3.676   6.452
   984G12c H00N18166   2.648   3.570   6.427
   984G12c H00M18167   2.748   3.708   6.465
   984G12c C01Y18168   2.571   3.701   6.582
   984G12c C02D18169   2.611   3.808   6.661
   984G12c H01918170   2.701   3.867   6.647
   984G12c C02C18171   2.548   3.841   6.780
   984G12c H01A18172   2.573   3.926   6.843
   984G12c C02B18173   2.455   3.750   6.830
   984G12c O00E18174   2.403   3.774   6.952
   984G12c H01B18175   2.363   3.691   6.973
   984G12c C02F18176   2.409   3.641   6.761
   984G12c O00F18177   2.320   3.561   6.829
   984G12c C02G18178   2.254   3.473   6.746
   984G12c H01718179   2.326   3.407   6.698
   984G12c H01618180   2.198   3.527   6.670
   984G12c H01518181   2.172   3.424   6.798
   984G12c C02E18182   2.479   3.611   6.637
   984G12c H01818183   2.448   3.517   6.593
   984G12c C01F18184   2.316   3.890   6.227
   984G12c C01G18185   2.278   3.926   6.361
   984G12c H00L18186   2.348   3.979   6.424
   984G12c C01H18187   2.141   3.915   6.404
   984G12c H00B18188   2.105   3.970   6.490
   984G12c C01I18189   2.052   3.851   6.314
   984G12c C01U18190   2.225   3.818   6.150
   984G12c C00S18191   1.960   3.918   5.657
   984G12c C00K18192   1.873   3.850   5.854
   984G12c C00N18193   2.216   3.838   6.007
   984G12c C00018194   2.098   3.774   6.206
   984G12c C01J18195   1.914   3.871   6.287
   984G12c C01K18196   1.825   3.948   6.369
   984G12c C01P18197   1.828   3.958   6.514
   984G12c C01Q18198   1.906   3.862   6.586
   984G12c H00G18199   1.930   3.769   6.537
   984G12c C01R18200   1.957   3.885   6.709
   984G12c H00F18201   1.929   3.970   6.769
   984G12c C01S18202   2.052   3.784   6.768
   984G12c H00E18203   2.086   3.709   6.697
   984G12c H00D18204   2.148   3.834   6.778
   984G12c O00518205   2.012   3.724   6.886
   984G12c H00C18206   2.089   3.737   6.939
   984G12c C01O18207   1.748   4.055   6.582
   984G12c H00H18208   1.763   4.053   6.689
   984G12c C01N18209   1.659   4.130   6.508
   984G12c O00618210   1.597   4.217   6.593
   984G12c C01T18211   1.519   4.325   6.549
   984G12c H00K18212   1.423   4.282   6.519
   984G12c H00J18213   1.561   4.379   6.464
   984G12c H00I18214   1.482   4.400   6.620
   984G12c C01M18215   1.635   4.110   6.370
   984G12c C02018216   1.761   3.888   5.948
   984G12c C02118217   1.630   3.925   5.907
   984G12c C01L18218   1.725   4.020   6.297
   984G12c O00718219   1.539   4.185   6.306
   984G12c C02218220   1.544   4.005   5.981
   984G12c C02318221   1.610   3.964   5.775
   984G12c C00G18222   1.610   4.129   5.558
   984G12c C00E18223   1.489   4.255   5.390
   984G12c O00A18224   1.477   4.295   5.261
   984G12c C02418225   1.424   4.196   5.175
   984G12c H00V18226   1.495   4.114   5.181
   984G12c H00U18227   1.426   4.223   5.069
   984G12c H00T18228   1.318   4.176   5.188
   994G12c C00D18229   2.471   1.992   6.096
   994G12c O00B18230   2.470   2.086   6.199
   994G12c C02518231   2.346   2.122   6.244
   994G12c C02618232   2.312   2.265   6.215
   994G12c H00Y18233   2.406   2.315   6.196
   994G12c H00X18234   2.274   2.302   6.310
   994G12c O00C18235   2.211   2.280   6.109
   994G12c H00W18236   2.133   2.319   6.147
   994G12c C02718237   2.280   2.043   6.323
   994G12c O00D18238   2.336   1.924   6.367
   994G12c H00Z18239   2.429   1.924   6.352
   994G12c C02818240   2.155   2.080   6.385
   994G12c C02918241   2.146   2.089   6.524
   994G12c H01018242   2.236   2.061   6.579
   994G12c C02T18243   2.030   2.125   6.588
   994G12c H01O18244   2.023   2.119   6.696
   994G12c C02S18245   1.915   2.153   6.508
   994G12c O00J18246   1.795   2.171   6.570
   994G12c H01P18247   1.732   2.181   6.501
   994G12c C02R18248   1.917   2.148   6.370
   994G12c O00I18249   1.806   2.176   6.303
   994G12c C02Q18250   1.800   2.197   6.162
   994G12c H01N18251   1.857   2.116   6.115
   994G12c H01R18252   1.862   2.277   6.121
   994G12c H01Q18253   1.704   2.205   6.112
   994G12c C02A18254   2.042   2.105   6.313
   994G12c H01118255   2.048   2.103   6.205
   994G12c C00C18256   2.390   2.004   5.987
   994G12c H01218257   2.321   2.087   5.989
   994G12c C00B18258   2.409   1.939   5.863
   994G12c C00A18259   2.335   1.945   5.736
   994G12c C00918260   2.208   2.008   5.700
   994G12c C00818261   2.098   2.060   5.762
   994G12c H01318262   2.106   2.092   5.865
   994G12c C00718263   1.970   2.066   5.696
   994G12c H01418264   1.895   2.124   5.747
   994G12c C00618265   1.948   2.014   5.562
   994G12c C00518266   2.061   1.944   5.513
   994G12c C00418267   2.059   1.866   5.395
   994G12c C00318268   2.176   1.795   5.354
   994G12c C00218269   2.154   1.704   5.241
   994G12c C00118270   2.243   1.611   5.177
   994G12c C00M18271   2.330   1.515   5.253
   994G12c C00L18272   2.401   1.555   5.360
   994G12c C00R18273   2.476   1.473   5.444
   994G12c C00Q18274   2.493   1.335   5.453
   994G12c C00V18275   2.560   1.306   5.574
   994G12c C00U18276   2.595   1.387   5.684
   994G12c C00T18277   2.572   1.523   5.669
   994G12c C01618278   2.576   1.615   5.772
   994G12c C01518279   2.627   1.579   5.890
   994G12c C01018280   2.682   1.445   5.899
   994G12c C01118281   2.752   1.408   6.023
   994G12c H00518282   2.798   1.313   6.043
   994G12c C01218283   2.761   1.494   6.132
   994G12c C01718284   2.824   1.443   6.249
   994G12c O00218285   2.797   1.313   6.289
   994G12c H00418286   2.843   1.304   6.371
   994G12c C01818287   2.890   1.531   6.326
   994G12c O00118288   2.915   1.656   6.294
   994G12c H00318289   2.938   1.644   6.203
   994G12c C01918290   2.951   1.489   6.460
   994G12c H00218291   3.036   1.553   6.485
   994G12c H00118292   2.873   1.493   6.536
   994G12c O00018293   3.007   1.363   6.449
   994G12c C01A18294   3.052   1.291   6.555
   994G12c C02K18295   3.110   1.166   6.528
   994G12c O00G18296   3.124   1.132   6.395
   994G12c C02M18297   3.188   1.015   6.358
   994G12c H01G18298   3.111   0.947   6.395
   994G12c H01F18299   3.284   0.994   6.406
   994G12c H01E18300   3.193   1.005   6.250
   994G12c C02J18301   3.163   1.082   6.631
   994G12c H01H18302   3.193   0.982   6.603
   994G12c C02I18303   3.163   1.129   6.766
   994G12c C02N18304   3.214   1.033   6.865
   994G12c H01M18305   3.257   0.938   6.838
   994G12c C02O18306   3.200   1.069   6.998
   994G12c H01L18307   3.146   1.159   7.024
   994G12c C02P18308   3.239   0.984   7.117
   994G12c H01K18309   3.314   0.912   7.084
   994G12c H01J18310   3.290   1.051   7.186
   994G12c O00H18311   3.119   0.922   7.160
   994G12c H01I18312   3.055   0.990   7.175
   994G12c C02H18313   3.117   1.258   6.789
   994G12c H01C18314   3.119   1.305   6.886
   994G12c C02L18315   3.061   1.338   6.688
   994G12c H01D18316   3.033   1.440   6.711
   994G12c C01318317   2.689   1.619   6.123
   994G12c H00018318   2.686   1.668   6.219
   994G12c C01418319   2.633   1.661   5.995
   994G12c C00F18320   2.568   1.790   5.981
   994G12c C00H18321   2.521   1.742   5.757
   994G12c C00I18322   2.464   1.773   5.634
   994G12c C00J18323   2.478   1.683   5.525
   994G12c C00Z18324   2.668   1.351   5.793
   994G12c C00Y18325   2.709   1.215   5.798
   994G12c H00618326   2.762   1.176   5.885
   994G12c C00X18327   2.681   1.118   5.698
   994G12c O00318328   2.725   0.992   5.690
   994G12c C01B18329   2.816   0.947   5.794
   994G12c H00918330   2.918   0.983   5.780
   994G12c H00818331   2.824   0.841   5.769
   994G12c H00718332   2.762   0.957   5.888
   994G12c C00W18333   2.601   1.169   5.591
   994G12c O00418334   2.577   1.073   5.495
   994G12c C01C18335   2.471   1.097   5.418
   994G12c H00A18336   2.421   1.003   5.395
   994G12c C00P18337   2.430   1.227   5.378
   994G12c C00O18338   2.335   1.247   5.270
   994G12c C01D18339   2.254   1.134   5.230
   994G12c H00S18340   2.286   1.034   5.256
   994G12c C01E18341   2.132   1.151   5.163
   994G12c O00818342   2.048   1.042   5.155
   994G12c C01V18343   2.004   1.013   5.028
   994G12c C01Z18344   1.895   0.906   5.035
   994G12c H00R18345   1.834   0.925   5.123
   994G12c H00Q18346   1.812   0.916   4.965
   994G12c O00918347   1.934   0.775   5.054
   994G12c H00P18348   2.023   0.779   5.084
   994G12c C01W18349   2.046   1.051   4.907
   994G12c H00O18350   2.126   1.124   4.910
   994G12c C01X18351   2.006   0.990   4.771
   994G12c H00N18352   2.100   0.972   4.719
   994G12c H00M18353   1.956   0.894   4.785
   994G12c C01Y18354   1.918   1.088   4.694
   994G12c C02D18355   1.781   1.052   4.669
   994G12c H01918356   1.738   0.960   4.705
   994G12c C02C18357   1.710   1.135   4.586
   994G12c H01A18358   1.616   1.100   4.546
   994G12c C02B18359   1.765   1.251   4.532
   994G12c O00E18360   1.695   1.335   4.446
   994G12c H01B18361   1.756   1.402   4.420
   994G12c C02F18362   1.899   1.289   4.560
   994G12c O00F18363   1.944   1.399   4.491
   994G12c C02G18364   2.079   1.440   4.516
   994G12c H01718365   2.080   1.459   4.623
   994G12c H01618366   2.125   1.522   4.460
   994G12c H01518367   2.149   1.360   4.493
   994G12c C02E18368   1.977   1.204   4.646
   994G12c H01818369   2.081   1.226   4.663
   994G12c C01F18370   2.085   1.279   5.139
   994G12c C01G18371   1.950   1.321   5.121
   994G12c H00L18372   1.874   1.245   5.116
   994G12c C01H18373   1.913   1.461   5.125
   994G12c H00B18374   1.810   1.491   5.128
   994G12c C01I18375   2.015   1.557   5.122
   994G12c C01U18376   2.178   1.388   5.141
   994G12c C00S18377   2.530   1.560   5.540
   994G12c C00K18378   2.388   1.682   5.417
   994G12c C00N18379   2.293   1.375   5.221
   994G12c C00018380   2.148   1.521   5.108
   994G12c C01J18381   2.020   1.691   5.189
   994G12c C01K18382   1.914   1.781   5.211
   994G12c C01P18383   1.796   1.801   5.130
   994G12c C01Q18384   1.783   1.732   5.002
   994G12c H00G18385   1.870   1.697   4.948
   994G12c C01R18386   1.664   1.702   4.943
   994G12c H00F18387   1.568   1.738   4.979
   994G12c C01S18388   1.658   1.617   4.813
   994G12c H00E18389   1.576   1.638   4.744
   994G12c H00D18390   1.752   1.645   4.767
   994G12c O00518391   1.658   1.479   4.848
   994G12c H00C18392   1.700   1.433   4.775
   994G12c C01O18393   1.695   1.885   5.183
   994G12c H00H18394   1.608   1.898   5.120
   994G12c C01N18395   1.708   1.954   5.304
   994G12c O00618396   1.603   2.030   5.355
   994G12c C01T18397   1.527   2.099   5.252
   994G12c H00K18398   1.450   2.041   5.202
   994G12c H00J18399   1.576   2.145   5.166
   994G12c H00I18400   1.474   2.180   5.302
   994G12c C01M18401   1.831   1.948   5.369
   994G12c C02018402   2.302   1.796   5.417
   994G12c C02118403   2.303   1.898   5.517
   994G12c C01L18404   1.935   1.861   5.326
   994G12c O00718405   1.839   2.018   5.480
   994G12c C02218406   2.193   1.961   5.566
   994G12c C02318407   2.394   1.890   5.622
   994G12c C00G18408   2.499   1.828   5.864
   994G12c C00E18409   2.561   1.885   6.096
   994G12c O00A18410   2.633   1.889   6.212
   994G12c C02418411   2.774   1.931   6.203
   994G12c H00V18412   2.830   1.871   6.131
   994G12c H00U18413   2.822   1.923   6.300
   994G12c H00T18414   2.781   2.034   6.168
  1004G12c C00D18415   3.310   1.388   4.123
  1004G12c O00B18416   3.325   1.408   4.259
  1004G12c C02518417   3.274   1.307   4.339
  1004G12c C02618418   3.159   1.357   4.436
  1004G12c H00Y18419   3.175   1.327   4.539
  1004G12c H00X18420   3.061   1.319   4.409
  1004G12c O00C18421   3.152   1.500   4.428
  1004G12c H00W18422   3.099   1.517   4.352
  1004G12c C02718423   3.308   1.180   4.329
  1004G12c O00D18424   3.405   1.143   4.232
  1004G12c H00Z18425   3.428   1.217   4.177
  1004G12c C02818426   3.250   1.080   4.418
  1004G12c C02918427   3.295   1.068   4.552
  1004G12c H01018428   3.389   1.110   4.585
  1004G12c C02T18429   3.233   0.976   4.643
  1004G12c H01O18430   3.265   0.963   4.746
  1004G12c C02S18431   3.123   0.903   4.596
  1004G12c O00J18432   3.057   0.812   4.679
  1004G12c H01P18433   2.995   0.775   4.619
  1004G12c C02R18434   3.077   0.912   4.466
  1004G12c O00I18435   2.962   0.841   4.434
  1004G12c C02Q18436   2.909   0.853   4.304
  1004G12c H01N18437   2.887   0.955   4.271
  1004G12c H01R18438   2.816   0.798   4.293
  1004G12c H01Q18439   2.988   0.811   4.241
  1004G12c C02A18440   3.139   1.003   4.374
  1004G12c H01118441   3.114   1.021   4.271
  1004G12c C00C18442   3.184   1.379   4.059
  1004G12c H01218443   3.105   1.383   4.133
  1004G12c C00B18444   3.173   1.372   3.919
  1004G12c C00A18445   3.050   1.370   3.844
  1004G12c C00918446   2.915   1.325   3.870
  1004G12c C00818447   2.846   1.273   3.984
  1004G12c H01318448   2.901   1.304   4.071
  1004G12c C00718449   2.731   1.193   3.963
  1004G12c H01418450   2.682   1.153   4.051
  1004G12c C00618451   2.680   1.172   3.833
  1004G12c C00518452   2.749   1.235   3.727
  1004G12c C00418453   2.722   1.208   3.590
  1004G12c C00318454   2.808   1.260   3.487
  1004G12c C00218455   2.781   1.206   3.355
  1004G12c C00118456   2.850   1.207   3.229
  1004G12c C00M18457   2.997   1.184   3.211
  1004G12c C00L18458   3.078   1.222   3.311
  1004G12c C00R18459   3.217   1.194   3.319
  1004G12c C00Q18460   3.304   1.101   3.255
  1004G12c C00V18461   3.435   1.093   3.312
  1004G12c C00U18462   3.470   1.162   3.431
  1004G12c C00T18463   3.380   1.239   3.498
  1004G12c C01618464   3.391   1.284   3.631
  1004G12c C01518465   3.508   1.257   3.693
  1004G12c C01018466   3.615   1.203   3.619
  1004G12c C01118467   3.743   1.188   3.678
  1004G12c H00518468   3.830   1.160   3.622
  1004G12c C01218469   3.766   1.223   3.815
  1004G12c C01718470   3.899   1.206   3.877
  1004G12c O00218471   3.904   1.168   4.008
  1004G12c H00418472   3.974   1.104   4.011
  1004G12c C01818473   4.013   1.226   3.813
  1004G12c O00118474   4.017   1.301   3.696
  1004G12c H00318475   3.933   1.341   3.682
  1004G12c C01918476   4.155   1.199   3.863
  1004G12c H00218477   4.231   1.180   3.788
  1004G12c H00118478   4.198   1.282   3.919
  1004G12c O00018479   4.166   1.086   3.940
  1004G12c C01A18480   4.145   0.963   3.889
  1004G12c C02K18481   4.094   0.865   3.978
  1004G12c O00G18482   4.050   0.916   4.102
  1004G12c C02M18483   4.033   0.811   4.197
  1004G12c H01G18484   4.110   0.734   4.190
  1004G12c H01F18485   3.942   0.757   4.172
  1004G12c H01E18486   4.038   0.857   4.296
  1004G12c C02J18487   4.069   0.737   3.921
  1004G12c H01H18488   4.022   0.661   3.982
  1004G12c C02I18489   4.106   0.700   3.788
  1004G12c C02N18490   4.079   0.562   3.738
  1004G12c H01M18491   4.025   0.482   3.786
  1004G12c C02O18492   4.131   0.518   3.623
  1004G12c H01L18493   4.199   0.571   3.557
  1004G12c C02P18494   4.104   0.384   3.563
  1004G12c H01K18495   4.160   0.368   3.472
  1004G12c H01J18496   4.138   0.307   3.633
  1004G12c O00H18497   3.962   0.362   3.536
  1004G12c H01I18498   3.916   0.444   3.545
  1004G12c C02H18499   4.164   0.799   3.713
  1004G12c H01C18500   4.211   0.778   3.618
  1004G12c C02L18501   4.185   0.929   3.762
  1004G12c H01D18502   4.238   0.995   3.695
  1004G12c C01318503   3.653   1.254   3.886
  1004G12c H00018504   3.673   1.263   3.991
  1004G12c C01418505   3.526   1.289   3.826
  1004G12c C00F18506   3.416   1.341   3.899
  1004G12c C00H18507   3.283   1.340   3.697
  1004G12c C00I18508   3.165   1.371   3.627
  1004G12c C00J18509   3.161   1.335   3.490
  1004G12c C00Z18510   3.596   1.148   3.492
  1004G12c C00Y18511   3.695   1.081   3.420
  1004G12c H00618512   3.799   1.066   3.447
  1004G12c C00X18513   3.662   1.018   3.296
  1004G12c O00318514   3.760   0.958   3.220
  1004G12c C01B18515   3.903   0.972   3.261
  1004G12c H00918516   3.969   0.922   3.190
  1004G12c H00818517   3.936   0.943   3.360
  1004G12c H00718518   3.925   1.078   3.250
  1004G12c C00W18519   3.530   1.014   3.253
  1004G12c O00418520   3.508   0.951   3.140
  1004G12c C01C18521   3.376   0.925   3.108
  1004G12c H00A18522   3.364   0.867   3.018
  1004G12c C00P18523   3.267   1.007   3.158
  1004G12c C00O18524   3.130   0.976   3.123
  1004G12c C01D18525   3.107   0.845   3.073
  1004G12c H00S18526   3.187   0.776   3.052
  1004G12c C01E18527   2.976   0.789   3.067
  1004G12c O00818528   2.953   0.651   3.059
  1004G12c C01V18529   3.026   0.562   3.135
  1004G12c C01Z18530   2.979   0.541   3.275
  1004G12c H00R18531   2.871   0.530   3.268
  1004G12c H00Q18532   3.023   0.448   3.312
  1004G12c O00918533   3.010   0.639   3.369
  1004G12c H00P18534   2.980   0.721   3.334
  1004G12c C01W18535   3.141   0.510   3.090
  1004G12c H00O18536   3.170   0.534   2.988
  1004G12c C01X18537   3.231   0.407   3.159
  1004G12c H00N18538   3.173   0.359   3.238
  1004G12c H00M18539   3.257   0.322   3.096
  1004G12c C01Y18540   3.356   0.479   3.205
  1004G12c C02D18541   3.479   0.443   3.157
  1004G12c H01918542   3.505   0.360   3.092
  1004G12c C02C18543   3.590   0.509   3.200
  1004G12c H01A18544   3.686   0.480   3.160
  1004G12c C02B18545   3.587   0.619   3.292
  1004G12c O00E18546   3.709   0.686   3.321
  1004G12c H01B18547   3.684   0.753   3.383
  1004G12c C02F18548   3.465   0.656   3.346
  1004G12c O00F18549   3.460   0.763   3.436
  1004G12c C02G18550   3.338   0.806   3.482
  1004G12c H01718551   3.360   0.889   3.549
  1004G12c H01618552   3.281   0.733   3.539
  1004G12c H01518553   3.287   0.850   3.397
  1004G12c C02E18554   3.349   0.594   3.296
  1004G12c H01818555   3.250   0.610   3.337
  1004G12c C01F18556   2.866   0.875   3.095
  1004G12c C01G18557   2.734   0.824   3.127
  1004G12c H00L18558   2.714   0.718   3.121
  1004G12c C01H18559   2.642   0.907   3.202
  1004G12c H00B18560   2.551   0.857   3.235
  1004G12c C01I18561   2.679   1.043   3.222
  1004G12c C01U18562   2.883   1.015   3.111
  1004G12c C00S18563   3.261   1.269   3.427
  1004G12c C00K18564   3.042   1.299   3.430
  1004G12c C00N18565   3.015   1.055   3.144
  1004G12c C00018566   2.782   1.105   3.150
  1004G12c C01J18567   2.663   1.126   3.336
  1004G12c C01K18568   2.562   1.101   3.433
  1004G12c C01P18569   2.428   1.057   3.417
  1004G12c C01Q18570   2.372   1.063   3.286
  1004G12c H00G18571   2.406   1.137   3.215
  1004G12c C01R18572   2.286   0.972   3.251
  1004G12c H00F18573   2.255   0.896   3.321
  1004G12c C01S18574   2.218   0.965   3.123
  1004G12c H00E18575   2.111   0.952   3.141
  1004G12c H00D18576   2.216   1.053   3.058
  1004G12c O00518577   2.274   0.847   3.066
  1004G12c H00C18578   2.284   0.781   3.133
  1004G12c C01O18579   2.352   1.030   3.530
  1004G12c H00H18580   2.249   0.997   3.521
  1004G12c C01N18581   2.404   1.030   3.662
  1004G12c O00618582   2.308   0.995   3.754
  1004G12c C01T18583   2.325   1.030   3.891
  1004G12c H00K18584   2.241   0.990   3.947
  1004G12c H00J18585   2.314   1.139   3.889
  1004G12c H00I18586   2.419   0.996   3.934
  1004G12c C01M18587   2.529   1.086   3.670
  1004G12c C02018588   2.929   1.333   3.512
  1004G12c C02118589   2.932   1.377   3.647
  1004G12c C01L18590   2.609   1.127   3.562
  1004G12c O00718591   2.566   1.104   3.804
  1004G12c C02218592   2.852   1.324   3.742
  1004G12c C02318593   3.054   1.414   3.707
  1004G12c C00G18594   3.291   1.352   3.837
  1004G12c C00E18595   3.422   1.366   4.042
  1004G12c O00A18596   3.541   1.377   4.111
  1004G12c C02418597   3.606   1.501   4.095
  1004G12c H00V18598   3.628   1.519   3.990
  1004G12c H00U18599   3.690   1.494   4.164
  1004G12c H00T18600   3.548   1.585   4.132
  1014G12c C00D18601   5.571   2.649   3.520
  1014G12c O00B18602   5.439   2.676   3.550
  1014G12c C02518603   5.365   2.754   3.460
  1014G12c C02618604   5.371   2.896   3.501
  1014G12c H00Y18605   5.351   2.955   3.411
  1014G12c H00X18606   5.467   2.934   3.536
  1014G12c O00C18607   5.262   2.927   3.591
  1014G12c H00W18608   5.267   2.877   3.671
  1014G12c C02718609   5.308   2.691   3.357
  1014G12c O00D18610   5.326   2.558   3.342
  1014G12c H00Z18611   5.379   2.539   3.417
  1014G12c C02818612   5.241   2.761   3.247
  1014G12c C02918613   5.260   2.719   3.115
  1014G12c H01018614   5.303   2.622   3.096
  1014G12c C02T18615   5.206   2.794   3.009
  1014G12c H01O18616   5.222   2.764   2.907
  1014G12c C02S18617   5.135   2.911   3.031
  1014G12c O00J18618   5.086   2.980   2.929
  1014G12c H01P18619   5.048   3.048   2.983
  1014G12c C02R18620   5.104   2.956   3.160
  1014G12c O00I18621   5.025   3.073   3.176
  1014G12c C02Q18622   4.997   3.123   3.305
  1014G12c H01N18623   4.927   3.207   3.292
  1014G12c H01R18624   5.087   3.148   3.360
  1014G12c H01Q18625   4.940   3.045   3.355
  1014G12c C02A18626   5.157   2.875   3.268
  1014G12c H01118627   5.128   2.903   3.369
  1014G12c C00C18628   5.648   2.717   3.428
  1014G12c H01218629   5.610   2.797   3.367
  1014G12c C00B18630   5.786   2.693   3.413
  1014G12c C00A18631   5.874   2.760   3.319
  1014G12c C00918632   5.845   2.826   3.196
  1014G12c C00818633   5.724   2.845   3.128
  1014G12c H01318634   5.625   2.857   3.168
  1014G12c C00718635   5.738   2.863   2.983
  1014G12c H01418636   5.649   2.884   2.925
  1014G12c C00618637   5.863   2.831   2.916
  1014G12c C00518638   5.975   2.805   2.995
  1014G12c C00418639   6.095   2.756   2.941
  1014G12c C00318640   6.202   2.717   3.023
  1014G12c C00218641   6.313   2.647   2.963
  1014G12c C00118642   6.428   2.577   3.011
  1014G12c C00M18643   6.433   2.487   3.122
  1014G12c C00L18644   6.373   2.517   3.244
  1014G12c C00R18645   6.353   2.427   3.355
  1014G12c C00Q18646   6.389   2.289   3.375
  1014G12c C00V18647   6.333   2.231   3.492
  1014G12c C00U18648   6.222   2.283   3.559
  1014G12c C00T18649   6.176   2.410   3.533
  1014G12c C01618650   6.048   2.460   3.557
  1014G12c C01518651   5.965   2.380   3.638
  1014G12c C01018652   6.008   2.257   3.682
  1014G12c C01118653   5.926   2.179   3.772
  1014G12c H00518654   5.966   2.088   3.814
  1014G12c C01218655   5.790   2.213   3.792
  1014G12c C01718656   5.705   2.123   3.862
  1014G12c O00218657   5.616   2.053   3.793
  1014G12c H00418658   5.564   2.027   3.868
  1014G12c C01818659   5.718   2.109   3.995
  1014G12c O00118660   5.831   2.177   4.058
  1014G12c H00318661   5.890   2.216   3.996
  1014G12c C01918662   5.633   2.020   4.080
  1014G12c H00218663   5.689   1.929   4.103
  1014G12c H00118664   5.620   2.087   4.165
  1014G12c O00018665   5.510   1.989   4.012
  1014G12c C01A18666   5.396   2.037   4.068
  1014G12c C02K18667   5.320   2.142   4.009
  1014G12c O00G18668   5.364   2.205   3.896
  1014G12c C02M18669   5.331   2.343   3.885
  1014G12c H01G18670   5.392   2.378   3.801
  1014G12c H01F18671   5.350   2.405   3.972
  1014G12c H01E18672   5.228   2.356   3.851
  1014G12c C02J18673   5.198   2.185   4.067
  1014G12c H01H18674   5.147   2.274   4.035
  1014G12c C02I18675   5.156   2.130   4.189
  1014G12c C02N18676   5.044   2.186   4.254
  1014G12c H01M18677   4.955   2.217   4.202
  1014G12c C02O18678   5.043   2.194   4.388
  1014G12c H01L18679   5.131   2.173   4.446
  1014G12c C02P18680   4.931   2.245   4.470
  1014G12c H01K18681   4.839   2.245   4.412
  1014G12c H01J18682   4.921   2.178   4.556
  1014G12c O00H18683   4.956   2.378   4.510
  1014G12c H01I18684   4.916   2.402   4.593
  1014G12c C02H18685   5.231   2.018   4.242
  1014G12c H01C18686   5.193   1.980   4.335
  1014G12c C02L18687   5.344   1.972   4.180
  1014G12c H01D18688   5.395   1.887   4.223
  1014G12c C01318689   5.747   2.324   3.726
  1014G12c H00018690   5.640   2.334   3.724
  1014G12c C01418691   5.829   2.413   3.652
  1014G12c C00F18692   5.773   2.523   3.586
  1014G12c C00H18693   5.990   2.572   3.492
  1014G12c C00I18694   6.072   2.645   3.407
  1014G12c C00J18695   6.197   2.587   3.376
  1014G12c C00Z18696   6.142   2.204   3.647
  1014G12c C00Y18697   6.188   2.069   3.675
  1014G12c H00618698   6.135   2.007   3.746
  1014G12c C00X18699   6.312   2.028   3.623
  1014G12c O00318700   6.361   1.900   3.649
  1014G12c C01B18701   6.306   1.816   3.751
  1014G12c H00918702   6.353   1.718   3.761
  1014G12c H00818703   6.199   1.797   3.749
  1014G12c H00718704   6.307   1.862   3.850
  1014G12c C00W18705   6.375   2.103   3.525
  1014G12c O00418706   6.479   2.045   3.454
  1014G12c C01C18707   6.459   2.064   3.323
  1014G12c H00A18708   6.405   1.987   3.269
  1014G12c C00P18709   6.451   2.200   3.280
  1014G12c C00O18710   6.477   2.229   3.140
  1014G12c C01D18711   6.500   2.123   3.052
  1014G12c H00S18712   6.512   2.028   3.102
  1014G12c C01E18713   6.508   2.129   2.912
  1014G12c O00818714   6.503   2.022   2.823
  1014G12c C01V18715   6.513   1.893   2.876
  1014G12c C01Z18716   0.136   1.841   2.899
  1014G12c H00R18717   0.143   1.733   2.911
  1014G12c H00Q18718   0.204   1.879   2.823
  1014G12c O00918719   0.173   1.897   3.025
  1014G12c H00P18720   0.199   1.984   2.999
  1014G12c C01W18721   6.404   1.825   2.899
  1014G12c H00O18722   6.312   1.875   2.873
  1014G12c C01X18723   6.400   1.688   2.967
  1014G12c H00N18724   6.488   1.661   3.026
  1014G12c H00M18725   6.310   1.689   3.027
  1014G12c C01Y18726   6.378   1.575   2.868
  1014G12c C02D18727   6.355   1.597   2.731
  1014G12c H01918728   6.345   1.698   2.693
  1014G12c C02C18729   6.328   1.493   2.643
  1014G12c H01A18730   6.304   1.517   2.540
  1014G12c C02B18731   6.349   1.357   2.695
  1014G12c O00E18732   6.345   1.248   2.612
  1014G12c H01B18733   6.352   1.166   2.658
  1014G12c C02F18734   6.372   1.331   2.833
  1014G12c O00F18735   6.375   1.199   2.881
  1014G12c C02G18736   6.424   1.169   3.015
  1014G12c H01718737   6.352   1.199   3.091
  1014G12c H01618738   0.004   1.204   3.034
  1014G12c H01518739   6.424   1.060   3.011
  1014G12c C02E18740   6.385   1.440   2.917
  1014G12c H01818741   6.397   1.435   3.024
  1014G12c C01F18742   6.487   2.262   2.859
  1014G12c C01G18743   6.456   2.293   2.723
  1014G12c H00L18744   6.444   2.216   2.648
  1014G12c C01H18745   6.396   2.420   2.694
  1014G12c H00B18746   6.343   2.416   2.600
  1014G12c C01I18747   6.399   2.525   2.790
  1014G12c C01U18748   6.498   2.372   2.945
  1014G12c C00S18749   6.258   2.485   3.447
  1014G12c C00K18750   6.265   2.613   3.250
  1014G12c C00N18751   6.467   2.356   3.082
  1014G12c C00018752   6.484   2.506   2.903
  1014G12c C01J18753   6.308   2.629   2.823
  1014G12c C01K18754   6.206   2.676   2.735
  1014G12c C01P18755   6.212   2.686   2.590
  1014G12c C01Q18756   6.341   2.668   2.526
  1014G12c H00G18757   6.437   2.697   2.567
  1014G12c C01R18758   6.359   2.622   2.399
  1014G12c H00F18759   6.282   2.578   2.337
  1014G12c C01S18760   6.494   2.606   2.337
  1014G12c H00E18761   0.047   2.673   2.380
  1014G12c H00D18762   0.001   2.501   2.339
  1014G12c O00518763   6.476   2.642   2.202
  1014G12c H00C18764   0.025   2.702   2.185
  1014G12c C01O18765   6.109   2.737   2.513
  1014G12c H00H18766   6.123   2.738   2.406
  1014G12c C01N18767   5.989   2.768   2.581
  1014G12c O00618768   5.873   2.808   2.514
  1014G12c C01T18769   5.859   2.736   2.389
  1014G12c H00K18770   5.761   2.761   2.347
  1014G12c H00J18771   5.866   2.628   2.399
  1014G12c H00I18772   5.928   2.774   2.314
  1014G12c C01M18773   5.994   2.780   2.724
  1014G12c C02018774   6.187   2.704   3.166
  1014G12c C02118775   6.078   2.781   3.213
  1014G12c C01L18776   6.103   2.743   2.800
  1014G12c O00718777   5.877   2.819   2.777
  1014G12c C02218778   5.972   2.816   3.131
  1014G12c C02318779   6.014   2.748   3.338
  1014G12c C00G18780   5.852   2.598   3.493
  1014G12c C00E18781   5.632   2.561   3.601
  1014G12c O00A18782   5.566   2.536   3.714
  1014G12c C02418783   5.590   2.631   3.817
  1014G12c H00V18784   5.570   2.731   3.777
  1014G12c H00U18785   5.691   2.630   3.857
  1014G12c H00T18786   5.521   2.626   3.901
  1024G12c C00D18787   1.815   2.581   8.809
  1024G12c O00B18788   1.806   2.699   8.733
  1024G12c C02518789   1.827   2.817   8.798
  1024G12c C02618790   1.971   2.865   8.789
  1024G12c H00Y18791   1.981   2.964   8.834
  1024G12c H00X18792   1.977   2.872   8.680
  1024G12c O00C18793   2.070   2.774   8.834
  1024G12c H00W18794   2.062   2.691   8.790
  1024G12c C02718795   1.721   2.880   8.858
  1024G12c O00D18796   1.601   2.812   8.863
  1024G12c H00Z18797   1.607   2.741   8.802
  1024G12c C02818798   1.729   3.008   8.922
  1024G12c C02918799   1.664   3.033   9.043
  1024G12c H01018800   1.616   2.957   9.102
  1024G12c C02T18801   1.665   3.161   9.093
  1024G12c H01O18802   1.612   3.175   9.185
  1024G12c C02S18803   1.723   3.270   9.027
  1024G12c O00J18804   1.713   3.393   9.085
  1024G12c H01P18805   1.773   3.453   9.043
  1024G12c C02R18806   1.799   3.248   8.912
  1024G12c O00I18807   1.855   3.355   8.852
  1024G12c C02Q18808   1.934   3.322   8.735
  1024G12c H01N18809   2.015   3.252   8.756
  1024G12c H01R18810   1.992   3.411   8.711
  1024G12c H01Q18811   1.870   3.298   8.649
  1024G12c C02A18812   1.801   3.119   8.861
  1024G12c H01118813   1.840   3.099   8.762
  1024G12c C00C18814   1.812   2.576   8.948
  1024G12c H01218815   1.810   2.670   9.000
  1024G12c C00B18816   1.800   2.455   9.020
  1024G12c C00A18817   1.805   2.448   9.163
  1024G12c C00918818   1.889   2.522   9.248
  1024G12c C00818819   1.981   2.626   9.222
  1024G12c H01318820   1.973   2.687   9.134
  1024G12c C00718821   2.092   2.629   9.314
  1024G12c H01418822   2.162   2.710   9.300
  1024G12c C00618823   2.109   2.544   9.423
  1024G12c C00518824   2.008   2.450   9.446
  1024G12c C00418825   2.034   2.333   9.523
  1024G12c C00318826   1.953   2.220   9.513
  1024G12c C00218827   1.994   2.104   9.594
  1024G12c C00118828   1.943   1.969   9.602
  1024G12c C00M18829   1.914   1.887   9.484
  1024G12c C00L18830   1.843   1.937   9.374
  1024G12c C00R18831   1.838   1.873   9.242
  1024G12c C00Q18832   1.896   1.754   9.187
  1024G12c C00V18833   1.888   1.741   9.044
  1024G12c C00U18834   1.852   1.850   8.961
  1024G12c C00T18835   1.805   1.967   9.015
  1024G12c C01618836   1.793   2.086   8.947
  1024G12c C01518837   1.837   2.089   8.817
  1024G12c C01018838   1.876   1.968   8.754
  1024G12c C01118839   1.926   1.968   8.625
  1024G12c H00518840   1.952   1.881   8.567
  1024G12c C01218841   1.951   2.084   8.559
  1024G12c C01718842   2.033   2.086   8.440
  1024G12c O00218843   2.126   1.987   8.423
  1024G12c H00418844   2.178   2.023   8.353
  1024G12c C01818845   2.033   2.183   8.341
  1024G12c O00118846   1.929   2.273   8.326
  1024G12c H00318847   1.894   2.269   8.239
  1024G12c C01918848   2.114   2.165   8.219
  1024G12c H00218849   2.091   2.067   8.178
  1024G12c H00118850   2.093   2.231   8.135
  1024G12c O00018851   2.252   2.172   8.263
  1024G12c C01A18852   2.350   2.192   8.174
  1024G12c C02K18853   2.487   2.220   8.212
  1024G12c O00G18854   2.530   2.211   8.342
  1024G12c C02M18855   2.506   2.079   8.408
  1024G12c H01G18856   2.401   2.048   8.401
  1024G12c H01F18857   2.538   2.085   8.512
  1024G12c H01E18858   2.560   2.000   8.357
  1024G12c C02J18859   2.573   2.273   8.114
  1024G12c H01H18860   2.674   2.293   8.145
  1024G12c C02I18861   2.539   2.284   7.973
  1024G12c C02N18862   2.626   2.330   7.866
  1024G12c H01M18863   2.607   2.293   7.766
  1024G12c C02O18864   2.732   2.407   7.885
  1024G12c H01L18865   2.757   2.452   7.980
  1024G12c C02P18866   2.815   2.468   7.771
  1024G12c H01K18867   2.761   2.457   7.676
  1024G12c H01J18868   2.819   2.575   7.788
  1024G12c O00H18869   2.935   2.400   7.772
  1024G12c H01I18870   3.001   2.463   7.748
  1024G12c C02H18871   2.409   2.234   7.946
  1024G12c H01C18872   2.377   2.247   7.844
  1024G12c C02L18873   2.317   2.182   8.037
  1024G12c H01D18874   2.221   2.150   8.000
  1024G12c C01318875   1.914   2.202   8.627
  1024G12c H00018876   1.949   2.288   8.572
  1024G12c C01418877   1.852   2.210   8.755
  1024G12c C00F18878   1.827   2.333   8.821
  1024G12c C00H18879   1.784   2.210   9.025
  1024G12c C00I18880   1.759   2.205   9.159
  1024G12c C00J18881   1.764   2.085   9.224
  1024G12c C00Z18882   1.880   1.848   8.826
  1024G12c C00Y18883   1.906   1.722   8.762
  1024G12c H00618884   1.911   1.724   8.654
  1024G12c C00X18885   1.929   1.607   8.837
  1024G12c O00318886   1.963   1.489   8.772
  1024G12c C01B18887   1.965   1.494   8.626
  1024G12c H00918888   2.045   1.557   8.587
  1024G12c H00818889   1.867   1.527   8.592
  1024G12c H00718890   1.972   1.390   8.594
  1024G12c C00W18891   1.932   1.621   8.979
  1024G12c O00418892   1.970   1.509   9.055
  1024G12c C01C18893   1.975   1.518   9.193
  1024G12c H00A18894   1.953   1.431   9.253
  1024G12c C00P18895   1.967   1.652   9.259
  1024G12c C00O18896   2.037   1.672   9.383
  1024G12c C01D18897   2.149   1.593   9.406
  1024G12c H00S18898   2.172   1.517   9.333
  1024G12c C01E18899   2.243   1.624   9.503
  1024G12c O00818900   2.363   1.556   9.528
  1024G12c C01V18901   2.404   1.457   9.443
  1024G12c C01Z18902   2.428   1.325   9.513
  1024G12c H00R18903   2.397   1.318   9.618
  1024G12c H00Q18904   2.373   1.252   9.454
  1024G12c O00918905   2.569   1.302   9.526
  1024G12c H00P18906   2.585   1.211   9.546
  1024G12c C01W18907   2.418   1.492   9.320
  1024G12c H00O18908   2.413   1.595   9.289
  1024G12c C01X18909   2.462   1.400   9.210
  1024G12c H00N18910   2.513   1.456   9.132
  1024G12c H00M18911   2.545   1.336   9.241
  1024G12c C01Y18912   2.362   1.300   9.157
  1024G12c C02D18913   2.258   1.352   9.076
  1024G12c H01918914   2.257   1.459   9.058
  1024G12c C02C18915   2.156   1.270   9.040
  1024G12c H01A18916   2.070   1.312   8.989
  1024G12c C02B18917   2.161   1.127   9.072
  1024G12c O00E18918   2.060   1.047   9.024
  1024G12c H01B18919   1.997   1.103   8.981
  1024G12c C02F18920   2.267   1.076   9.153
  1024G12c O00F18921   2.246   0.949   9.188
  1024G12c C02G18922   2.365   0.884   9.241
  1024G12c H01718923   2.343   0.780   9.265
  1024G12c H01618924   2.381   0.929   9.339
  1024G12c H01518925   2.454   0.892   9.179
  1024G12c C02E18926   2.370   1.158   9.183
  1024G12c H01818927   2.452   1.118   9.241
  1024G12c C01F18928   2.211   1.726   9.589
  1024G12c C01G18929   2.303   1.787   9.681
  1024G12c H00L18930   2.403   1.748   9.694
  1024G12c C01H18931   2.272   1.916   9.745
  1024G12c H00B18932   2.357   1.967   9.788
  1024G12c C01I18933   2.147   1.980   9.713
  1024G12c C01U18934   2.083   1.784   9.598
  1024G12c C00S18935   1.780   1.967   9.155
  1024G12c C00K18936   1.820   2.076   9.356
  1024G12c C00N18937   2.008   1.776   9.476
  1024G12c C00018938   2.043   1.893   9.675
  1024G12c C01J18939   2.105   2.115   9.679
  1024G12c C01K18940   2.187   2.226   9.695
  1024G12c C01P18941   2.296   2.246   9.785
  1024G12c C01Q18942   2.301   2.181   9.916
  1024G12c H00G18943   2.210   2.174   9.974
  1024G12c C01R18944   2.421   2.144   9.962
  1024G12c H00F18945   2.513   2.149   9.907
  1024G12c C01S18946   2.455   2.081  10.099
  1024G12c H00E18947   2.363   2.068  10.155
  1024G12c H00D18948   2.505   1.984  10.093
  1024G12c O00518949   2.531   2.182  10.170
  1024G12c H00C18950   2.584   2.139  10.235
  1024G12c C01O18951   2.375   2.361   9.765
  1024G12c H00H18952   2.459   2.377   9.831
  1024G12c C01N18953   2.351   2.461   9.670
  1024G12c O00618954   2.428   2.575   9.664
  1024G12c C01T18955   2.555   2.574   9.715
  1024G12c H00K18956   2.542   2.585   9.822
  1024G12c H00J18957   2.615   2.655   9.673
  1024G12c H00I18958   2.614   2.482   9.708
  1024G12c C01M18959   2.237   2.450   9.596
  1024G12c C02018960   1.857   2.203   9.412
  1024G12c C02118961   1.813   2.328   9.363
  1024G12c C01L18962   2.152   2.335   9.606
  1024G12c O00718963   2.216   2.552   9.506
  1024G12c C02218964   1.889   2.446   9.374
  1024G12c C02318965   1.762   2.332   9.232
  1024G12c C00G18966   1.799   2.331   8.955
  1024G12c C00E18967   1.820   2.451   8.747
  1024G12c O00A18968   1.824   2.459   8.612
  1024G12c C02418969   1.696   2.419   8.549
  1024G12c H00V18970   1.655   2.321   8.571
  1024G12c H00U18971   1.716   2.426   8.442
  1024G12c H00T18972   1.612   2.477   8.587
  1034G12c C00D18973   0.753   5.206   6.027
  1034G12c O00B18974   0.667   5.192   6.136
  1034G12c C02518975   0.599   5.304   6.179
  1034G12c C02618976   0.445   5.287   6.154
  1034G12c H00Y18977   0.388   5.373   6.189
  1034G12c H00X18978   0.409   5.193   6.197
  1034G12c O00C18979   0.428   5.287   6.015
  1034G12c H00W18980   0.455   5.202   5.985
  1034G12c C02718981   0.662   5.395   6.261
  1034G12c O00D18982   0.791   5.372   6.297
  1034G12c H00Z18983   0.805   5.290   6.252
  1034G12c C02818984   0.601   5.517   6.314
  1034G12c C02918985   0.625   5.544   6.451
  1034G12c H01018986   0.686   5.474   6.506
  1034G12c C02T18987   0.574   5.663   6.513
  1034G12c H01O18988   0.598   5.683   6.616
  1034G12c C02S18989   0.500   5.754   6.437
  1034G12c O00J18990   0.462   5.875   6.489
  1034G12c H01P18991   0.432   5.925   6.415
  1034G12c C02R18992   0.465   5.724   6.304
  1034G12c O00I18993   0.377   5.811   6.246
  1034G12c C02Q18994   0.393   5.840   6.113
  1034G12c H01N18995   0.321   5.916   6.081
  1034G12c H01R18996   0.397   5.762   6.037
  1034G12c H01Q18997   0.488   5.891   6.097
  1034G12c C02A18998   0.529   5.616   6.236
  1034G12c H01118999   0.516   5.592   6.132
  1034G12c C00C19000   0.748   5.322   5.946
  1034G12c H01219001   0.692   5.408   5.980
  1034G12c C00B19002   0.841   5.349   5.847
  1034G12c C00A19003   0.851   5.468   5.768
  1034G12c C00919004   0.747   5.566   5.740
  1034G12c C00819005   0.609   5.565   5.747
  1034G12c H01319006   0.564   5.506   5.826
  1034G12c C00719007   0.526   5.642   5.661
  1034G12c H01419008   0.419   5.656   5.670
  1034G12c C00619009   0.577   5.699   5.542
  1034G12c C00519010   0.713   5.683   5.524
  1034G12c C00419011   0.769   5.697   5.395
  1034G12c C00319012   0.900   5.652   5.370
  1034G12c C00219013   0.954   5.668   5.238
  1034G12c C00119014   1.070   5.625   5.167
  1034G12c C00M19015   1.140   5.499   5.184
  1034G12c C00L19016   1.159   5.440   5.309
  1034G12c C00R19017   1.193   5.302   5.331
  1034G12c C00Q19018   1.228   5.195   5.240
  1034G12c C00V19019   1.229   5.070   5.307
  1034G12c C00U19020   1.174   5.049   5.433
  1034G12c C00T19021   1.147   5.153   5.514
  1034G12c C01619022   1.074   5.149   5.635
  1034G12c C01519023   1.048   5.019   5.679
  1034G12c C01019024   1.096   4.903   5.612
  1034G12c C01119025   1.063   4.772   5.667
  1034G12c H00519026   1.083   4.677   5.620
  1034G12c C01219027   0.991   4.762   5.785
  1034G12c C01719028   0.939   4.640   5.838
  1034G12c O00219029   0.803   4.633   5.861
  1034G12c H00419030   0.786   4.540   5.850
  1034G12c C01819031   1.018   4.529   5.859
  1034G12c O00119032   1.156   4.536   5.848
  1034G12c H00319033   1.177   4.625   5.826
  1034G12c C01919034   0.972   4.390   5.901
  1034G12c H00219035   1.049   4.319   5.870
  1034G12c H00119036   0.961   4.398   6.010
  1034G12c O00019037   0.839   4.381   5.850
  1034G12c C01A19038   0.767   4.264   5.873
  1034G12c C02K19039   0.621   4.266   5.873
  1034G12c O00G19040   0.558   4.380   5.841
  1034G12c C02M19041   0.544   4.388   5.706
  1034G12c H01G19042   0.480   4.308   5.669
  1034G12c H01F19043   0.632   4.381   5.642
  1034G12c H01E19044   0.496   4.483   5.680
  1034G12c C02J19045   0.557   4.145   5.892
  1034G12c H01H19046   0.450   4.160   5.884
  1034G12c C02I19047   0.626   4.023   5.925
  1034G12c C02N19048   0.545   3.905   5.941
  1034G12c H01M19049   0.562   3.812   5.889
  1034G12c C02O19050   0.438   3.904   6.020
  1034G12c H01L19051   0.404   3.994   6.069
  1034G12c C02P19052   0.347   3.783   6.049
  1034G12c H01K19053   0.278   3.808   6.130
  1034G12c H01J19054   0.287   3.771   5.958
  1034G12c O00H19055   0.429   3.676   6.092
  1034G12c H01I19056   0.381   3.616   6.148
  1034G12c C02H19057   0.761   4.024   5.936
  1034G12c H01C19058   0.808   3.929   5.956
  1034G12c C02L19059   0.832   4.141   5.909
  1034G12c H01D19060   0.937   4.121   5.898
  1034G12c C01319061   0.959   4.879   5.847
  1034G12c H00019062   0.899   4.868   5.937
  1034G12c C01419063   0.979   5.006   5.801
  1034G12c C00F19064   0.919   5.117   5.864
  1034G12c C00H19065   1.024   5.261   5.701
  1034G12c C00I19066   1.046   5.390   5.639
  1034G12c C00J19067   1.122   5.397   5.522
  1034G12c C00Z19068   1.156   4.919   5.486
  1034G12c C00Y19069   1.198   4.805   5.412
  1034G12c H00619070   1.203   4.709   5.462
  1034G12c C00X19071   1.257   4.828   5.287
  1034G12c O00319072   1.310   4.727   5.207
  1034G12c C01B19073   1.314   4.586   5.255
  1034G12c H00919074   1.217   4.546   5.286
  1034G12c H00819075   1.389   4.563   5.330
  1034G12c H00719076   1.334   4.529   5.165
  1034G12c C00W19077   1.267   4.959   5.235
  1034G12c O00419078   1.326   4.969   5.111
  1034G12c C01C19079   1.289   5.077   5.034
  1034G12c H00A19080   1.347   5.081   4.942
  1034G12c C00P19081   1.243   5.199   5.097
  1034G12c C00O19082   1.205   5.311   5.010
  1034G12c C01D19083   1.194   5.290   4.872
  1034G12c H00S19084   1.226   5.204   4.815
  1034G12c C01E19085   1.121   5.389   4.792
  1034G12c O00819086   1.088   5.357   4.663
  1034G12c C01V19087   1.180   5.399   4.572
  1034G12c C01Z19088   1.286   5.301   4.531
  1034G12c H00R19089   1.264   5.206   4.579
  1034G12c H00Q19090   1.299   5.286   4.424
  1034G12c O00919091   1.415   5.345   4.588
  1034G12c H00P19092   1.398   5.419   4.645
  1034G12c C01W19093   1.162   5.512   4.505
  1034G12c H00O19094   1.074   5.567   4.536
  1034G12c C01X19095   1.254   5.569   4.405
  1034G12c H00N19096   1.244   5.675   4.427
  1034G12c H00M19097   1.357   5.537   4.419
  1034G12c C01Y19098   1.228   5.562   4.258
  1034G12c C02D19099   1.158   5.456   4.201
  1034G12c H01919100   1.104   5.388   4.266
  1034G12c C02C19101   1.160   5.437   4.064
  1034G12c H01A19102   1.108   5.350   4.028
  1034G12c C02B19103   1.219   5.528   3.973
  1034G12c O00E19104   1.216   5.507   3.842
  1034G12c H01B19105   1.283   5.568   3.815
  1034G12c C02F19106   1.287   5.642   4.027
  1034G12c O00F19107   1.348   5.727   3.937
  1034G12c C02G19108   1.481   5.774   3.977
  1034G12c H01719109   1.477   5.841   4.063
  1034G12c H01619110   1.515   5.830   3.890
  1034G12c H01519111   1.537   5.682   3.991
  1034G12c C02E19112   1.291   5.656   4.171
  1034G12c H01819113   1.349   5.735   4.217
  1034G12c C01F19114   1.061   5.505   4.844
  1034G12c C01G19115   0.956   5.579   4.789
  1034G12c H00L19116   0.923   5.559   4.688
  1034G12c C01H19117   0.874   5.664   4.873
  1034G12c H00B19118   0.770   5.687   4.852
  1034G12c C01I19119   0.928   5.695   5.001
  1034G12c C01U19120   1.109   5.545   4.970
  1034G12c C00S19121   1.170   5.280   5.463
  1034G12c C00K19122   1.092   5.499   5.425
  1034G12c C00N19123   1.160   5.439   5.058
  1034G12c C00019124   1.059   5.656   5.036
  1034G12c C01J19125   0.866   5.722   5.129
  1034G12c C01K19126   0.731   5.766   5.158
  1034G12c C01P19127   0.645   5.844   5.076
  1034G12c C01Q19128   0.683   5.875   4.944
  1034G12c H00G19129   0.767   5.936   4.915
  1034G12c C01R19130   0.591   5.851   4.848
  1034G12c H00F19131   0.504   5.791   4.871
  1034G12c C01S19132   0.607   5.873   4.703
  1034G12c H00E19133   0.524   5.937   4.676
  1034G12c H00D19134   0.703   5.924   4.689
  1034G12c O00519135   0.588   5.747   4.640
  1034G12c H00C19136   0.505   5.748   4.595
  1034G12c C01O19137   0.513   5.882   5.113
  1034G12c H00H19138   0.460   5.947   5.045
  1034G12c C01N19139   0.457   5.839   5.234
  1034G12c O00619140   0.331   5.856   5.278
  1034G12c C01T19141   0.246   5.938   5.196
  1034G12c H00K19142   0.227   5.899   5.095
  1034G12c H00J19143   0.289   6.038   5.189
  1034G12c H00I19144   0.149   5.956   5.243
  1034G12c C01M19145   0.548   5.780   5.327
  1034G12c C02019146   0.987   5.591   5.460
  1034G12c C02119147   0.930   5.596   5.593
  1034G12c C01L19148   0.686   5.750   5.292
  1034G12c O00719149   0.495   5.748   5.447
  1034G12c C02219150   0.800   5.633   5.626
  1034G12c C02319151   0.961   5.492   5.684
  1034G12c C00G19152   0.931   5.242   5.800
  1034G12c C00E19153   0.845   5.108   5.993
  1034G12c O00A19154   0.873   5.022   6.093
  1034G12c C02419155   1.005   5.043   6.153
  1034G12c H00V19156   1.014   5.140   6.201
  1034G12c H00U19157   1.094   5.032   6.092
  1034G12c H00T19158   1.016   4.991   6.248
  1044G12c C00D19159   4.396   5.332   7.898
  1044G12c O00B19160   4.447   5.426   7.817
  1044G12c C02519161   4.585   5.450   7.827
  1044G12c C02619162   4.663   5.397   7.706
  1044G12c H00Y19163   4.626   5.301   7.672
  1044G12c H00X19164   4.770   5.382   7.725
  1044G12c O00C19165   4.653   5.478   7.589
  1044G12c H00W19166   4.562   5.502   7.576
  1044G12c C02719167   4.633   5.518   7.932
  1044G12c O00D19168   4.556   5.565   8.031
  1044G12c H00Z19169   4.468   5.548   7.999
  1044G12c C02819170   4.770   5.564   7.928
  1044G12c C02919171   4.853   5.538   8.036
  1044G12c H01019172   4.812   5.499   8.128
  1044G12c C02T19173   4.993   5.553   8.033
  1044G12c H01O19174   5.054   5.530   8.119
  1044G12c C02S19175   5.048   5.609   7.917
  1044G12c O00J19176   5.184   5.624   7.899
  1044G12c H01P19177   5.198   5.700   7.844
  1044G12c C02R19178   4.965   5.655   7.813
  1044G12c O00I19179   5.026   5.716   7.702
  1044G12c C02Q19180   4.943   5.746   7.587
  1044G12c H01N19181   5.005   5.781   7.505
  1044G12c H01R19182   4.879   5.835   7.592
  1044G12c H01Q19183   4.882   5.667   7.542
  1044G12c C02A19184   4.822   5.630   7.816
  1044G12c H01119185   4.755   5.668   7.740
  1044G12c C00C19186   4.465   5.266   7.998
  1044G12c H01219187   4.571   5.280   8.007
  1044G12c C00B19188   4.401   5.190   8.099
  1044G12c C00A19189   4.460   5.127   8.210
  1044G12c C00919190   4.592   5.064   8.227
  1044G12c C00819191   4.693   5.048   8.132
  1044G12c H01319192   4.707   5.107   8.044
  1044G12c C00719193   4.774   4.932   8.147
  1044G12c H01419194   4.856   4.913   8.080
  1044G12c C00619195   4.759   4.836   8.251
  1044G12c C00519196   4.659   4.864   8.350
  1044G12c C00419197   4.599   4.759   8.424
  1044G12c C00319198   4.470   4.772   8.478
  1044G12c C00219199   4.418   4.655   8.538
  1044G12c C00119200   4.295   4.618   8.614
  1044G12c C00M19201   4.170   4.646   8.547
  1044G12c C00L19202   4.138   4.772   8.497
  1044G12c C00R19203   4.026   4.801   8.419
  1044G12c C00Q19204   3.911   4.722   8.375
  1044G12c C00V19205   3.829   4.789   8.279
  1044G12c C00U19206   3.870   4.899   8.201
  1044G12c C00T19207   3.984   4.966   8.242
  1044G12c C01619208   4.056   5.049   8.157
  1044G12c C01519209   3.998   5.078   8.041
  1044G12c C01019210   3.865   5.043   8.012
  1044G12c C01119211   3.807   5.084   7.887
  1044G12c H00519212   3.702   5.066   7.870
  1044G12c C01219213   3.882   5.141   7.787
  1044G12c C01719214   3.822   5.164   7.659
  1044G12c O00219215   3.753   5.062   7.598
  1044G12c H00419216   3.749   5.083   7.506
  1044G12c C01819217   3.868   5.276   7.592
  1044G12c O00119218   3.929   5.383   7.654
  1044G12c H00319219   3.974   5.343   7.726
  1044G12c C01919220   3.855   5.297   7.450
  1044G12c H00219221   3.800   5.388   7.427
  1044G12c H00119222   3.959   5.309   7.419
  1044G12c O00019223   3.797   5.186   7.378
  1044G12c C01A19224   3.821   5.179   7.241
  1044G12c C02K19225   3.859   5.278   7.141
  1044G12c O00G19226   3.868   5.412   7.177
  1044G12c C02M19227   3.900   5.508   7.076
  1044G12c H01G19228   3.994   5.491   7.023
  1044G12c H01F19229   3.902   5.600   7.134
  1044G12c H01E19230   3.824   5.511   6.998
  1044G12c C02J19231   3.883   5.234   7.006
  1044G12c H01H19232   3.910   5.307   6.932
  1044G12c C02I19233   3.862   5.103   6.964
  1044G12c C02N19234   3.878   5.070   6.821
  1044G12c H01M19235   3.958   5.002   6.795
  1044G12c C02O19236   3.787   5.128   6.740
  1044G12c H01L19237   3.704   5.187   6.777
  1044G12c C02P19238   3.799   5.110   6.590
  1044G12c H01K19239   3.814   5.200   6.531
  1044G12c H01J19240   3.876   5.042   6.554
  1044G12c O00H19241   3.670   5.057   6.562
  1044G12c H01I19242   3.662   4.990   6.628
  1044G12c C02H19243   3.819   5.014   7.059
  1044G12c H01C19244   3.804   4.912   7.028
  1044G12c C02L19245   3.799   5.049   7.194
  1044G12c H01D19246   3.763   4.975   7.264
  1044G12c C01319247   4.014   5.165   7.814
  1044G12c H00019248   4.079   5.187   7.731
  1044G12c C01419249   4.071   5.154   7.945
  1044G12c C00F19250   4.200   5.203   7.969
  1044G12c C00H19251   4.185   5.095   8.189
  1044G12c C00I19252   4.242   5.059   8.310
  1044G12c C00J19253   4.171   4.972   8.391
  1044G12c C00Z19254   3.806   4.946   8.088
  1044G12c C00Y19255   3.681   4.886   8.060
  1044G12c H00619256   3.633   4.912   7.967
  1044G12c C00X19257   3.637   4.769   8.126
  1044G12c O00319258   3.516   4.704   8.091
  1044G12c C01B19259   3.451   4.739   7.968
  1044G12c H00919260   3.404   4.837   7.966
  1044G12c H00819261   3.379   4.662   7.944
  1044G12c H00719262   3.526   4.723   7.890
  1044G12c C00W19263   3.711   4.720   8.231
  1044G12c O00419264   3.660   4.605   8.282
  1044G12c C01C19265   3.744   4.544   8.376
  1044G12c H00A19266   3.706   4.462   8.435
  1044G12c C00P19267   3.878   4.588   8.406
  1044G12c C00O19268   3.971   4.494   8.462
  1044G12c C01D19269   3.950   4.348   8.456
  1044G12c H00S19270   3.865   4.309   8.401
  1044G12c C01E19271   4.042   4.249   8.488
  1044G12c O00819272   4.026   4.115   8.472
  1044G12c C01V19273   3.902   4.065   8.457
  1044G12c C01Z19274   3.882   3.977   8.338
  1044G12c H00R19275   3.983   3.950   8.305
  1044G12c H00Q19276   3.828   3.890   8.374
  1044G12c O00919277   3.814   4.052   8.243
  1044G12c H00P19278   3.872   4.086   8.176
  1044G12c C01W19279   3.809   4.086   8.556
  1044G12c H00O19280   3.837   4.152   8.636
  1044G12c C01X19281   3.661   4.041   8.540
  1044G12c H00N19282   3.612   4.138   8.540
  1044G12c H00M19283   3.632   3.996   8.445
  1044G12c C01Y19284   3.613   3.955   8.662
  1044G12c C02D19285   3.480   3.910   8.674
  1044G12c H01919286   3.420   3.930   8.587
  1044G12c C02C19287   3.426   3.849   8.786
  1044G12c H01A19288   3.321   3.826   8.794
  1044G12c C02B19289   3.514   3.826   8.895
  1044G12c O00E19290   3.473   3.763   9.006
  1044G12c H01B19291   3.546   3.731   9.058
  1044G12c C02F19292   3.650   3.856   8.886
  1044G12c O00F19293   3.726   3.818   8.992
  1044G12c C02G19294   3.857   3.871   9.005
  1044G12c H01719295   3.924   3.815   8.940
  1044G12c H01619296   3.899   3.864   9.105
  1044G12c H01519297   3.856   3.976   8.974
  1044G12c C02E19298   3.701   3.917   8.772
  1044G12c H01819299   3.807   3.942   8.770
  1044G12c C01F19300   4.169   4.292   8.540
  1044G12c C01G19301   4.291   4.210   8.551
  1044G12c H00L19302   4.285   4.104   8.530
  1044G12c C01H19303   4.415   4.281   8.567
  1044G12c H00B19304   4.503   4.226   8.535
  1044G12c C01I19305   4.421   4.420   8.597
  1044G12c C01U19306   4.181   4.428   8.583
  1044G12c C00S19307   4.045   4.925   8.361
  1044G12c C00K19308   4.240   4.873   8.468
  1044G12c C00N19309   4.094   4.521   8.527
  1044G12c C00019310   4.298   4.480   8.640
  1044G12c C01J19311   4.499   4.532   8.547
  1044G12c C01K19312   4.633   4.520   8.498
  1044G12c C01P19313   4.731   4.418   8.510
  1044G12c C01Q19314   4.719   4.323   8.625
  1044G12c H00G19315   4.685   4.348   8.724
  1044G12c C01R19316   4.763   4.194   8.623
  1044G12c H00F19317   4.804   4.140   8.540
  1044G12c C01S19318   4.787   4.106   8.749
  1044G12c H00E19319   4.770   4.169   8.837
  1044G12c H00D19320   4.703   4.037   8.753
  1044G12c O00519321   4.914   4.050   8.758
  1044G12c H00C19322   4.925   4.016   8.845
  1044G12c C01O19323   4.837   4.404   8.424
  1044G12c H00H19324   4.912   4.327   8.425
  1044G12c C01N19325   4.867   4.503   8.332
  1044G12c O00619326   4.967   4.479   8.236
  1044G12c C01T19327   4.922   4.512   8.097
  1044G12c H00K19328   4.925   4.618   8.074
  1044G12c H00J19329   4.819   4.483   8.072
  1044G12c H00I19330   4.988   4.463   8.025
  1044G12c C01M19331   4.795   4.627   8.344
  1044G12c C02019332   4.386   4.882   8.461
  1044G12c C02119333   4.457   4.995   8.406
  1044G12c C01L19334   4.672   4.635   8.426
  1044G12c O00719335   4.832   4.727   8.256
  1044G12c C02219336   4.583   4.985   8.345
  1044G12c C02319337   4.383   5.090   8.323
  1044G12c C00G19338   4.261   5.171   8.092
  1044G12c C00E19339   4.263   5.297   7.881
  1044G12c O00A19340   4.184   5.372   7.793
  1044G12c C02419341   4.156   5.500   7.849
  1044G12c H00V19342   4.244   5.559   7.873
  1044G12c H00U19343   4.100   5.479   7.940
  1044G12c H00T19344   4.089   5.560   7.787
  1054G12c C00D19345   2.558   2.865   6.244
  1054G12c O00B19346   2.438   2.842   6.301
  1054G12c C02519347   2.434   2.754   6.409
  1054G12c C02619348   2.399   2.809   6.547
  1054G12c H00Y19349   2.458   2.900   6.559
  1054G12c H00X19350   2.424   2.751   6.636
  1054G12c O00C19351   2.264   2.836   6.560
  1054G12c H00W19352   2.223   2.842   6.475
  1054G12c C02719353   2.471   2.626   6.388
  1054G12c O00D19354   2.503   2.586   6.261
  1054G12c H00Z19355   2.492   2.655   6.198
  1054G12c C02819356   2.484   2.522   6.487
  1054G12c C02919357   2.597   2.438   6.482
  1054G12c H01019358   2.677   2.471   6.417
  1054G12c C02T19359   2.595   2.319   6.563
  1054G12c H01O19360   2.673   2.245   6.554
  1054G12c C02S19361   2.483   2.292   6.638
  1054G12c O00J19362   2.480   2.184   6.714
  1054G12c H01P19363   2.409   2.202   6.774
  1054G12c C02R19364   2.375   2.378   6.652
  1054G12c O00I19365   2.274   2.334   6.735
  1054G12c C02Q19366   2.155   2.426   6.739
  1054G12c H01N19367   2.089   2.415   6.653
  1054G12c H01R19368   2.178   2.527   6.771
  1054G12c H01Q19369   2.092   2.390   6.820
  1054G12c C02A19370   2.379   2.496   6.578
  1054G12c H01119371   2.293   2.561   6.569
  1054G12c C00C19372   2.678   2.881   6.316
  1054G12c H01219373   2.679   2.885   6.424
  1054G12c C00B19374   2.794   2.917   6.247
  1054G12c C00A19375   2.922   2.940   6.309
  1054G12c C00919376   2.967   2.954   6.447
  1054G12c C00819377   2.900   2.947   6.573
  1054G12c H01319378   2.804   2.901   6.591
  1054G12c C00719379   2.950   3.022   6.673
  1054G12c H01419380   2.894   3.036   6.765
  1054G12c C00619381   3.061   3.111   6.663
  1054G12c C00519382   3.126   3.108   6.542
  1054G12c C00419383   3.219   3.210   6.506
  1054G12c C00319384   3.262   3.212   6.367
  1054G12c C00219385   3.358   3.317   6.339
  1054G12c C00119386   3.427   3.364   6.220
  1054G12c C00M19387   3.359   3.378   6.092
  1054G12c C00L19388   3.259   3.283   6.040
  1054G12c C00R19389   3.171   3.297   5.933
  1054G12c C00Q19390   3.142   3.406   5.852
  1054G12c C00V19391   3.024   3.388   5.774
  1054G12c C00U19392   2.935   3.276   5.787
  1054G12c C00T19393   2.957   3.183   5.879
  1054G12c C01619394   2.866   3.088   5.930
  1054G12c C01519395   2.737   3.095   5.871
  1054G12c C01019396   2.720   3.169   5.754
  1054G12c C01119397   2.599   3.150   5.678
  1054G12c H00519398   2.576   3.206   5.589
  1054G12c C01219399   2.497   3.068   5.723
  1054G12c C01719400   2.367   3.066   5.644
  1054G12c O00219401   2.341   3.188   5.585
  1054G12c H00419402   2.255   3.196   5.546
  1054G12c C01819403   2.291   2.958   5.630
  1054G12c O00119404   2.326   2.836   5.681
  1054G12c H00319405   2.254   2.781   5.652
  1054G12c C01919406   2.166   2.946   5.545
  1054G12c H00219407   2.092   3.006   5.598
  1054G12c H00119408   2.176   2.987   5.445
  1054G12c O00019409   2.112   2.817   5.549
  1054G12c C01A19410   2.009   2.805   5.467
  1054G12c C02K19411   1.877   2.852   5.500
  1054G12c O00G19412   1.856   2.914   5.619
  1054G12c C02M19413   1.821   2.821   5.720
  1054G12c H01G19414   1.741   2.759   5.680
  1054G12c H01F19415   1.790   2.879   5.807
  1054G12c H01E19416   1.901   2.751   5.746
  1054G12c C02J19417   1.771   2.852   5.406
  1054G12c H01H19418   1.672   2.888   5.427
  1054G12c C02I19419   1.790   2.804   5.278
  1054G12c C02N19420   1.693   2.798   5.173
  1054G12c H01M19421   1.587   2.804   5.197
  1054G12c C02O19422   1.740   2.790   5.047
  1054G12c H01L19423   1.847   2.781   5.032
  1054G12c C02P19424   1.661   2.794   4.917
  1054G12c H01K19425   1.728   2.814   4.834
  1054G12c H01J19426   1.623   2.692   4.905
  1054G12c O00H19427   1.556   2.885   4.922
  1054G12c H01I19428   1.496   2.856   4.989
  1054G12c C02H19429   1.916   2.732   5.260
  1054G12c H01C19430   1.932   2.672   5.172
  1054G12c C02L19431   2.022   2.732   5.348
  1054G12c H01D19432   2.113   2.680   5.320
  1054G12c C01319433   2.519   3.003   5.847
  1054G12c H00019434   2.434   2.951   5.888
  1054G12c C01419435   2.642   3.011   5.918
  1054G12c C00F19436   2.666   2.938   6.039
  1054G12c C00H19437   2.890   3.013   6.042
  1054G12c C00I19438   3.013   3.028   6.109
  1054G12c C00J19439   3.110   3.111   6.043
  1054G12c C00Z19440   2.816   3.265   5.715
  1054G12c C00Y19441   2.796   3.354   5.606
  1054G12c H00619442   2.718   3.340   5.532
  1054G12c C00X19443   2.885   3.463   5.582
  1054G12c O00319444   2.861   3.565   5.489
  1054G12c C01B19445   2.746   3.553   5.409
  1054G12c H00919446   2.725   3.648   5.360
  1054G12c H00819447   2.661   3.541   5.477
  1054G12c H00719448   2.752   3.475   5.333
  1054G12c C00W19449   2.989   3.487   5.675
  1054G12c O00419450   3.072   3.591   5.639
  1054G12c C01C19451   3.164   3.623   5.734
  1054G12c H00A19452   3.238   3.698   5.708
  1054G12c C00P19453   3.210   3.531   5.840
  1054G12c C00O19454   3.297   3.583   5.946
  1054G12c C01D19455   3.318   3.723   5.952
  1054G12c H00S19456   3.284   3.790   5.875
  1054G12c C01E19457   3.370   3.791   6.068
  1054G12c O00819458   3.367   3.923   6.072
  1054G12c C01V19459   3.482   3.984   6.013
  1054G12c C01Z19460   3.474   4.001   5.865
  1054G12c H00R19461   3.554   4.063   5.827
  1054G12c H00Q19462   3.484   3.900   5.824
  1054G12c O00919463   3.356   4.063   5.826
  1054G12c H00P19464   3.353   4.043   5.734
  1054G12c C01W19465   3.579   4.037   6.091
  1054G12c H00O19466   3.571   4.038   6.199
  1054G12c C01X19467   3.710   4.101   6.055
  1054G12c H00N19468   3.716   4.106   5.946
  1054G12c H00M19469   3.711   4.203   6.094
  1054G12c C01Y19470   3.820   4.010   6.104
  1054G12c C02D19471   3.912   4.068   6.190
  1054G12c H01919472   3.924   4.173   6.211
  1054G12c C02C19473   3.986   3.978   6.279
  1054G12c H01A19474   4.054   4.006   6.358
  1054G12c C02B19475   3.980   3.840   6.263
  1054G12c O00E19476   4.055   3.756   6.344
  1054G12c H01B19477   4.027   3.666   6.336
  1054G12c C02F19478   3.895   3.784   6.168
  1054G12c O00F19479   3.883   3.648   6.164
  1054G12c C02G19480   3.799   3.585   6.062
  1054G12c H01719481   3.822   3.631   5.966
  1054G12c H01619482   3.691   3.597   6.065
  1054G12c H01519483   3.827   3.480   6.057
  1054G12c C02E19484   3.819   3.870   6.084
  1054G12c H01819485   3.757   3.836   6.002
  1054G12c C01F19486   3.423   3.715   6.178
  1054G12c C01G19487   3.447   3.767   6.308
  1054G12c H00L19488   3.449   3.872   6.336
  1054G12c C01H19489   3.448   3.668   6.411
  1054G12c H00B19490   3.426   3.696   6.513
  1054G12c C01I19491   3.447   3.531   6.378
  1054G12c C01U19492   3.445   3.576   6.150
  1054G12c C00S19493   3.081   3.189   5.937
  1054G12c C00K19494   3.213   3.172   6.118
  1054G12c C00N19495   3.365   3.511   6.048
  1054G12c C00019496   3.493   3.491   6.249
  1054G12c C01J19497   3.384   3.418   6.440
  1054G12c C01K19498   3.353   3.404   6.581
  1054G12c C01P19499   3.417   3.464   6.695
  1054G12c C01Q19500   3.536   3.544   6.680
  1054G12c H00G19501   3.615   3.528   6.608
  1054G12c C01R19502   3.556   3.648   6.767
  1054G12c H00F19503   3.484   3.675   6.844
  1054G12c C01S19504   3.677   3.738   6.767
  1054G12c H00E19505   3.666   3.800   6.678
  1054G12c H00D19506   3.699   3.790   6.860
  1054G12c O00519507   3.794   3.663   6.746
  1054G12c H00C19508   3.802   3.642   6.654
  1054G12c C01O19509   3.353   3.450   6.820
  1054G12c H00H19510   3.384   3.499   6.911
  1054G12c C01N19511   3.237   3.380   6.831
  1054G12c O00619512   3.190   3.386   6.960
  1054G12c C01T19513   3.074   3.313   7.005
  1054G12c H00K19514   3.107   3.211   7.026
  1054G12c H00J19515   2.993   3.306   6.933
  1054G12c H00I19516   3.026   3.365   7.088
  1054G12c C01M19517   3.202   3.289   6.732
  1054G12c C02019518   3.213   3.131   6.257
  1054G12c C02119519   3.136   3.023   6.310
  1054G12c C01L19520   3.260   3.301   6.601
  1054G12c O00719521   3.099   3.196   6.762
  1054G12c C02219522   3.093   3.015   6.437
  1054G12c C02319523   3.032   2.963   6.229
  1054G12c C00G19524   2.787   2.955   6.110
  1054G12c C00E19525   2.558   2.875   6.106
  1054G12c O00A19526   2.458   2.807   6.043
  1054G12c C02419527   2.488   2.706   5.957
  1054G12c H00V19528   2.520   2.739   5.859
  1054G12c H00U19529   2.398   2.645   5.944
  1054G12c H00T19530   2.568   2.643   5.996
  1064G12c C00D19531   3.109   6.001   2.847
  1064G12c O00B19532   3.235   6.039   2.896
  1064G12c C02519533   3.250   6.046   3.032
  1064G12c C02619534   3.322   5.919   3.083
  1064G12c H00Y19535   3.414   5.954   3.130
  1064G12c H00X19536   3.365   5.857   3.004
  1064G12c O00C19537   3.230   5.858   3.172
  1064G12c H00W19538   3.216   5.922   3.241
  1064G12c C02719539   3.178   6.132   3.110
  1064G12c O00D19540   3.099   6.231   3.056
  1064G12c H00Z19541   3.097   6.223   2.962
  1064G12c C02819542   3.185   6.132   3.254
  1064G12c C02919543   3.303   6.108   3.330
  1064G12c H01019544   3.402   6.084   3.293
  1064G12c C02T19545   3.303   6.124   3.465
  1064G12c H01O19546   3.401   6.119   3.511
  1064G12c C02S19547   3.191   6.161   3.535
  1064G12c O00J19548   3.189   6.195   3.665
  1064G12c H01P19549   3.102   6.211   3.698
  1064G12c C02R19550   3.074   6.181   3.465
  1064G12c O00I19551   2.958   6.218   3.535
  1064G12c C02Q19552   2.854   6.299   3.467
  1064G12c H01N19553   2.804   6.232   3.397
  1064G12c H01R19554   2.896   6.389   3.421
  1064G12c H01Q19555   2.788   6.337   3.544
  1064G12c C02A19556   3.071   6.166   3.324
  1064G12c H01119557   2.973   6.181   3.281
  1064G12c C00C19558   3.029   5.907   2.905
  1064G12c H01219559   3.068   5.846   2.985
  1064G12c C00B19560   2.900   5.877   2.853
  1064G12c C00A19561   2.807   5.777   2.905
  1064G12c C00919562   2.835   5.654   2.969
  1064G12c C00819563   2.955   5.592   3.010
  1064G12c H01319564   3.045   5.647   3.032
  1064G12c C00719565   2.963   5.452   3.019
  1064G12c H01419566   3.057   5.406   3.047
  1064G12c C00619567   2.847   5.371   2.979
  1064G12c C00519568   2.731   5.440   2.938
  1064G12c C00419569   2.627   5.371   2.871
  1064G12c C00319570   2.521   5.445   2.813
  1064G12c C00219571   2.427   5.366   2.743
  1064G12c C00119572   2.315   5.396   2.655
  1064G12c C00M19573   2.325   5.497   2.549
  1064G12c C00L19574   2.383   5.624   2.569
  1064G12c C00R19575   2.423   5.720   2.471
  1064G12c C00Q19576   2.416   5.712   2.324
  1064G12c C00V19577   2.491   5.821   2.267
  1064G12c C00U19578   2.583   5.905   2.336
  1064G12c C00T19579   2.605   5.890   2.471
  1064G12c C01619580   2.707   5.947   2.545
  1064G12c C01519581   2.791   6.037   2.475
  1064G12c C01019582   2.766   6.070   2.345
  1064G12c C01119583   2.846   6.169   2.283
  1064G12c H00519584   2.828   6.202   2.182
  1064G12c C01219585   2.945   6.238   2.356
  1064G12c C01719586   3.024   6.342   2.299
  1064G12c O00219587   3.067   6.320   2.169
  1064G12c H00419588   3.140   6.378   2.151
  1064G12c C01819589   3.066   6.452   2.366
  1064G12c O00119590   3.028   6.489   2.491
  1064G12c H00319591   2.960   6.428   2.518
  1064G12c C01919592   3.148   0.041   2.304
  1064G12c H00219593   3.088   0.075   2.219
  1064G12c H00119594   3.146   0.129   2.367
  1064G12c O00019595   3.272   6.499   2.261
  1064G12c C01A19596   3.367   6.455   2.351
  1064G12c C02K19597   3.479   6.379   2.308
  1064G12c O00G19598   3.480   6.339   2.179
  1064G12c C02M19599   3.600   6.344   2.111
  1064G12c H01G19600   3.632   6.448   2.108
  1064G12c H01F19601   3.586   6.317   2.006
  1064G12c H01E19602   3.688   6.285   2.137
  1064G12c C02J19603   3.573   6.322   2.402
  1064G12c H01H19604   3.652   6.263   2.356
  1064G12c C02I19605   3.556   6.328   2.541
  1064G12c C02N19606   3.644   6.255   2.634
  1064G12c H01M19607   3.672   6.152   2.621
  1064G12c C02O19608   3.682   6.316   2.746
  1064G12c H01L19609   3.652   6.419   2.761
  1064G12c C02P19610   3.775   6.263   2.850
  1064G12c H01K19611   3.724   6.265   2.946
  1064G12c H01J19612   3.803   6.159   2.832
  1064G12c O00H19613   3.897   6.332   2.850
  1064G12c H01I19614   3.941   6.322   2.767
  1064G12c C02H19615   3.445   6.406   2.580
  1064G12c H01C19616   3.416   6.414   2.683
  1064G12c C02L19617   3.360   6.470   2.488
  1064G12c H01D19618   3.286   0.014   2.533
  1064G12c C01319619   2.974   6.198   2.488
  1064G12c H00019620   3.059   6.247   2.534
  1064G12c C01419621   2.902   6.088   2.545
  1064G12c C00F19622   2.939   6.035   2.668
  1064G12c C00H19623   2.727   5.914   2.675
  1064G12c C00I19624   2.638   5.827   2.734
  1064G12c C00J19625   2.519   5.786   2.662
  1064G12c C00Z19626   2.660   6.007   2.273
  1064G12c C00Y19627   2.643   6.022   2.133
  1064G12c H00619628   2.696   6.095   2.076
  1064G12c C00X19629   2.547   5.945   2.059
  1064G12c O00319630   2.541   5.950   1.926
  1064G12c C01B19631   2.645   6.021   1.854
  1064G12c H00919632   2.616   6.021   1.749
  1064G12c H00819633   2.740   5.969   1.850
  1064G12c H00719634   2.643   6.129   1.871
  1064G12c C00W19635   2.478   5.840   2.127
  1064G12c O00419636   2.402   5.762   2.045
  1064G12c C01C19637   2.376   5.636   2.095
  1064G12c H00A19638   2.306   5.588   2.028
  1064G12c C00P19639   2.369   5.609   2.236
  1064G12c C00O19640   2.344   5.474   2.288
  1064G12c C01D19641   2.354   5.368   2.192
  1064G12c H00S19642   2.375   5.389   2.088
  1064G12c C01E19643   2.347   5.231   2.226
  1064G12c O00819644   2.379   5.134   2.137
  1064G12c C01V19645   2.378   5.155   2.004
  1064G12c C01Z19646   2.241   5.162   1.937
  1064G12c H00R19647   2.161   5.141   2.008
  1064G12c H00Q19648   2.233   5.264   1.901
  1064G12c O00919649   2.235   5.061   1.844
  1064G12c H00P19650   2.143   5.051   1.822
  1064G12c C01W19651   2.493   5.165   1.934
  1064G12c H00O19652   2.582   5.150   1.993
  1064G12c C01X19653   2.512   5.185   1.780
  1064G12c H00N19654   2.610   5.143   1.757
  1064G12c H00M19655   2.426   5.136   1.735
  1064G12c C01Y19656   2.516   5.336   1.752
  1064G12c C02D19657   2.442   5.390   1.647
  1064G12c H01919658   2.381   5.317   1.595
  1064G12c C02C19659   2.445   5.525   1.620
  1064G12c H01A19660   2.379   5.560   1.542
  1064G12c C02B19661   2.518   5.611   1.697
  1064G12c O00E19662   2.500   5.749   1.684
  1064G12c H01B19663   2.521   5.801   1.760
  1064G12c C02F19664   2.583   5.569   1.817
  1064G12c O00F19665   2.646   5.661   1.889
  1064G12c C02G19666   2.747   5.624   1.990
  1064G12c H01719667   2.834   5.568   1.956
  1064G12c H01619668   2.694   5.566   2.066
  1064G12c H01519669   2.779   5.715   2.041
  1064G12c C02E19670   2.589   5.427   1.836
  1064G12c H01819671   2.654   5.380   1.908
  1064G12c C01F19672   2.334   5.196   2.363
  1064G12c C01G19673   2.360   5.071   2.418
  1064G12c H00L19674   2.387   4.992   2.349
  1064G12c C01H19675   2.381   5.050   2.560
  1064G12c H00B19676   2.440   4.967   2.595
  1064G12c C01I19677   2.364   5.167   2.641
  1064G12c C01U19678   2.301   5.294   2.457
  1064G12c C00S19679   2.498   5.824   2.535
  1064G12c C00K19680   2.460   5.659   2.685
  1064G12c C00N19681   2.320   5.430   2.421
  1064G12c C00019682   2.285   5.271   2.595
  1064G12c C01J19683   2.436   5.222   2.754
  1064G12c C01K19684   2.535   5.145   2.830
  1064G12c C01P19685   2.533   5.006   2.871
  1064G12c C01Q19686   2.414   4.932   2.853
  1064G12c H00G19687   2.324   4.991   2.851
  1064G12c C01R19688   2.414   4.798   2.834
  1064G12c H00F19689   2.510   4.750   2.841
  1064G12c C01S19690   2.290   4.715   2.803
  1064G12c H00E19691   2.205   4.774   2.770
  1064G12c H00D19692   2.332   4.643   2.733
  1064G12c O00519693   2.245   4.659   2.918
  1064G12c H00C19694   2.234   4.722   2.988
  1064G12c C01O19695   2.643   4.948   2.941
  1064G12c H00H19696   2.636   4.844   2.970
  1064G12c C01N19697   2.756   5.028   2.962
  1064G12c O00619698   2.874   4.981   3.026
  1064G12c C01T19699   2.873   4.848   3.058
  1064G12c H00K19700   2.974   4.829   3.096
  1064G12c H00J19701   2.852   4.778   2.978
  1064G12c H00I19702   2.810   4.827   3.145
  1064G12c C01M19703   2.747   5.169   2.936
  1064G12c C02019704   2.523   5.589   2.798
  1064G12c C02119705   2.616   5.652   2.887
  1064G12c C01L19706   2.629   5.229   2.881
  1064G12c O00719707   2.859   5.238   2.970
  1064G12c C02219708   2.718   5.577   2.941
  1064G12c C02319709   2.680   5.774   2.856
  1064G12c C00G19710   2.855   5.939   2.734
  1064G12c C00E19711   3.071   6.060   2.730
  1064G12c O00A19712   3.172   6.143   2.671
  1064G12c C02419713   3.253   6.071   2.579
  1064G12c H00V19714   3.315   6.000   2.634
  1064G12c H00U19715   3.327   6.141   2.541
  1064G12c H00T19716   3.191   6.039   2.495
  1074G12c C00D19717   5.917   4.322   5.689
  1074G12c O00B19718   5.984   4.263   5.797
  1074G12c C02519719   5.976   4.315   5.922
  1074G12c C02619720   5.905   4.223   6.025
  1074G12c H00Y19721   5.927   4.247   6.129
  1074G12c H00X19722   5.942   4.121   6.013
  1074G12c O00C19723   5.764   4.218   6.009
  1074G12c H00W19724   5.744   4.221   5.917
  1074G12c C02719725   6.043   4.427   5.954
  1074G12c O00D19726   6.111   4.494   5.858
  1074G12c H00Z19727   6.117   4.438   5.782
  1074G12c C02819728   6.038   4.476   6.093
  1074G12c C02919729   5.921   4.505   6.164
  1074G12c H01019730   5.826   4.490   6.114
  1074G12c C02T19731   5.922   4.544   6.301
  1074G12c H01O19732   5.836   4.565   6.363
  1074G12c C02S19733   6.048   4.556   6.363
  1074G12c O00J19734   6.064   4.592   6.493
  1074G12c H01P19735   6.155   4.618   6.491
  1074G12c C02R19736   6.169   4.534   6.297
  1074G12c O00I19737   6.282   4.561   6.368
  1074G12c C02Q19738   6.409   4.555   6.303
  1074G12c H01N19739   6.433   4.636   6.234
  1074G12c H01R19740   6.417   4.457   6.255
  1074G12c H01Q19741   6.494   4.552   6.371
  1074G12c C02A19742   6.161   4.495   6.158
  1074G12c H01119743   6.250   4.477   6.099
  1074G12c C00C19744   5.830   4.431   5.707
  1074G12c H01219745   5.819   4.469   5.807
  1074G12c C00B19746   5.771   4.500   5.598
  1074G12c C00A19747   5.691   4.620   5.608
  1074G12c C00919748   5.607   4.664   5.715
  1074G12c C00819749   5.570   4.612   5.840
  1074G12c H01319750   5.621   4.524   5.875
  1074G12c C00719751   5.441   4.647   5.899
  1074G12c H01419752   5.409   4.606   5.993
  1074G12c C00619753   5.355   4.735   5.830
  1074G12c C00519754   5.397   4.779   5.702
  1074G12c C00419755   5.312   4.846   5.612
  1074G12c C00319756   5.341   4.861   5.472
  1074G12c C00219757   5.235   4.908   5.388
  1074G12c C00119758   5.214   4.918   5.241
  1074G12c C00M19759   5.262   4.810   5.152
  1074G12c C00L19760   5.391   4.753   5.164
  1074G12c C00R19761   5.438   4.641   5.090
  1074G12c C00Q19762   5.372   4.551   4.994
  1074G12c C00V19763   5.452   4.437   4.963
  1074G12c C00U19764   5.565   4.391   5.040
  1074G12c C00T19765   5.611   4.467   5.143
  1074G12c C01619766   5.702   4.427   5.239
  1074G12c C01519767   5.762   4.301   5.224
  1074G12c C01019768   5.734   4.234   5.107
  1074G12c C01119769   5.805   4.112   5.089
  1074G12c H00519770   5.804   4.052   4.999
  1074G12c C01219771   5.896   4.057   5.182
  1074G12c C01719772   5.954   3.926   5.165
  1074G12c O00219773   5.884   3.830   5.095
  1074G12c H00419774   5.929   3.747   5.104
  1074G12c C01819775   6.075   3.895   5.219
  1074G12c O00119776   6.153   3.991   5.271
  1074G12c H00319777   6.106   4.069   5.246
  1074G12c C01919778   6.139   3.755   5.218
  1074G12c H00219779   6.224   3.757   5.149
  1074G12c H00119780   6.160   3.722   5.319
  1074G12c O00019781   6.057   3.653   5.167
  1074G12c C01A19782   6.083   3.521   5.196
  1074G12c C02K19783   5.970   3.441   5.191
  1074G12c O00G19784   5.850   3.507   5.217
  1074G12c C02M19785   5.731   3.443   5.187
  1074G12c H01G19786   5.731   3.340   5.223
  1074G12c H01F19787   5.715   3.447   5.080
  1074G12c H01E19788   5.649   3.490   5.242
  1074G12c C02J19789   5.982   3.300   5.181
  1074G12c H01H19790   5.899   3.230   5.175
  1074G12c C02I19791   6.108   3.241   5.193
  1074G12c C02N19792   6.124   3.098   5.181
  1074G12c H01M19793   6.057   3.032   5.236
  1074G12c C02O19794   6.234   3.052   5.118
  1074G12c H01L19795   6.297   3.128   5.074
  1074G12c C02P19796   6.266   2.905   5.102
  1074G12c H01K19797   6.215   2.855   5.185
  1074G12c H01J19798   6.243   2.858   5.007
  1074G12c O00H19799   6.403   2.880   5.133
  1074G12c H01I19800   6.463   2.912   5.067
  1074G12c C02H19801   6.217   3.321   5.228
  1074G12c H01C19802   6.319   3.284   5.236
  1074G12c C02L19803   6.206   3.463   5.216
  1074G12c H01D19804   6.296   3.520   5.231
  1074G12c C01319805   5.904   4.132   5.295
  1074G12c H00019806   5.967   4.080   5.366
  1074G12c C01419807   5.841   4.251   5.328
  1074G12c C00F19808   5.843   4.316   5.455
  1074G12c C00H19809   5.715   4.501   5.360
  1074G12c C00I19810   5.662   4.630   5.371
  1074G12c C00J19811   5.579   4.676   5.266
  1074G12c C00Z19812   5.631   4.272   5.016
  1074G12c C00Y19813   5.609   4.199   4.898
  1074G12c H00619814   5.663   4.111   4.866
  1074G12c C00X19815   5.498   4.242   4.812
  1074G12c O00319816   5.486   4.178   4.693
  1074G12c C01B19817   5.377   4.096   4.700
  1074G12c H00919818   5.387   4.020   4.777
  1074G12c H00819819   5.370   4.042   4.606
  1074G12c H00719820   5.280   4.145   4.696
  1074G12c C00W19821   5.414   4.355   4.851
  1074G12c O00419822   5.305   4.388   4.780
  1074G12c C01C19823   5.207   4.449   4.845
  1074G12c H00A19824   5.114   4.444   4.791
  1074G12c C00P19825   5.236   4.545   4.949
  1074G12c C00O19826   5.133   4.630   5.011
  1074G12c C01D19827   5.000   4.585   4.993
  1074G12c H00S19828   4.974   4.494   4.942
  1074G12c C01E19829   4.886   4.635   5.060
  1074G12c O00819830   4.765   4.575   5.050
  1074G12c C01V19831   4.668   4.632   4.971
  1074G12c C01Z19832   4.542   4.543   4.958
  1074G12c H00R19833   4.525   4.511   4.855
  1074G12c H00Q19834   4.571   4.453   5.012
  1074G12c O00919835   4.427   4.609   5.009
  1074G12c H00P19836   4.361   4.542   5.020
  1074G12c C01W19837   4.672   4.753   4.907
  1074G12c H00O19838   4.768   4.802   4.904
  1074G12c C01X19839   4.564   4.820   4.817
  1074G12c H00N19840   4.463   4.817   4.859
  1074G12c H00M19841   4.578   4.928   4.827
  1074G12c C01Y19842   4.564   4.775   4.670
  1074G12c C02D19843   4.660   4.821   4.578
  1074G12c H01919844   4.749   4.878   4.599
  1074G12c C02C19845   4.647   4.786   4.441
  1074G12c H01A19846   4.718   4.837   4.377
  1074G12c C02B19847   4.546   4.697   4.400
  1074G12c O00E19848   4.528   4.667   4.269
  1074G12c H01B19849   4.444   4.625   4.267
  1074G12c C02F19850   4.450   4.648   4.496
  1074G12c O00F19851   4.347   4.568   4.448
  1074G12c C02G19852   4.249   4.535   4.543
  1074G12c H01719853   4.178   4.473   4.488
  1074G12c H01619854   4.203   4.627   4.580
  1074G12c H01519855   4.290   4.485   4.631
  1074G12c C02E19856   4.456   4.697   4.631
  1074G12c H01819857   4.389   4.661   4.709
  1074G12c C01F19858   4.912   4.746   5.145
  1074G12c C01G19859   4.822   4.783   5.252
  1074G12c H00L19860   4.724   4.738   5.260
  1074G12c C01H19861   4.872   4.868   5.360
  1074G12c H00B19862   4.823   4.875   5.456
  1074G12c C01I19863   5.005   4.928   5.349
  1074G12c C01U19864   5.034   4.820   5.137
  1074G12c C00S19865   5.551   4.594   5.158
  1074G12c C00K19866   5.471   4.761   5.283
  1074G12c C00N19867   5.151   4.747   5.086
  1074G12c C00019868   5.072   4.923   5.225
  1074G12c C01J19869   5.107   4.949   5.446
  1074G12c C01K19870   5.087   4.954   5.589
  1074G12c C01P19871   4.976   5.009   5.655
  1074G12c C01Q19872   4.900   5.100   5.581
  1074G12c H00G19873   4.943   5.184   5.529
  1074G12c C01R19874   4.767   5.108   5.599
  1074G12c H00F19875   4.726   5.035   5.668
  1074G12c C01S19876   4.684   5.225   5.551
  1074G12c H00E19877   4.617   5.265   5.627
  1074G12c H00D19878   4.750   5.304   5.517
  1074G12c O00519879   4.604   5.175   5.444
  1074G12c H00C19880   4.654   5.195   5.366
  1074G12c C01O19881   4.952   4.988   5.795
  1074G12c H00H19882   4.873   5.042   5.845
  1074G12c C01N19883   5.038   4.894   5.863
  1074G12c O00619884   5.019   4.842   5.986
  1074G12c C01T19885   4.907   4.904   6.064
  1074G12c H00K19886   4.904   5.013   6.068
  1074G12c H00J19887   4.915   4.879   6.169
  1074G12c H00I19888   4.812   4.865   6.027
  1074G12c C01M19889   5.150   4.843   5.795
  1074G12c C02019890   5.464   4.811   5.418
  1074G12c C02119891   5.562   4.785   5.518
  1074G12c C01L19892   5.183   4.883   5.661
  1074G12c O00719893   5.236   4.769   5.874
  1074G12c C02219894   5.531   4.764   5.650
  1074G12c C02319895   5.670   4.701   5.494
  1074G12c C00G19896   5.783   4.446   5.469
  1074G12c C00E19897   5.924   4.261   5.566
  1074G12c O00A19898   6.013   4.158   5.565
  1074G12c C02419899   5.961   4.037   5.612
  1074G12c H00V19900   5.864   4.015   5.569
  1074G12c H00U19901   5.954   4.028   5.720
  1074G12c H00T19902   6.037   3.965   5.578
  1084G12c C00D19903   2.067   5.333   2.930
  1084G12c O00B19904   2.053   5.203   2.973
  1084G12c C02519905   1.958   5.112   2.919
  1084G12c C02619906   2.016   4.993   2.843
  1084G12c H00Y19907   1.949   4.909   2.827
  1084G12c H00X19908   2.081   4.944   2.915
  1084G12c O00C19909   2.068   5.049   2.719
  1084G12c H00W19910   2.120   5.123   2.745
  1084G12c C02719911   1.825   5.124   2.946
  1084G12c O00D19912   1.787   5.224   3.035
  1084G12c H00Z19913   1.873   5.250   3.066
  1084G12c C02819914   1.719   5.050   2.878
  1084G12c C02919915   1.730   5.018   2.736
  1084G12c H01019916   1.813   5.051   2.676
  1084G12c C02T19917   1.625   4.938   2.678
  1084G12c H01O19918   1.622   4.903   2.576
  1084G12c C02S19919   1.514   4.908   2.754
  1084G12c O00J19920   1.418   4.839   2.692
  1084G12c H01P19921   1.339   4.825   2.741
  1084G12c C02R19922   1.494   4.936   2.890
  1084G12c O00I19923   1.375   4.907   2.957
  1084G12c C02Q19924   1.368   4.919   3.098
  1084G12c H01N19925   1.455   4.874   3.147
  1084G12c H01R19926   1.286   4.854   3.129
  1084G12c H01Q19927   1.363   5.020   3.140
  1084G12c C02A19928   1.600   5.010   2.947
  1084G12c H01119929   1.594   5.040   3.050
  1084G12c C00C19930   2.004   5.374   2.813
  1084G12c H01219931   1.943   5.306   2.755
  1084G12c C00B19932   2.027   5.508   2.770
  1084G12c C00A19933   1.986   5.568   2.644
  1084G12c C00919934   1.960   5.513   2.516
  1084G12c C00819935   1.969   5.386   2.462
  1084G12c H01319936   1.969   5.297   2.522
  1084G12c C00719937   2.001   5.372   2.324
  1084G12c H01419938   2.019   5.272   2.287
  1084G12c C00619939   2.014   5.481   2.235
  1084G12c C00519940   1.997   5.608   2.297
  1084G12c C00419941   2.025   5.728   2.229
  1084G12c C00319942   2.025   5.852   2.304
  1084G12c C00219943   2.062   5.970   2.229
  1084G12c C00119944   2.077   6.107   2.266
  1084G12c C00M19945   2.155   6.148   2.381
  1084G12c C00L19946   2.144   6.081   2.501
  1084G12c C00R19947   2.224   6.102   2.622
  1084G12c C00Q19948   2.341   6.177   2.653
  1084G12c C00V19949   2.392   6.133   2.783
  1084G12c C00U19950   2.351   6.026   2.867
  1084G12c C00T19951   2.246   5.950   2.823
  1084G12c C01619952   2.212   5.822   2.870
  1084G12c C01519953   2.280   5.781   2.985
  1084G12c C01019954   2.378   5.867   3.046
  1084G12c C01119955   2.436   5.831   3.170
  1084G12c H00519956   2.495   5.901   3.228
  1084G12c C01219957   2.401   5.706   3.229
  1084G12c C01719958   2.463   5.673   3.359
  1084G12c O00219959   2.591   5.718   3.379
  1084G12c H00419960   2.597   5.802   3.336
  1084G12c C01819961   2.397   5.605   3.457
  1084G12c O00119962   2.271   5.568   3.448
  1084G12c H00319963   2.238   5.549   3.534
  1084G12c C01919964   2.472   5.583   3.595
  1084G12c H00219965   2.572   5.545   3.572
  1084G12c H00119966   2.497   5.681   3.634
  1084G12c O00019967   2.400   5.501   3.685
  1084G12c C01A19968   2.452   5.464   3.802
  1084G12c C02K19969   2.391   5.352   3.865
  1084G12c O00G19970   2.304   5.266   3.796
  1084G12c C02M19971   2.283   5.140   3.853
  1084G12c H01G19972   2.226   5.155   3.944
  1084G12c H01F19973   2.375   5.083   3.865
  1084G12c H01E19974   2.208   5.092   3.791
  1084G12c C02J19975   2.438   5.317   3.997
  1084G12c H01H19976   2.389   5.240   4.055
  1084G12c C02I19977   2.556   5.369   4.053
  1084G12c C02N19978   2.602   5.312   4.178
  1084G12c H01M19979   2.533   5.260   4.243
  1084G12c C02O19980   2.728   5.337   4.217
  1084G12c H01L19981   2.787   5.395   4.148
  1084G12c C02P19982   2.798   5.277   4.335
  1084G12c H01K19983   2.873   5.351   4.364
  1084G12c H01J19984   2.735   5.241   4.417
  1084G12c O00H19985   2.873   5.169   4.286
  1084G12c H01I19986   2.822   5.130   4.217
  1084G12c C02H19987   2.615   5.475   3.983
  1084G12c H01C19988   2.703   5.521   4.025
  1084G12c C02L19989   2.568   5.521   3.858
  1084G12c H01D19990   2.629   5.595   3.807
  1084G12c C01319991   2.310   5.628   3.161
  1084G12c H00019992   2.297   5.537   3.219
  1084G12c C01419993   2.254   5.652   3.032
  1084G12c C00F19994   2.164   5.561   2.969
  1084G12c C00H19995   2.111   5.744   2.816
  1084G12c C00I19996   2.046   5.798   2.703
  1084G12c C00J19997   2.078   5.928   2.659
  1084G12c C00Z19998   2.416   5.987   2.977
  1084G12c C00Y19999   2.517   6.072   3.033
  1084G12c H00620000   2.564   6.070   3.130
  1084G12c C00X20001   2.561   6.184   2.955
  1084G12c O00320002   2.653   6.280   3.001
  1084G12c C01B20003   2.716   6.248   3.127
  1084G12c H00920004   2.780   6.160   3.113
  1084G12c H00820005   2.639   6.241   3.204
  1084G12c H00720006   2.792   6.316   3.163
  1084G12c C00W20007   2.504   6.204   2.829
  1084G12c O00420008   2.563   6.314   2.757
  1084G12c C01C20009   2.520   6.336   2.623
  1084G12c H00A20010   2.567   6.420   2.574
  1084G12c C00P20011   2.409   6.264   2.565
  1084G12c C00O20012   2.386   6.273   2.424
  1084G12c C01D20013   2.497   6.319   2.340
  1084G12c H00S20014   2.594   6.341   2.380
  1084G12c C01E20015   2.484   6.309   2.197
  1084G12c O00820016   2.589   6.342   2.116
  1084G12c C01V20017   2.623   6.478   2.124
  1084G12c C01Z20018   2.545   0.041   2.027
  1084G12c H00R20019   2.437   0.023   2.023
  1084G12c H00Q20020   2.562   0.147   2.048
  1084G12c O00920021   2.604   0.011   1.899
  1084G12c H00P20022   2.647   6.448   1.907
  1084G12c C01W20023   2.711   6.515   2.217
  1084G12c H00O20024   2.780   6.455   2.275
  1084G12c C01X20025   2.737   0.142   2.252
  1084G12c H00N20026   2.842   0.151   2.278
  1084G12c H00M20027   2.731   0.208   2.166
  1084G12c C01Y20028   2.653   0.175   2.371
  1084G12c C02D20029   2.721   0.212   2.489
  1084G12c H01920030   2.827   0.232   2.493
  1084G12c C02C20031   2.639   0.234   2.604
  1084G12c H01A20032   2.685   0.269   2.695
  1084G12c C02B20033   2.500   0.209   2.612
  1084G12c O00E20034   2.428   0.230   2.730
  1084G12c H01B20035   2.337   0.243   2.708
  1084G12c C02F20036   2.432   0.181   2.491
  1084G12c O00F20037   2.303   0.145   2.494
  1084G12c C02G20038   2.233   0.110   2.373
  1084G12c H01720039   2.127   0.111   2.395
  1084G12c H01620040   2.259   0.017   2.323
  1084G12c H01520041   2.252   0.187   2.298
  1084G12c C02E20042   2.511   0.160   2.377
  1084G12c H01820043   2.476   0.110   2.287
  1084G12c C01F20044   2.369   6.264   2.132
  1084G12c C01G20045   2.368   6.212   1.995
  1084G12c H00L20046   2.452   6.219   1.927
  1084G12c C01H20047   2.274   6.110   1.960
  1084G12c H00B20048   2.309   6.041   1.884
  1084G12c C01I20049   2.171   6.081   2.060
  1084G12c C01U20050   2.255   6.243   2.207
  1084G12c C00S20051   2.178   6.004   2.710
  1084G12c C00K20052   2.069   5.963   2.523
  1084G12c C00N20053   2.270   6.230   2.348
  1084G12c C00020054   2.141   6.178   2.159
  1084G12c C01J20055   2.100   5.956   2.095
  1084G12c C01K20056   2.091   5.836   2.014
  1084G12c C01P20057   2.098   5.814   1.873
  1084G12c C01Q20058   2.105   5.929   1.787
  1084G12c H00G20059   2.052   6.022   1.803
  1084G12c C01R20060   2.169   5.922   1.668
  1084G12c H00F20061   2.211   5.833   1.622
  1084G12c C01S20062   2.172   6.031   1.565
  1084G12c H00E20063   2.154   6.125   1.617
  1084G12c H00D20064   2.265   6.040   1.509
  1084G12c O00520065   2.059   5.996   1.492
  1084G12c H00C20066   1.984   6.002   1.549
  1084G12c C01O20067   2.083   5.690   1.817
  1084G12c H00H20068   2.091   5.674   1.710
  1084G12c C01N20069   2.070   5.574   1.890
  1084G12c O00620070   2.050   5.448   1.834
  1084G12c C01T20071   2.068   5.413   1.694
  1084G12c H00K20072   1.982   5.449   1.638
  1084G12c H00J20073   2.159   5.451   1.647
  1084G12c H00I20074   2.059   5.305   1.686
  1084G12c C01M20075   2.064   5.591   2.031
  1084G12c C02020076   2.002   5.864   2.443
  1084G12c C02120077   1.942   5.746   2.495
  1084G12c C01L20078   2.062   5.723   2.096
  1084G12c O00720079   2.042   5.477   2.105
  1084G12c C02220080   1.964   5.625   2.431
  1084G12c C02320081   1.965   5.708   2.634
  1084G12c C00G20082   2.097   5.602   2.851
  1084G12c C00E20083   2.155   5.421   3.000
  1084G12c O00A20084   2.212   5.359   3.114
  1084G12c C02420085   2.321   5.274   3.088
  1084G12c H00V20086   2.406   5.313   3.033
  1084G12c H00U20087   2.298   5.186   3.028
  1084G12c H00T20088   2.357   5.225   3.179
  1094G12c C00D20089   3.802   5.141   2.943
  1094G12c O00B20090   3.673   5.100   2.928
  1094G12c C02520091   3.568   5.188   2.904
  1094G12c C02620092   3.481   5.212   3.026
  1094G12c H00Y20093   3.390   5.265   2.997
  1094G12c H00X20094   3.535   5.263   3.106
  1094G12c O00C20095   3.421   5.094   3.064
  1094G12c H00W20096   3.352   5.082   3.000
  1094G12c C02720097   3.548   5.239   2.780
  1094G12c O00D20098   3.629   5.200   2.675
  1094G12c H00Z20099   3.642   5.273   2.616
  1094G12c C02820100   3.460   5.353   2.755
  1094G12c C02920101   3.444   5.463   2.850
  1094G12c H01020102   3.501   5.477   2.941
  1094G12c C02T20103   3.349   5.563   2.817
  1094G12c H01O20104   3.336   5.637   2.894
  1094G12c C02S20105   3.271   5.566   2.698
  1094G12c O00J20106   3.177   5.663   2.676
  1094G12c H01P20107   3.177   5.682   2.583
  1094G12c C02R20108   3.295   5.469   2.600
  1094G12c O00I20109   3.248   5.488   2.474
  1094G12c C02Q20110   3.282   5.396   2.377
  1094G12c H01N20111   3.244   5.295   2.395
  1094G12c H01R20112   3.388   5.391   2.353
  1094G12c H01Q20113   3.247   5.441   2.284
  1094G12c C02A20114   3.386   5.367   2.636
  1094G12c H01120115   3.418   5.301   2.556
  1094G12c C00C20116   3.849   5.272   2.917
  1094G12c H01220117   3.776   5.348   2.898
  1094G12c C00B20118   3.986   5.304   2.928
  1094G12c C00A20119   4.046   5.430   2.897
  1094G12c C00920120   4.007   5.527   2.801
  1094G12c C00820121   3.896   5.536   2.711
  1094G12c H01320122   3.811   5.469   2.717
  1094G12c C00720123   3.913   5.619   2.595
  1094G12c H01420124   3.834   5.623   2.521
  1094G12c C00620125   4.041   5.678   2.565
  1094G12c C00520126   4.140   5.662   2.658
  1094G12c C00420127   4.274   5.694   2.621
  1094G12c C00320128   4.380   5.650   2.708
  1094G12c C00220129   4.513   5.669   2.652
  1094G12c C00120130   4.642   5.641   2.699
  1094G12c C00M20131   4.675   5.508   2.753
  1094G12c C00L20132   4.602   5.450   2.858
  1094G12c C00R20133   4.608   5.308   2.888
  1094G12c C00Q20134   4.698   5.203   2.842
  1094G12c C00V20135   4.656   5.075   2.886
  1094G12c C00U20136   4.534   5.047   2.951
  1094G12c C00T20137   4.443   5.147   2.975
  1094G12c C01620138   4.307   5.130   2.986
  1094G12c C01520139   4.260   4.999   2.998
  1094G12c C01020140   4.353   4.893   2.998
  1094G12c C01120141   4.306   4.765   3.029
  1094G12c H00520142   4.372   4.681   3.039
  1094G12c C01220143   4.171   4.737   3.053
  1094G12c C01720144   4.127   4.601   3.074
  1094G12c O00220145   4.033   4.558   2.986
  1094G12c H00420146   4.017   4.467   3.009
  1094G12c C01820147   4.180   4.521   3.166
  1094G12c O00120148   4.273   4.570   3.256
  1094G12c H00320149   4.279   4.664   3.259
  1094G12c C01920150   4.152   4.376   3.173
  1094G12c H00220151   4.224   4.333   3.103
  1094G12c H00120152   4.184   4.337   3.270
  1094G12c O00020153   4.033   4.334   3.116
  1094G12c C01A20154   3.923   4.342   3.199
  1094G12c C02K20155   3.832   4.235   3.201
  1094G12c O00G20156   3.858   4.119   3.133
  1094G12c C02M20157   3.825   3.996   3.197
  1094G12c H01G20158   3.719   3.973   3.203
  1094G12c H01F20159   3.856   4.006   3.301
  1094G12c H01E20160   3.879   3.915   3.147
  1094G12c C02J20161   3.715   4.241   3.280
  1094G12c H01H20162   3.646   4.158   3.286
  1094G12c C02I20163   3.680   4.349   3.362
  1094G12c C02N20164   3.550   4.351   3.430
  1094G12c H01M20165   3.464   4.297   3.394
  1094G12c C02O20166   3.526   4.443   3.523
  1094G12c H01L20167   3.614   4.481   3.571
  1094G12c C02P20168   3.389   4.479   3.572
  1094G12c H01K20169   3.311   4.415   3.531
  1094G12c H01J20170   3.374   4.462   3.679
  1094G12c O00H20171   3.366   4.612   3.548
  1094G12c H01I20172   3.279   4.639   3.575
  1094G12c C02H20173   3.772   4.458   3.362
  1094G12c H01C20174   3.745   4.549   3.414
  1094G12c C02L20175   3.893   4.454   3.287
  1094G12c H01D20176   3.964   4.536   3.287
  1094G12c C01320177   4.085   4.842   3.044
  1094G12c H00020178   3.985   4.820   3.080
  1094G12c C01420179   4.123   4.973   3.018
  1094G12c C00F20180   4.033   5.075   2.997
  1094G12c C00H20181   4.215   5.233   2.984
  1094G12c C00I20182   4.264   5.363   2.967
  1094G12c C00J20183   4.404   5.377   2.956
  1094G12c C00Z20184   4.492   4.918   2.981
  1094G12c C00Y20185   4.586   4.814   2.969
  1094G12c H00620186   4.566   4.711   2.995
  1094G12c C00X20187   4.714   4.841   2.915
  1094G12c O00320188   4.812   4.749   2.901
  1094G12c C01B20189   4.794   4.607   2.915
  1094G12c H00920190   4.712   4.563   2.858
  1094G12c H00820191   4.783   4.582   3.020
  1094G12c H00720192   4.883   4.560   2.872
  1094G12c C00W20193   4.751   4.969   2.869
  1094G12c O00420194   4.881   4.980   2.826
  1094G12c C01C20195   4.911   5.099   2.759
  1094G12c H00A20196   5.017   5.112   2.741
  1094G12c C00P20197   4.814   5.212   2.753
  1094G12c C00O20198   4.840   5.323   2.664
  1094G12c C01D20199   4.933   5.304   2.561
  1094G12c H00S20200   4.994   5.216   2.548
  1094G12c C01E20201   4.940   5.392   2.449
  1094G12c O00820202   5.003   5.358   2.330
  1094G12c C01V20203   5.006   5.227   2.289
  1094G12c C01Z20204   4.881   5.176   2.218
  1094G12c H00R20205   4.902   5.077   2.177
  1094G12c H00Q20206   4.798   5.177   2.288
  1094G12c O00920207   4.856   5.270   2.118
  1094G12c H00P20208   4.942   5.284   2.083
  1094G12c C01W20209   5.116   5.153   2.312
  1094G12c H00O20210   5.197   5.203   2.363
  1094G12c C01X20211   5.138   5.010   2.272
  1094G12c H00N20212   5.064   4.970   2.203
  1094G12c H00M20213   5.235   4.994   2.225
  1094G12c C01Y20214   5.124   4.940   2.402
  1094G12c C02D20215   5.234   4.892   2.478
  1094G12c H01920216   5.334   4.893   2.436
  1094G12c C02C20217   5.213   4.836   2.606
  1094G12c H01A20218   5.291   4.800   2.670
  1094G12c C02B20219   5.081   4.800   2.643
  1094G12c O00E20220   5.059   4.734   2.760
  1094G12c H01B20221   4.971   4.748   2.793
  1094G12c C02F20222   4.970   4.840   2.570
  1094G12c O00F20223   4.852   4.809   2.617
  1094G12c C02G20224   4.735   4.838   2.543
  1094G12c H01720225   4.715   4.944   2.527
  1094G12c H01620226   4.645   4.795   2.588
  1094G12c H01520227   4.743   4.786   2.448
  1094G12c C02E20228   4.994   4.908   2.446
  1094G12c H01820229   4.918   4.933   2.374
  1094G12c C01F20230   4.858   5.512   2.447
  1094G12c C01G20231   4.817   5.590   2.340
  1094G12c H00L20232   4.841   5.558   2.239
  1094G12c C01H20233   4.717   5.694   2.355
  1094G12c H00B20234   4.666   5.722   2.264
  1094G12c C01I20235   4.666   5.715   2.483
  1094G12c C01U20236   4.804   5.553   2.571
  1094G12c C00S20237   4.492   5.272   2.950
  1094G12c C00K20238   4.466   5.483   2.879
  1094G12c C00N20239   4.781   5.453   2.670
  1094G12c C00020240   4.732   5.670   2.598
  1094G12c C01J20241   4.528   5.735   2.522
  1094G12c C01K20242   4.425   5.792   2.438
  1094G12c C01P20243   4.428   5.869   2.318
  1094G12c C01Q20244   4.555   5.933   2.281
  1094G12c H00G20245   4.631   5.952   2.356
  1094G12c C01R20246   4.581   5.960   2.152
  1094G12c H00F20247   4.519   5.939   2.066
  1094G12c C01S20248   4.715   6.013   2.111
  1094G12c H00E20249   4.793   5.948   2.150
  1094G12c H00D20250   4.727   6.015   2.003
  1094G12c O00520251   4.725   6.152   2.149
  1094G12c H00C20252   4.650   6.194   2.110
  1094G12c C01O20253   4.315   5.892   2.242
  1094G12c H00H20254   4.307   5.947   2.150
  1094G12c C01N20255   4.193   5.845   2.290
  1094G12c O00620256   4.072   5.862   2.219
  1094G12c C01T20257   4.059   5.977   2.132
  1094G12c H00K20258   4.104   5.957   2.034
  1094G12c H00J20259   4.100   6.073   2.165
  1094G12c H00I20260   3.952   5.986   2.111
  1094G12c C01M20261   4.183   5.773   2.408
  1094G12c C02020262   4.364   5.573   2.826
  1094G12c C02120263   4.225   5.573   2.869
  1094G12c C01L20264   4.301   5.746   2.491
  1094G12c O00720265   4.056   5.732   2.445
  1094G12c C02220266   4.122   5.609   2.787
  1094G12c C02320267   4.174   5.462   2.942
  1094G12c C00G20268   4.075   5.203   2.971
  1094G12c C00E20269   3.896   5.042   2.970
  1094G12c O00A20270   3.842   4.916   2.944
  1094G12c C02420271   3.873   4.877   2.810
  1094G12c H00V20272   3.884   4.952   2.732
  1094G12c H00U20273   3.801   4.802   2.779
  1094G12c H00T20274   3.975   4.839   2.801
  1104G12c C00D20275   6.514   2.301   8.082
  1104G12c O00B20276   0.121   2.353   8.098
  1104G12c C02520277   0.159   2.397   8.223
  1104G12c C02620278   0.182   2.544   8.225
  1104G12c H00Y20279   0.224   2.579   8.131
  1104G12c H00X20280   0.252   2.564   8.306
  1104G12c O00C20281   0.061   2.609   8.246
  1104G12c H00W20282   0.015   2.610   8.163
  1104G12c C02720283   0.172   2.308   8.327
  1104G12c O00D20284   0.153   2.177   8.308
  1104G12c H00Z20285   0.118   2.169   8.220
  1104G12c C02820286   0.180   2.349   8.463
  1104G12c C02920287   0.241   2.264   8.558
  1104G12c H01020288   0.287   2.172   8.527
  1104G12c C02T20289   0.235   2.281   8.697
  1104G12c H01O20290   0.289   2.216   8.765
  1104G12c C02S20291   0.161   2.389   8.746
  1104G12c O00J20292   0.159   2.417   8.876
  1104G12c H01P20293   0.191   2.353   8.938
  1104G12c C02R20294   0.094   2.478   8.655
  1104G12c O00I20295   0.016   2.587   8.703
  1104G12c C02Q20296   6.464   2.665   8.611
  1104G12c H01N20297   6.521   2.704   8.526
  1104G12c H01R20298   6.401   2.745   8.650
  1104G12c H01Q20299   6.387   2.605   8.564
  1104G12c C02A20300   0.102   2.453   8.519
  1104G12c H01120301   0.048   2.518   8.451
  1104G12c C00C20302   6.402   2.354   8.143
  1104G12c H01220303   6.419   2.435   8.212
  1104G12c C00B20304   6.271   2.325   8.105
  1104G12c C00A20305   6.146   2.384   8.142
  1104G12c C00920306   6.105   2.452   8.265
  1104G12c C00820307   6.170   2.483   8.387
  1104G12c H01320308   6.277   2.471   8.383
  1104G12c C00720309   6.087   2.511   8.501
  1104G12c H01420310   6.141   2.554   8.585
  1104G12c C00620311   5.944   2.500   8.496
  1104G12c C00520312   5.892   2.459   8.375
  1104G12c C00420313   5.760   2.404   8.367
  1104G12c C00320314   5.716   2.336   8.255
  1104G12c C00220315   5.580   2.286   8.255
  1104G12c C00120316   5.503   2.209   8.154
  1104G12c C00M20317   5.551   2.101   8.077
  1104G12c C00L20318   5.677   2.104   8.015
  1104G12c C00R20319   5.754   1.995   7.966
  1104G12c C00Q20320   5.732   1.849   7.964
  1104G12c C00V20321   5.845   1.774   7.931
  1104G12c C00U20322   5.974   1.832   7.914
  1104G12c C00T20323   5.995   1.966   7.927
  1104G12c C01620324   6.114   2.033   7.932
  1104G12c C01520325   6.224   1.961   7.894
  1104G12c C01020326   6.208   1.825   7.855
  1104G12c C01120327   6.310   1.760   7.790
  1104G12c H00520328   6.306   1.658   7.753
  1104G12c C01220329   6.431   1.834   7.764
  1104G12c C01720330   0.013   1.773   7.677
  1104G12c O00220331   6.501   1.687   7.577
  1104G12c H00420332   6.408   1.672   7.569
  1104G12c C01820333   0.144   1.800   7.698
  1104G12c O00120334   0.195   1.856   7.816
  1104G12c H00320335   0.285   1.829   7.823
  1104G12c C01920336   0.255   1.760   7.609
  1104G12c H00220337   0.250   1.659   7.568
  1104G12c H00120338   0.262   1.833   7.528
  1104G12c O00020339   0.379   1.762   7.679
  1104G12c C01A20340   0.409   1.644   7.748
  1104G12c C02K20341   0.539   1.630   7.807
  1104G12c O00G20342   0.625   1.732   7.782
  1104G12c C02M20343   0.731   1.749   7.875
  1104G12c H01G20344   0.785   1.841   7.851
  1104G12c H01F20345   0.810   1.674   7.878
  1104G12c H01E20346   0.691   1.766   7.974
  1104G12c C02J20347   0.564   1.510   7.879
  1104G12c H01H20348   0.662   1.494   7.923
  1104G12c C02I20349   0.459   1.426   7.925
  1104G12c C02N20350   0.497   1.325   8.026
  1104G12c H01M20351   0.604   1.320   8.046
  1104G12c C02O20352   0.407   1.239   8.092
  1104G12c H01L20353   0.302   1.252   8.072
  1104G12c C02P20354   0.452   1.138   8.189
  1104G12c H01K20355   0.558   1.146   8.213
  1104G12c H01J20356   0.390   1.145   8.279
  1104G12c O00H20357   0.438   1.016   8.122
  1104G12c H01I20358   0.357   1.030   8.075
  1104G12c C02H20359   0.328   1.446   7.869
  1104G12c H01C20360   0.250   1.374   7.887
  1104G12c C02L20361   0.312   1.546   7.778
  1104G12c H01D20362   0.210   1.548   7.744
  1104G12c C01320363   6.446   1.964   7.814
  1104G12c H00020364   0.001   2.024   7.766
  1104G12c C01420365   6.344   2.028   7.882
  1104G12c C00F20366   6.365   2.149   7.959
  1104G12c C00H20367   6.129   2.168   7.975
  1104G12c C00I20368   6.009   2.236   7.993
  1104G12c C00J20369   5.888   2.180   7.962
  1104G12c C00Z20370   6.087   1.755   7.884
  1104G12c C00Y20371   6.072   1.620   7.858
  1104G12c H00620372   6.151   1.554   7.826
  1104G12c C00X20373   5.945   1.553   7.879
  1104G12c O00320374   5.921   1.415   7.853
  1104G12c C01B20375   5.986   1.368   7.739
  1104G12c H00920376   5.935   1.415   7.655
  1104G12c H00820377   5.959   1.263   7.729
  1104G12c H00720378   6.094   1.367   7.725
  1104G12c C00W20379   5.832   1.631   7.918
  1104G12c O00420380   5.710   1.565   7.935
  1104G12c C01C20381   5.604   1.637   7.977
  1104G12c H00A20382   5.509   1.586   7.972
  1104G12c C00P20383   5.617   1.775   8.009
  1104G12c C00O20384   5.511   1.837   8.086
  1104G12c C01D20385   5.415   1.753   8.155
  1104G12c H00S20386   5.420   1.646   8.142
  1104G12c C01E20387   5.320   1.796   8.250
  1104G12c O00820388   5.250   1.701   8.324
  1104G12c C01V20389   5.155   1.631   8.249
  1104G12c C01Z20390   5.031   1.705   8.208
  1104G12c H00R20391   5.067   1.800   8.170
  1104G12c H00Q20392   4.970   1.656   8.131
  1104G12c O00920393   4.946   1.727   8.319
  1104G12c H00P20394   4.915   1.643   8.350
  1104G12c C01W20395   5.179   1.514   8.196
  1104G12c H00O20396   5.273   1.463   8.212
  1104G12c C01X20397   5.101   1.425   8.102
  1104G12c H00N20398   5.078   1.329   8.148
  1104G12c H00M20399   5.019   1.472   8.048
  1104G12c C01Y20400   5.189   1.400   7.983
  1104G12c C02D20401   5.197   1.275   7.926
  1104G12c H01920402   5.145   1.198   7.980
  1104G12c C02C20403   5.267   1.254   7.805
  1104G12c H01A20404   5.273   1.150   7.778
  1104G12c C02B20405   5.325   1.360   7.734
  1104G12c O00E20406   5.396   1.336   7.623
  1104G12c H01B20407   5.455   1.407   7.602
  1104G12c C02F20408   5.314   1.490   7.792
  1104G12c O00F20409   5.376   1.595   7.727
  1104G12c C02G20410   5.293   1.639   7.619
  1104G12c H01720411   5.196   1.666   7.661
  1104G12c H01620412   5.280   1.568   7.538
  1104G12c H01520413   5.333   1.731   7.576
  1104G12c C02E20414   5.251   1.503   7.915
  1104G12c H01820415   5.249   1.608   7.938
  1104G12c C01F20416   5.326   1.930   8.292
  1104G12c C01G20417   5.283   1.980   8.420
  1104G12c H00L20418   5.222   1.914   8.479
  1104G12c C01H20419   5.332   2.111   8.461
  1104G12c H00B20420   5.314   2.139   8.564
  1104G12c C01I20421   5.394   2.194   8.364
  1104G12c C01U20422   5.391   2.019   8.205
  1104G12c C00S20423   5.878   2.046   7.928
  1104G12c C00K20424   5.766   2.214   8.038
  1104G12c C00N20425   5.490   1.976   8.115
  1104G12c C00020426   5.393   2.160   8.230
  1104G12c C01J20427   5.496   2.295   8.371
  1104G12c C01K20428   5.539   2.367   8.490
  1104G12c C01P20429   5.464   2.408   8.605
  1104G12c C01Q20430   5.322   2.391   8.606
  1104G12c H00G20431   5.271   2.397   8.511
  1104G12c C01R20432   5.259   2.373   8.724
  1104G12c H00F20433   5.313   2.386   8.816
  1104G12c C01S20434   5.106   2.364   8.741
  1104G12c H00E20435   5.086   2.284   8.813
  1104G12c H00D20436   5.062   2.451   8.790
  1104G12c O00520437   5.043   2.337   8.616
  1104G12c H00C20438   5.062   2.248   8.591
  1104G12c C01O20439   5.519   2.489   8.704
  1104G12c H00H20440   5.446   2.526   8.773
  1104G12c C01N20441   5.653   2.525   8.705
  1104G12c O00620442   5.703   2.616   8.790
  1104G12c C01T20443   5.625   2.713   8.849
  1104G12c H00K20444   5.562   2.751   8.769
  1104G12c H00J20445   5.685   2.790   8.898
  1104G12c H00I20446   5.550   2.680   8.921
  1104G12c C01M20447   5.733   2.487   8.592
  1104G12c C02020448   5.791   2.317   8.135
  1104G12c C02120449   5.908   2.398   8.145
  1104G12c C01L20450   5.680   2.412   8.482
  1104G12c O00720451   5.864   2.522   8.601
  1104G12c C02220452   5.963   2.455   8.256
  1104G12c C02320453   6.022   2.356   8.068
  1104G12c C00G20454   6.256   2.220   8.008
  1104G12c C00E20455   6.494   2.198   7.989
  1104G12c O00A20456   0.083   2.133   7.940
  1104G12c C02420457   0.137   2.201   7.829
  1104G12c H00V20458   0.064   2.237   7.757
  1104G12c H00U20459   0.219   2.146   7.784
  1104G12c H00T20460   0.180   2.296   7.861
  1114G12c C00D20461   6.274   1.666   3.285
  1114G12c O00B20462   6.269   1.804   3.285
  1114G12c C02520463   6.148   1.874   3.292
  1114G12c C02620464   6.114   1.933   3.160
  1114G12c H00Y20465   6.014   1.977   3.150
  1114G12c H00X20466   6.120   1.858   3.081
  1114G12c O00C20467   6.206   2.029   3.124
  1114G12c H00W20468   6.158   2.107   3.145
  1114G12c C02720469   6.075   1.872   3.404
  1114G12c O00D20470   6.115   1.795   3.511
  1114G12c H00Z20471   6.190   1.755   3.470
  1114G12c C02820472   5.961   1.959   3.417
  1114G12c C02920473   5.977   2.102   3.398
  1114G12c H01020474   6.071   2.153   3.382
  1114G12c C02T20475   5.864   2.188   3.397
  1114G12c H01O20476   5.878   2.289   3.365
  1114G12c C02S20477   5.737   2.139   3.425
  1114G12c O00J20478   5.625   2.223   3.418
  1114G12c H01P20479   5.548   2.170   3.429
  1114G12c C02R20480   5.721   2.001   3.459
  1114G12c O00I20481   5.596   1.961   3.494
  1114G12c C02Q20482   5.569   1.826   3.503
  1114G12c H01N20483   5.621   1.779   3.587
  1114G12c H01R20484   5.601   1.770   3.414
  1114G12c H01Q20485   5.464   1.801   3.515
  1114G12c C02A20486   5.833   1.912   3.452
  1114G12c H01120487   5.824   1.808   3.479
  1114G12c C00C20488   6.395   1.606   3.316
  1114G12c H01220489   6.483   1.666   3.334
  1114G12c C00B20490   6.416   1.471   3.325
  1114G12c C00A20491   0.021   1.404   3.317
  1114G12c C00920492   0.141   1.444   3.244
  1114G12c C00820493   0.183   1.561   3.171
  1114G12c H01320494   0.123   1.650   3.164
  1114G12c C00720495   0.292   1.545   3.081
  1114G12c H01420496   0.322   1.631   3.023
  1114G12c C00620497   0.359   1.420   3.053
  1114G12c C00520498   0.305   1.311   3.121
  1114G12c C00420499   0.333   1.176   3.091
  1114G12c C00320500   0.259   1.067   3.149
  1114G12c C00220501   0.286   0.935   3.099
  1114G12c C00120502   0.229   0.804   3.120
  1114G12c C00M20503   0.087   0.780   3.143
  1114G12c C00L20504   0.010   0.861   3.235
  1114G12c C00R20505   6.386   0.851   3.254
  1114G12c C00Q20506   6.288   0.769   3.186
  1114G12c C00V20507   6.153   0.813   3.210
  1114G12c C00U20508   6.121   0.939   3.254
  1114G12c C00T20509   6.218   1.024   3.301
  1114G12c C01620510   6.203   1.161   3.322
  1114G12c C01520511   6.077   1.224   3.305
  1114G12c C01020512   5.972   1.133   3.277
  1114G12c C01120513   5.845   1.186   3.283
  1114G12c H00520514   5.760   1.127   3.252
  1114G12c C01220515   5.816   1.320   3.311
  1114G12c C01720516   5.679   1.355   3.327
  1114G12c O00220517   5.596   1.266   3.392
  1114G12c H00420518   5.519   1.314   3.418
  1114G12c C01820519   5.629   1.467   3.272
  1114G12c O00120520   5.711   1.556   3.214
  1114G12c H00320521   5.648   1.603   3.162
  1114G12c C01920522   5.485   1.510   3.268
  1114G12c H00220523   5.410   1.439   3.305
  1114G12c H00120524   5.474   1.593   3.338
  1114G12c O00020525   5.474   1.555   3.135
  1114G12c C01A20526   5.364   1.637   3.108
  1114G12c C02K20527   5.375   1.776   3.096
  1114G12c O00G20528   5.501   1.824   3.128
  1114G12c C02M20529   5.527   1.963   3.124
  1114G12c H01G20530   5.474   2.021   3.200
  1114G12c H01F20531   5.495   2.005   3.028
  1114G12c H01E20532   5.634   1.978   3.139
  1114G12c C02J20533   5.260   1.853   3.061
  1114G12c H01H20534   5.265   1.961   3.064
  1114G12c C02I20535   5.139   1.791   3.023
  1114G12c C02N20536   5.012   1.852   2.986
  1114G12c H01M20537   4.927   1.795   2.951
  1114G12c C02O20538   5.000   1.984   2.982
  1114G12c H01L20539   5.086   2.045   3.004
  1114G12c C02P20540   4.871   2.065   2.959
  1114G12c H01K20541   4.849   2.113   3.054
  1114G12c H01J20542   4.888   2.146   2.888
  1114G12c O00H20543   4.764   1.992   2.907
  1114G12c H01I20544   4.711   1.955   2.976
  1114G12c C02H20545   5.130   1.655   3.036
  1114G12c H01C20546   5.035   1.603   3.031
  1114G12c C02L20547   5.242   1.576   3.070
  1114G12c H01D20548   5.240   1.468   3.065
  1114G12c C01320549   5.933   1.406   3.325
  1114G12c H00020550   5.917   1.509   3.350
  1114G12c C01420551   6.065   1.359   3.316
  1114G12c C00F20552   6.176   1.442   3.308
  1114G12c C00H20553   6.317   1.244   3.342
  1114G12c C00I20554   6.448   1.185   3.348
  1114G12c C00J20555   6.452   1.048   3.333
  1114G12c C00Z20556   5.993   1.001   3.244
  1114G12c C00Y20557   5.889   0.914   3.214
  1114G12c H00620558   5.786   0.946   3.211
  1114G12c C00X20559   5.917   0.777   3.177
  1114G12c O00320560   5.822   0.678   3.155
  1114G12c C01B20561   5.688   0.708   3.169
  1114G12c H00920562   5.651   0.734   3.268
  1114G12c H00820563   5.621   0.631   3.132
  1114G12c H00720564   5.669   0.798   3.111
  1114G12c C00W20565   6.046   0.729   3.165
  1114G12c O00420566   6.060   0.608   3.103
  1114G12c C01C20567   6.184   0.595   3.035
  1114G12c H00A20568   6.196   0.494   2.998
  1114G12c C00P20569   6.301   0.670   3.083
  1114G12c C00O20570   6.419   0.666   3.000
  1114G12c C01D20571   6.403   0.617   2.866
  1114G12c H00S20572   6.305   0.588   2.832
  1114G12c C01E20573   6.511   0.619   2.766
  1114G12c O00820574   6.478   0.618   2.632
  1114G12c C01V20575   6.399   0.724   2.588
  1114G12c C01Z20576   6.461   0.861   2.588
  1114G12c H00R20577   0.048   0.853   2.604
  1114G12c H00Q20578   6.443   0.911   2.493
  1114G12c O00920579   6.409   0.927   2.698
  1114G12c H00P20580   6.366   0.852   2.737
  1114G12c C01W20581   6.270   0.701   2.558
  1114G12c H00O20582   6.226   0.604   2.575
  1114G12c C01X20583   6.168   0.795   2.510
  1114G12c H00N20584   6.220   0.870   2.449
  1114G12c H00M20585   6.099   0.744   2.442
  1114G12c C01Y20586   6.086   0.870   2.609
  1114G12c C02D20587   6.047   0.795   2.727
  1114G12c H01920588   6.084   0.694   2.737
  1114G12c C02C20589   5.977   0.864   2.826
  1114G12c H01A20590   5.939   0.814   2.914
  1114G12c C02B20591   5.958   1.000   2.817
  1114G12c O00E20592   5.898   1.067   2.921
  1114G12c H01B20593   5.917   1.160   2.913
  1114G12c C02F20594   5.996   1.077   2.702
  1114G12c O00F20595   5.956   1.213   2.699
  1114G12c C02G20596   5.970   1.287   2.580
  1114G12c H01720597   6.076   1.291   2.552
  1114G12c H01620598   5.936   1.389   2.593
  1114G12c H01520599   5.914   1.242   2.498
  1114G12c C02E20600   6.053   1.008   2.594
  1114G12c H01820601   6.080   1.059   2.502
  1114G12c C01F20602   0.117   0.661   2.810
  1114G12c C01G20603   0.225   0.701   2.728
  1114G12c H00L20604   0.218   0.687   2.622
  1114G12c C01H20605   0.340   0.779   2.781
  1114G12c H00B20606   0.408   0.829   2.713
  1114G12c C01I20607   0.349   0.802   2.918
  1114G12c C01U20608   0.142   0.680   2.949
  1114G12c C00S20609   6.344   0.968   3.324
  1114G12c C00K20610   0.049   0.993   3.273
  1114G12c C00N20611   0.031   0.697   3.039
  1114G12c C00020612   0.265   0.733   3.005
  1114G12c C01J20613   0.378   0.927   2.992
  1114G12c C01K20614   0.464   1.032   2.938
  1114G12c C01P20615   0.573   1.024   2.841
  1114G12c C01Q20616   0.628   0.894   2.808
  1114G12c H00G20617   0.635   0.819   2.885
  1114G12c C01R20618   0.687   0.864   2.692
  1114G12c H00F20619   0.690   0.943   2.618
  1114G12c C01S20620   0.768   0.735   2.664
  1114G12c H00E20621   0.772   0.726   2.555
  1114G12c H00D20622   0.873   0.756   2.681
  1114G12c O00520623   0.717   0.617   2.733
  1114G12c H00C20624   0.755   0.538   2.698
  1114G12c C01O20625   0.634   1.141   2.792
  1114G12c H00H20626   0.707   1.133   2.714
  1114G12c C01N20627   0.594   1.267   2.842
  1114G12c O00620628   0.651   1.384   2.797
  1114G12c C01T20629   0.756   1.386   2.708
  1114G12c H00K20630   0.853   1.359   2.749
  1114G12c H00J20631   0.759   1.489   2.672
  1114G12c H00I20632   0.744   1.313   2.628
  1114G12c C01M20633   0.494   1.275   2.937
  1114G12c C02020634   0.160   1.084   3.246
  1114G12c C02120635   0.160   1.216   3.296
  1114G12c C01L20636   0.433   1.159   2.993
  1114G12c O00720637   0.465   1.402   2.972
  1114G12c C02220638   0.221   1.330   3.235
  1114G12c C02320639   0.037   1.268   3.346
  1114G12c C00G20640   6.304   1.386   3.330
  1114G12c C00E20641   6.165   1.581   3.269
  1114G12c O00A20642   6.048   1.632   3.216
  1114G12c C02420643   6.032   1.585   3.080
  1114G12c H00V20644   6.038   1.664   3.005
  1114G12c H00U20645   5.943   1.523   3.072
  1114G12c H00T20646   6.116   1.526   3.043
  1124G12c C00D20647   2.516   1.539   4.961
  1124G12c O00B20648   2.452   1.423   4.995
  1124G12c C02520649   2.472   1.306   4.925
  1124G12c C02620650   2.602   1.238   4.932
  1124G12c H00Y20651   2.678   1.310   4.901
  1124G12c H00X20652   2.597   1.153   4.864
  1124G12c O00C20653   2.620   1.210   5.068
  1124G12c H00W20654   2.542   1.242   5.112
  1124G12c C02720655   2.368   1.268   4.852
  1124G12c O00D20656   2.255   1.350   4.853
  1124G12c H00Z20657   2.281   1.430   4.896
  1124G12c C02820658   2.371   1.144   4.777
  1124G12c C02920659   2.380   1.018   4.838
  1124G12c H01020660   2.378   1.025   4.946
  1124G12c C02T20661   2.377   0.897   4.768
  1124G12c H01O20662   2.378   0.805   4.825
  1124G12c C02S20663   2.350   0.901   4.625
  1124G12c O00J20664   2.338   0.786   4.559
  1124G12c H01P20665   2.305   0.786   4.471
  1124G12c C02R20666   2.328   1.024   4.560
  1124G12c O00I20667   2.297   1.019   4.420
  1124G12c C02Q20668   2.250   1.131   4.347
  1124G12c H01N20669   2.312   1.219   4.362
  1124G12c H01R20670   2.147   1.146   4.378
  1124G12c H01Q20671   2.239   1.107   4.241
  1124G12c C02A20672   2.347   1.144   4.637
  1124G12c H01120673   2.347   1.234   4.577
  1124G12c C00C20674   2.619   1.585   5.042
  1124G12c H01220675   2.634   1.526   5.131
  1124G12c C00B20676   2.710   1.684   4.997
  1124G12c C00A20677   2.826   1.733   5.069
  1124G12c C00920678   2.846   1.749   5.211
  1124G12c C00820679   2.763   1.721   5.324
  1124G12c H01320680   2.683   1.649   5.318
  1124G12c C00720681   2.786   1.797   5.441
  1124G12c H01420682   2.718   1.780   5.523
  1124G12c C00620683   2.877   1.904   5.447
  1124G12c C00520684   2.942   1.931   5.333
  1124G12c C00420685   3.001   2.063   5.314
  1124G12c C00320686   3.048   2.102   5.187
  1124G12c C00220687   3.102   2.239   5.183
  1124G12c C00120688   3.150   2.312   5.068
  1124G12c C00M20689   3.076   2.319   4.946
  1124G12c C00L20690   3.044   2.213   4.873
  1124G12c C00R20691   2.954   2.210   4.758
  1124G12c C00Q20692   2.879   2.314   4.696
  1124G12c C00V20693   2.777   2.267   4.604
  1124G12c C00U20694   2.743   2.131   4.595
  1124G12c C00T20695   2.802   2.035   4.672
  1124G12c C01620696   2.749   1.907   4.701
  1124G12c C01520697   2.643   1.869   4.622
  1124G12c C01020698   2.597   1.952   4.515
  1124G12c C01120699   2.504   1.894   4.420
  1124G12c H00520700   2.486   1.948   4.328
  1124G12c C01220701   2.443   1.776   4.441
  1124G12c C01720702   2.360   1.717   4.340
  1124G12c O00220703   2.265   1.800   4.285
  1124G12c H00420704   2.203   1.764   4.224
  1124G12c C01820705   2.381   1.587   4.298
  1124G12c O00120706   2.487   1.511   4.335
  1124G12c H00320707   2.458   1.426   4.305
  1124G12c C01920708   2.291   1.520   4.195
  1124G12c H00220709   2.210   1.472   4.250
  1124G12c H00120710   2.258   1.585   4.114
  1124G12c O00020711   2.371   1.432   4.128
  1124G12c C01A20712   2.337   1.401   3.998
  1124G12c C02K20713   2.202   1.378   3.960
  1124G12c O00G20714   2.108   1.356   4.059
  1124G12c C02M20715   2.037   1.238   4.043
  1124G12c H01G20716   1.985   1.203   4.132
  1124G12c H01F20717   2.099   1.156   4.009
  1124G12c H01E20718   1.965   1.252   3.963
  1124G12c C02J20719   2.168   1.365   3.825
  1124G12c H01H20720   2.062   1.361   3.808
  1124G12c C02I20721   2.269   1.374   3.728
  1124G12c C02N20722   2.238   1.359   3.591
  1124G12c H01M20723   2.286   1.430   3.524
  1124G12c C02O20724   2.148   1.271   3.549
  1124G12c H01L20725   2.096   1.212   3.624
  1124G12c C02P20726   2.099   1.251   3.404
  1124G12c H01K20727   2.127   1.335   3.341
  1124G12c H01J20728   2.152   1.163   3.366
  1124G12c O00H20729   1.961   1.218   3.403
  1124G12c H01I20730   1.913   1.299   3.394
  1124G12c C02H20731   2.403   1.401   3.767
  1124G12c H01C20732   2.485   1.400   3.697
  1124G12c C02L20733   2.439   1.403   3.903
  1124G12c H01D20734   2.535   1.412   3.952
  1124G12c C01320735   2.477   1.712   4.562
  1124G12c H00020736   2.426   1.618   4.574
  1124G12c C01420737   2.575   1.756   4.659
  1124G12c C00F20738   2.595   1.694   4.786
  1124G12c C00H20739   2.783   1.834   4.814
  1124G12c C00I20740   2.895   1.876   4.888
  1124G12c C00J20741   2.956   2.001   4.849
  1124G12c C00Z20742   2.647   2.083   4.503
  1124G12c C00Y20743   2.587   2.174   4.414
  1124G12c H00620744   2.500   2.141   4.361
  1124G12c C00X20745   2.621   2.315   4.418
  1124G12c O00320746   2.554   2.407   4.336
  1124G12c C01B20747   2.419   2.388   4.310
  1124G12c H00920748   2.364   2.382   4.403
  1124G12c H00820749   2.403   2.301   4.246
  1124G12c H00720750   2.380   2.478   4.262
  1124G12c C00W20751   2.713   2.360   4.517
  1124G12c O00420752   2.743   2.493   4.519
  1124G12c C01C20753   2.771   2.527   4.646
  1124G12c H00A20754   2.693   2.580   4.699
  1124G12c C00P20755   2.876   2.455   4.717
  1124G12c C00O20756   2.952   2.523   4.821
  1124G12c C01D20757   2.931   2.666   4.835
  1124G12c H00S20758   2.873   2.718   4.760
  1124G12c C01E20759   2.963   2.728   4.961
  1124G12c O00820760   2.919   2.855   4.998
  1124G12c C01V20761   2.790   2.882   4.952
  1124G12c C01Z20762   2.690   2.810   5.033
  1124G12c H00R20763   2.729   2.796   5.134
  1124G12c H00Q20764   2.596   2.865   5.033
  1124G12c O00920765   2.673   2.681   4.978
  1124G12c H00P20766   2.698   2.628   5.053
  1124G12c C01W20767   2.762   2.980   4.862
  1124G12c H00O20768   2.854   3.028   4.832
  1124G12c C01X20769   2.625   3.017   4.812
  1124G12c H00N20770   2.542   3.000   4.881
  1124G12c H00M20771   2.637   3.123   4.794
  1124G12c C01Y20772   2.601   2.946   4.687
  1124G12c C02D20773   2.629   3.008   4.566
  1124G12c H01920774   2.674   3.106   4.571
  1124G12c C02C20775   2.627   2.937   4.444
  1124G12c H01A20776   2.655   2.989   4.354
  1124G12c C02B20777   2.575   2.805   4.441
  1124G12c O00E20778   2.588   2.718   4.342
  1124G12c H01B20779   2.539   2.640   4.365
  1124G12c C02F20780   2.538   2.745   4.562
  1124G12c O00F20781   2.482   2.619   4.548
  1124G12c C02G20782   2.381   2.590   4.639
  1124G12c H01720783   2.417   2.584   4.741
  1124G12c H01620784   2.337   2.494   4.614
  1124G12c H01520785   2.307   2.665   4.612
  1124G12c C02E20786   2.552   2.813   4.686
  1124G12c H01820787   2.529   2.765   4.779
  1124G12c C01F20788   3.032   2.651   5.065
  1124G12c C01G20789   3.044   2.690   5.205
  1124G12c H00L20790   3.010   2.789   5.231
  1124G12c C01H20791   3.089   2.588   5.298
  1124G12c H00B20792   3.080   2.623   5.400
  1124G12c C01I20793   3.134   2.460   5.252
  1124G12c C01U20794   3.093   2.530   5.028
  1124G12c C00S20795   2.913   2.074   4.741
  1124G12c C00K20796   3.035   2.085   4.935
  1124G12c C00N20797   3.034   2.457   4.921
  1124G12c C00020798   3.168   2.446   5.115
  1124G12c C01J20799   3.101   2.327   5.292
  1124G12c C01K20800   3.067   2.282   5.425
  1124G12c C01P20801   3.099   2.342   5.547
  1124G12c C01Q20802   3.188   2.464   5.551
  1124G12c H00G20803   3.255   2.482   5.468
  1124G12c C01R20804   3.187   2.540   5.662
  1124G12c H00F20805   3.122   2.520   5.746
  1124G12c C01S20806   3.278   2.666   5.679
  1124G12c H00E20807   3.371   2.637   5.728
  1124G12c H00D20808   3.306   2.696   5.578
  1124G12c O00520809   3.206   2.766   5.744
  1124G12c H00C20810   3.151   2.806   5.679
  1124G12c C01O20811   3.051   2.281   5.666
  1124G12c H00H20812   3.068   2.336   5.757
  1124G12c C01N20813   2.982   2.164   5.671
  1124G12c O00620814   2.946   2.122   5.795
  1124G12c C01T20815   2.822   2.054   5.820
  1124G12c H00K20816   2.774   2.070   5.917
  1124G12c H00J20817   2.833   1.948   5.800
  1124G12c H00I20818   2.758   2.094   5.740
  1124G12c C01M20819   2.951   2.097   5.549
  1124G12c C02020820   3.039   2.023   5.067
  1124G12c C02120821   3.001   1.888   5.098
  1124G12c C01L20822   3.001   2.152   5.425
  1124G12c O00720823   2.885   1.978   5.555
  1124G12c C02220824   2.946   1.851   5.223
  1124G12c C02320825   2.923   1.812   5.010
  1124G12c C00G20826   2.700   1.734   4.865
  1124G12c C00E20827   2.497   1.601   4.832
  1124G12c O00A20828   2.375   1.573   4.771
  1124G12c C02420829   2.268   1.664   4.789
  1124G12c H00V20830   2.251   1.691   4.893
  1124G12c H00U20831   2.174   1.613   4.768
  1124G12c H00T20832   2.269   1.752   4.725
  1134G12c C00D20833   3.097   0.605   5.269
  1134G12c O00B20834   3.127   0.740   5.291
  1134G12c C02520835   3.184   0.776   5.410
  1134G12c C02620836   3.329   0.722   5.415
  1134G12c H00Y20837   3.333   0.619   5.449
  1134G12c H00X20838   3.393   0.783   5.479
  1134G12c O00C20839   3.387   0.742   5.288
  1134G12c H00W20840   3.333   0.718   5.215
  1134G12c C02720841   3.109   0.831   5.504
  1134G12c O00D20842   2.977   0.864   5.480
  1134G12c H00Z20843   2.971   0.832   5.391
  1134G12c C02820844   3.175   0.874   5.628
  1134G12c C02920845   3.285   0.966   5.631
  1134G12c H01020846   3.315   1.001   5.534
  1134G12c C02T20847   3.363   0.995   5.750
  1134G12c H01O20848   3.449   1.059   5.749
  1134G12c C02S20849   3.316   0.935   5.872
  1134G12c O00J20850   3.381   0.960   5.993
  1134G12c H01P20851   3.345   0.899   6.055
  1134G12c C02R20852   3.205   0.846   5.870
  1134G12c O00I20853   3.170   0.787   5.986
  1134G12c C02Q20854   3.051   0.843   6.049
  1134G12c H01N20855   3.045   0.819   6.155
  1134G12c H01R20856   2.961   0.821   5.992
  1134G12c H01Q20857   3.072   0.949   6.031
  1134G12c C02A20858   3.136   0.817   5.752
  1134G12c H01120859   3.060   0.742   5.768
  1134G12c C00C20860   3.059   0.521   5.368
  1134G12c H01220861   3.051   0.570   5.463
  1134G12c C00B20862   3.028   0.388   5.352
  1134G12c C00A20863   2.998   0.300   5.455
  1134G12c C00920864   3.057   0.307   5.586
  1134G12c C00820865   3.135   0.399   5.656
  1134G12c H01320866   3.132   0.505   5.635
  1134G12c C00720867   3.202   0.350   5.772
  1134G12c H01420868   3.258   0.415   5.838
  1134G12c C00620869   3.217   0.213   5.804
  1134G12c C00520870   3.148   0.126   5.718
  1134G12c C00420871   3.158   6.504   5.726
  1134G12c C00320872   3.101   6.425   5.619
  1134G12c C00220873   3.144   6.287   5.617
  1134G12c C00120874   3.119   6.176   5.523
  1134G12c C00M20875   3.116   6.179   5.374
  1134G12c C00L20876   3.057   6.287   5.313
  1134G12c C00R20877   3.072   6.319   5.175
  1134G12c C00Q20878   3.138   6.252   5.068
  1134G12c C00V20879   3.135   6.336   4.951
  1134G12c C00U20880   3.101   6.472   4.949
  1134G12c C00T20881   3.044   0.012   5.054
  1134G12c C01620882   3.027   0.147   5.069
  1134G12c C01520883   3.059   0.226   4.963
  1134G12c C01020884   3.092   0.169   4.842
  1134G12c C01120885   3.096   0.248   4.724
  1134G12c H00520886   3.112   0.209   4.625
  1134G12c C01220887   3.066   0.387   4.732
  1134G12c C01720888   3.043   0.462   4.611
  1134G12c O00220889   2.931   0.538   4.608
  1134G12c H00420890   2.868   0.505   4.670
  1134G12c C01820891   3.113   0.449   4.501
  1134G12c O00120892   3.215   0.364   4.488
  1134G12c H00320893   3.246   0.390   4.403
  1134G12c C01920894   3.079   0.520   4.375
  1134G12c H00220895   2.975   0.508   4.343
  1134G12c H00120896   3.075   0.624   4.407
  1134G12c O00020897   3.184   0.506   4.281
  1134G12c C01A20898   3.180   0.591   4.173
  1134G12c C02K20899   3.074   0.585   4.080
  1134G12c O00G20900   2.983   0.485   4.100
  1134G12c C02M20901   2.863   0.497   4.028
  1134G12c H01G20902   2.813   0.592   4.047
  1134G12c H01F20903   2.792   0.415   4.046
  1134G12c H01E20904   2.882   0.494   3.921
  1134G12c C02J20905   3.074   0.680   3.970
  1134G12c H01H20906   2.991   0.677   3.900
  1134G12c C02I20907   3.172   0.779   3.958
  1134G12c C02N20908   3.183   0.882   3.856
  1134G12c H01M20909   3.231   0.976   3.876
  1134G12c C02O20910   3.110   0.866   3.744
  1134G12c H01L20911   3.066   0.769   3.724
  1134G12c C02P20912   3.099   0.986   3.649
  1134G12c H01K20913   3.157   1.072   3.682
  1134G12c H01J20914   3.124   0.967   3.545
  1134G12c O00H20915   2.967   1.031   3.648
  1134G12c H01I20916   2.969   1.125   3.642
  1134G12c C02H20917   3.282   0.769   4.042
  1134G12c H01C20918   3.369   0.827   4.014
  1134G12c C02L20919   3.290   0.674   4.150
  1134G12c H01D20920   3.382   0.656   4.204
  1134G12c C01320921   3.045   0.443   4.861
  1134G12c H00020922   3.020   0.548   4.859
  1134G12c C01420923   3.050   0.365   4.979
  1134G12c C00F20924   3.047   0.420   5.112
  1134G12c C00H20925   2.999   0.197   5.195
  1134G12c C00I20926   2.973   0.111   5.303
  1134G12c C00J20927   2.966   6.496   5.278
  1134G12c C00Z20928   3.120   0.032   4.837
  1134G12c C00Y20929   3.147   6.486   4.712
  1134G12c H00620930   3.143   0.020   4.619
  1134G12c C00X20931   3.166   6.349   4.710
  1134G12c O00320932   3.200   6.287   4.588
  1134G12c C01B20933   3.189   6.355   4.460
  1134G12c H00920934   3.089   6.379   4.424
  1134G12c H00820935   3.233   6.286   4.389
  1134G12c H00720936   3.259   6.439   4.456
  1134G12c C00W20937   3.171   6.274   4.827
  1134G12c O00420938   3.199   6.141   4.820
  1134G12c C01C20939   3.261   6.090   4.937
  1134G12c H00A20940   3.339   6.017   4.921
  1134G12c C00P20941   3.217   6.138   5.063
  1134G12c C00O20942   3.274   6.083   5.185
  1134G12c C01D20943   3.400   6.016   5.191
  1134G12c H00S20944   3.447   5.990   5.097
  1134G12c C01E20945   3.477   6.000   5.306
  1134G12c O00820946   3.612   5.967   5.302
  1134G12c C01V20947   3.673   5.945   5.183
  1134G12c C01Z20948   3.714   5.799   5.147
  1134G12c H00R20949   3.801   5.808   5.082
  1134G12c H00Q20950   3.743   5.739   5.234
  1134G12c O00920951   3.619   5.735   5.062
  1134G12c H00P20952   3.528   5.752   5.078
  1134G12c C01W20953   3.707   6.052   5.109
  1134G12c H00O20954   3.688   6.148   5.153
  1134G12c C01X20955   3.782   6.050   4.975
  1134G12c H00N20956   3.843   6.139   4.966
  1134G12c H00M20957   3.830   5.954   4.957
  1134G12c C01Y20958   3.682   6.051   4.867
  1134G12c C02D20959   3.649   5.934   4.787
  1134G12c H01920960   3.687   5.834   4.800
  1134G12c C02C20961   3.568   5.945   4.676
  1134G12c H01A20962   3.549   5.861   4.609
  1134G12c C02B20963   3.497   6.064   4.652
  1134G12c O00E20964   3.394   6.067   4.562
  1134G12c H01B20965   3.358   6.152   4.582
  1134G12c C02F20966   3.527   6.177   4.729
  1134G12c O00F20967   3.465   6.294   4.699
  1134G12c C02G20968   3.491   6.412   4.772
  1134G12c H01720969   3.597   6.434   4.790
  1134G12c H01620970   3.440   6.413   4.868
  1134G12c H01520971   3.447   6.486   4.705
  1134G12c C02E20972   3.623   6.173   4.834
  1134G12c H01820973   3.649   6.254   4.900
  1134G12c C01F20974   3.417   6.025   5.430
  1134G12c C01G20975   3.496   6.034   5.555
  1134G12c H00L20976   3.602   6.016   5.550
  1134G12c C01H20977   3.441   6.087   5.672
  1134G12c H00B20978   3.510   6.130   5.743
  1134G12c C01I20979   3.301   6.123   5.663
  1134G12c C01U20980   3.274   6.046   5.437
  1134G12c C00S20981   3.010   6.445   5.157
  1134G12c C00K20982   3.010   6.406   5.381
  1134G12c C00N20983   3.223   6.102   5.318
  1134G12c C00020984   3.217   6.080   5.557
  1134G12c C01J20985   3.242   6.245   5.712
  1134G12c C01K20986   3.288   6.319   5.826
  1134G12c C01P20987   3.360   6.274   5.945
  1134G12c C01Q20988   3.376   6.131   5.977
  1134G12c H00G20989   3.298   6.057   5.976
  1134G12c C01R20990   3.491   6.081   6.031
  1134G12c H00F20991   3.576   6.140   6.064
  1134G12c C01S20992   3.520   5.935   6.075
  1134G12c H00E20993   3.605   5.910   6.012
  1134G12c H00D20994   3.558   5.927   6.177
  1134G12c O00520995   3.402   5.860   6.062
  1134G12c H00C20996   3.370   5.868   5.974
  1134G12c C01O20997   3.408   6.365   6.036
  1134G12c H00H20998   3.466   6.342   6.123
  1134G12c C01N20999   3.384   6.504   6.021
  1134G12c O00621000   3.432   0.080   6.105
  1134G12c C01T21001   3.551   0.053   6.180
  1134G12c H00K21002   3.535   6.492   6.251
  1134G12c H00J21003   3.584   0.140   6.238
  1134G12c H00I21004   3.633   0.019   6.117
  1134G12c C01M21005   3.301   0.030   5.916
  1134G12c C02021006   3.014   6.469   5.515
  1134G12c C02121007   2.981   0.087   5.534
  1134G12c C01L21008   3.249   6.458   5.824
  1134G12c O00721009   3.289   0.166   5.908
  1134G12c C02221010   3.058   0.167   5.620
  1134G12c C02321011   2.953   0.172   5.425
  1134G12c C00G21012   3.023   0.334   5.220
  1134G12c C00E21013   3.078   0.560   5.138
  1134G12c O00A21014   3.100   0.654   5.045
  1134G12c C02421015   2.991   0.749   5.038
  1134G12c H00V21016   3.039   0.847   5.043
  1134G12c H00U21017   2.920   0.720   5.115
  1134G12c H00T21018   2.939   0.743   4.943
  1144G12c C00D21019   0.948   3.113   8.040
  1144G12c O00B21020   0.930   2.977   8.068
  1144G12c C02521021   1.027   2.892   8.034
  1144G12c C02621022   1.126   2.854   8.142
  1144G12c H00Y21023   1.220   2.905   8.121
  1144G12c H00X21024   1.154   2.749   8.150
  1144G12c O00C21025   1.083   2.897   8.271
  1144G12c H00W21026   1.151   2.884   8.336
  1144G12c C02721027   1.043   2.868   7.905
  1144G12c O00D21028   0.947   2.921   7.815
  1144G12c H00Z21029   0.902   2.975   7.879
  1144G12c C02821030   1.158   2.798   7.852
  1144G12c C02921031   1.237   2.855   7.749
  1144G12c H01021032   1.201   2.942   7.695
  1144G12c C02T21033   1.364   2.809   7.712
  1144G12c H01O21034   1.427   2.866   7.645
  1144G12c C02S21035   1.418   2.691   7.773
  1144G12c O00J21036   1.543   2.644   7.746
  1144G12c H01P21037   1.580   2.592   7.815
  1144G12c C02R21038   1.327   2.620   7.859
  1144G12c O00I21039   1.377   2.502   7.917
  1144G12c C02Q21040   1.308   2.437   8.015
  1144G12c H01N21041   1.370   2.354   8.050
  1144G12c H01R21042   1.207   2.402   7.995
  1144G12c H01Q21043   1.303   2.509   8.096
  1144G12c C02A21044   1.203   2.673   7.900
  1144G12c H01121045   1.145   2.614   7.969
  1144G12c C00C21046   1.057   3.184   8.088
  1144G12c H01221047   1.111   3.137   8.169
  1144G12c C00B21048   1.094   3.305   8.040
  1144G12c C00A21049   1.202   3.388   8.084
  1144G12c C00921050   1.245   3.398   8.219
  1144G12c C00821051   1.207   3.342   8.340
  1144G12c H01321052   1.147   3.252   8.342
  1144G12c C00721053   1.230   3.405   8.463
  1144G12c H01421054   1.200   3.353   8.553
  1144G12c C00621055   1.297   3.535   8.464
  1144G12c C00521056   1.326   3.593   8.336
  1144G12c C00421057   1.356   3.729   8.320
  1144G12c C00321058   1.358   3.785   8.189
  1144G12c C00221059   1.376   3.930   8.184
  1144G12c C00121060   1.381   4.030   8.076
  1144G12c C00M21061   1.281   4.028   7.971
  1144G12c C00L21062   1.250   3.911   7.894
  1144G12c C00R21063   1.123   3.899   7.824
  1144G12c C00Q21064   1.019   3.990   7.790
  1144G12c C00V21065   0.909   3.930   7.726
  1144G12c C00U21066   0.879   3.790   7.739
  1144G12c C00T21067   0.976   3.704   7.783
  1144G12c C01621068   0.957   3.571   7.819
  1144G12c C01521069   0.841   3.507   7.780
  1144G12c C01021070   0.746   3.587   7.708
  1144G12c C01121071   0.630   3.515   7.650
  1144G12c H00521072   0.553   3.562   7.591
  1144G12c C01221073   0.625   3.376   7.654
  1144G12c C01721074   0.534   3.302   7.573
  1144G12c O00221075   0.404   3.337   7.569
  1144G12c H00421076   0.370   3.313   7.484
  1144G12c C01821077   0.573   3.197   7.499
  1144G12c O00121078   0.704   3.169   7.481
  1144G12c H00321079   0.702   3.100   7.417
  1144G12c C01921080   0.483   3.103   7.431
  1144G12c H00221081   0.384   3.089   7.474
  1144G12c H00121082   0.487   3.120   7.324
  1144G12c O00021083   0.554   2.977   7.459
  1144G12c C01A21084   0.531   2.867   7.380
  1144G12c C02K21085   0.585   2.858   7.249
  1144G12c O00G21086   0.672   2.955   7.214
  1144G12c C02M21087   0.689   2.988   7.077
  1144G12c H01G21088   0.748   3.080   7.077
  1144G12c H01F21089   0.594   3.005   7.027
  1144G12c H01E21090   0.727   2.907   7.014
  1144G12c C02J21091   0.562   2.735   7.172
  1144G12c H01H21092   0.606   2.733   7.073
  1144G12c C02I21093   0.487   2.630   7.222
  1144G12c C02N21094   0.465   2.511   7.145
  1144G12c H01M21095   0.458   2.413   7.188
  1144G12c C02O21096   0.465   2.524   7.012
  1144G12c H01L21097   0.482   2.620   6.965
  1144G12c C02P21098   0.444   2.419   6.913
  1144G12c H01K21099   0.478   2.459   6.817
  1144G12c H01J21100   0.494   2.324   6.930
  1144G12c O00H21101   0.314   2.394   6.887
  1144G12c H01I21102   0.259   2.444   6.946
  1144G12c C02H21103   0.433   2.646   7.349
  1144G12c H01C21104   0.357   2.574   7.378
  1144G12c C02L21105   0.457   2.756   7.432
  1144G12c H01D21106   0.388   2.766   7.515
  1144G12c C01321107   0.724   3.305   7.729
  1144G12c H00021108   0.723   3.197   7.728
  1144G12c C01421109   0.826   3.372   7.799
  1144G12c C00F21110   0.898   3.306   7.892
  1144G12c C00H21111   1.054   3.494   7.886
  1144G12c C00I21112   1.179   3.556   7.910
  1144G12c C00J21113   1.199   3.690   7.870
  1144G12c C00Z21114   0.763   3.726   7.693
  1144G12c C00Y21115   0.671   3.810   7.627
  1144G12c H00621116   0.579   3.765   7.592
  1144G12c C00X21117   0.697   3.947   7.602
  1144G12c O00321118   0.614   4.018   7.521
  1144G12c C01B21119   0.650   3.984   7.386
  1144G12c H00921120   0.757   3.995   7.375
  1144G12c H00821121   0.603   4.044   7.308
  1144G12c H00721122   0.635   3.877   7.368
  1144G12c C00W21123   0.821   4.008   7.649
  1144G12c O00421124   0.846   4.141   7.618
  1144G12c C01C21125   0.916   4.207   7.723
  1144G12c H00A21126   0.873   4.299   7.758
  1144G12c C00P21127   1.017   4.136   7.802
  1144G12c C00O21128   1.102   4.211   7.894
  1144G12c C01D21129   1.061   4.344   7.934
  1144G12c H00S21130   0.986   4.404   7.884
  1144G12c C01E21131   1.104   4.396   8.056
  1144G12c O00821132   1.052   4.519   8.089
  1144G12c C01V21133   1.129   4.630   8.073
  1144G12c C01Z21134   1.191   4.690   8.201
  1144G12c H00R21135   1.159   4.794   8.210
  1144G12c H00Q21136   1.156   4.642   8.292
  1144G12c O00921137   1.334   4.690   8.200
  1144G12c H00P21138   1.357   4.630   8.131
  1144G12c C01W21139   1.156   4.679   7.951
  1144G12c H00O21140   1.106   4.617   7.878
  1144G12c C01X21141   1.228   4.805   7.903
  1144G12c H00N21142   1.314   4.827   7.967
  1144G12c H00M21143   1.273   4.787   7.806
  1144G12c C01Y21144   1.147   4.926   7.883
  1144G12c C02D21145   1.186   5.039   7.956
  1144G12c H01921146   1.270   5.037   8.023
  1144G12c C02C21147   1.123   5.166   7.940
  1144G12c H01A21148   1.154   5.246   8.006
  1144G12c C02B21149   1.006   5.169   7.854
  1144G12c O00E21150   0.928   5.284   7.853
  1144G12c H01B21151   0.881   5.270   7.772
  1144G12c C02F21152   0.966   5.054   7.782
  1144G12c O00F21153   0.854   5.076   7.698
  1144G12c C02G21154   0.818   4.973   7.617
  1144G12c H01721155   0.722   5.003   7.573
  1144G12c H01621156   0.798   4.880   7.670
  1144G12c H01521157   0.892   4.959   7.539
  1144G12c C02E21158   1.037   4.932   7.796
  1144G12c H01821159   1.008   4.839   7.750
  1144G12c C01F21160   1.192   4.326   8.135
  1144G12c C01G21161   1.218   4.342   8.276
  1144G12c H00L21162   1.172   4.414   8.341
  1144G12c C01H21163   1.293   4.247   8.345
  1144G12c H00B21164   1.282   4.255   8.452
  1144G12c C01I21165   1.361   4.145   8.274
  1144G12c C01U21166   1.272   4.229   8.073
  1144G12c C00S21167   1.105   3.762   7.801
  1144G12c C00K21168   1.285   3.780   7.948
  1144G12c C00N21169   1.216   4.159   7.964
  1144G12c C00021170   1.381   4.162   8.133
  1144G12c C01J21171   1.378   4.001   8.307
  1144G12c C01K21172   1.388   3.940   8.442
  1144G12c C01P21173   1.411   4.005   8.564
  1144G12c C01Q21174   1.468   4.139   8.574
  1144G12c H00G21175   1.550   4.167   8.510
  1144G12c C01R21176   1.428   4.222   8.669
  1144G12c H00F21177   1.344   4.197   8.732
  1144G12c C01S21178   1.491   4.355   8.705
  1144G12c H00E21179   1.540   4.397   8.617
  1144G12c H00D21180   1.419   4.427   8.743
  1144G12c O00521181   1.593   4.343   8.799
  1144G12c H00C21182   1.667   4.301   8.756
  1144G12c C01O21183   1.392   3.928   8.687
  1144G12c H00H21184   1.407   3.985   8.777
  1144G12c C01N21185   1.364   3.791   8.690
  1144G12c O00621186   1.358   3.718   8.802
  1144G12c C01T21187   1.372   3.779   8.939
  1144G12c H00K21188   1.477   3.766   8.966
  1144G12c H00J21189   1.319   3.723   9.015
  1144G12c H00I21190   1.341   3.883   8.956
  1144G12c C01M21191   1.350   3.732   8.567
  1144G12c C02021192   1.336   3.715   8.067
  1144G12c C02121193   1.335   3.573   8.085
  1144G12c C01L21194   1.361   3.800   8.439
  1144G12c O00721195   1.314   3.602   8.579
  1144G12c C02221196   1.314   3.525   8.212
  1144G12c C02321197   1.259   3.490   8.003
  1144G12c C00G21198   1.017   3.366   7.937
  1144G12c C00E21199   0.862   3.175   7.947
  1144G12c O00A21200   0.749   3.100   7.916
  1144G12c C02421201   0.636   3.116   7.997
  1144G12c H00V21202   0.658   3.061   8.088
  1144G12c H00U21203   0.550   3.065   7.955
  1144G12c H00T21204   0.602   3.216   8.023
  1154G12c C00D21205   2.154   0.249   5.227
  1154G12c O00B21206   2.133   0.370   5.160
  1154G12c C02521207   2.096   0.478   5.239
  1154G12c C02621208   2.207   0.575   5.254
  1154G12c H00Y21209   2.294   0.528   5.300
  1154G12c H00X21210   2.181   0.666   5.308
  1154G12c O00C21211   2.233   0.614   5.120
  1154G12c H00W21212   2.199   0.547   5.063
  1154G12c C02721213   1.967   0.488   5.274
  1154G12c O00D21214   1.888   0.386   5.238
  1154G12c H00Z21215   1.932   0.338   5.169
  1154G12c C02821216   1.915   0.596   5.356
  1154G12c C02921217   1.966   0.628   5.481
  1154G12c H01021218   2.058   0.582   5.512
  1154G12c C02T21219   1.901   0.729   5.566
  1154G12c H01O21220   1.942   0.758   5.661
  1154G12c C02S21221   1.787   0.788   5.519
  1154G12c O00J21222   1.714   0.879   5.586
  1154G12c H01P21223   1.653   0.927   5.534
  1154G12c C02R21224   1.738   0.758   5.389
  1154G12c O00I21225   1.622   0.821   5.352
  1154G12c C02Q21226   1.559   0.782   5.231
  1154G12c H01N21227   1.544   0.675   5.237
  1154G12c H01R21228   1.613   0.785   5.136
  1154G12c H01Q21229   1.473   0.843   5.204
  1154G12c C02A21230   1.802   0.664   5.308
  1154G12c H01121231   1.767   0.639   5.209
  1154G12c C00C21232   2.149   0.237   5.364
  1154G12c H01221233   2.130   0.322   5.428
  1154G12c C00B21234   2.162   0.114   5.429
  1154G12c C00A21235   2.160   0.094   5.570
  1154G12c C00921236   2.225   0.178   5.670
  1154G12c C00821237   2.291   0.308   5.675
  1154G12c H01321238   2.276   0.378   5.594
  1154G12c C00721239   2.374   0.348   5.785
  1154G12c H01421240   2.405   0.451   5.782
  1154G12c C00621241   2.404   0.251   5.883
  1154G12c C00521242   2.338   0.125   5.876
  1154G12c C00421243   2.387   0.016   5.952
  1154G12c C00321244   2.339   6.407   5.927
  1154G12c C00221245   2.396   6.298   6.004
  1154G12c C00121246   2.376   6.159   6.007
  1154G12c C00M21247   2.370   6.082   5.878
  1154G12c C00L21248   2.300   6.123   5.762
  1154G12c C00R21249   2.313   6.062   5.632
  1154G12c C00Q21250   2.405   5.964   5.581
  1154G12c C00V21251   2.404   5.954   5.443
  1154G12c C00U21252   2.350   6.060   5.362
  1154G12c C00T21253   2.267   6.159   5.411
  1154G12c C01621254   2.234   6.278   5.348
  1154G12c C01521255   2.269   6.284   5.216
  1154G12c C01021256   2.324   6.167   5.152
  1154G12c C01121257   2.373   6.185   5.024
  1154G12c H00521258   2.425   6.102   4.977
  1154G12c C01221259   2.357   6.299   4.946
  1154G12c C01721260   2.408   6.301   4.813
  1154G12c O00221261   2.404   6.181   4.743
  1154G12c H00421262   2.454   6.202   4.666
  1154G12c C01821263   2.439   6.418   4.747
  1154G12c O00121264   2.442   0.021   4.799
  1154G12c H00321265   2.471   0.010   4.888
  1154G12c C01921266   2.486   6.411   4.601
  1154G12c H00221267   2.395   6.405   4.541
  1154G12c H00121268   2.538   6.504   4.580
  1154G12c O00021269   2.564   6.292   4.582
  1154G12c C01A21270   2.636   6.284   4.465
  1154G12c C02K21271   2.731   6.380   4.424
  1154G12c O00G21272   2.771   6.483   4.509
  1154G12c C02M21273   2.818   0.082   4.453
  1154G12c H01G21274   2.924   0.097   4.434
  1154G12c H01F21275   2.790   0.152   4.532
  1154G12c H01E21276   2.763   0.096   4.360
  1154G12c C02J21277   2.776   6.371   4.286
  1154G12c H01H21278   2.841   6.450   4.250
  1154G12c C02I21279   2.746   6.257   4.204
  1154G12c C02N21280   2.791   6.234   4.074
  1154G12c H01M21281   2.821   6.136   4.041
  1154G12c C02O21282   2.793   6.344   3.994
  1154G12c H01L21283   2.769   6.448   4.012
  1154G12c C02P21284   2.835   6.336   3.851
  1154G12c H01K21285   2.791   6.248   3.806
  1154G12c H01J21286   2.789   6.409   3.783
  1154G12c O00H21287   2.973   6.325   3.838
  1154G12c H01I21288   3.016   6.354   3.917
  1154G12c C02H21289   2.669   6.162   4.264
  1154G12c H01C21290   2.644   6.073   4.208
  1154G12c C02L21291   2.609   6.173   4.388
  1154G12c H01D21292   2.543   6.095   4.423
  1154G12c C01321293   2.287   6.406   5.005
  1154G12c H00021294   2.258   6.488   4.941
  1154G12c C01421295   2.251   6.405   5.146
  1154G12c C00F21296   2.216   0.002   5.219
  1154G12c C00H21297   2.191   6.391   5.419
  1154G12c C00I21298   2.160   6.375   5.557
  1154G12c C00J21299   2.191   6.251   5.620
  1154G12c C00Z21300   2.355   6.049   5.225
  1154G12c C00Y21301   2.404   5.933   5.162
  1154G12c H00621302   2.406   5.920   5.055
  1154G12c C00X21303   2.459   5.828   5.243
  1154G12c O00321304   2.505   5.707   5.186
  1154G12c C01B21305   2.465   5.683   5.047
  1154G12c H00921306   2.359   5.700   5.029
  1154G12c H00821307   2.497   5.583   5.019
  1154G12c H00721308   2.515   5.754   4.981
  1154G12c C00W21309   2.462   5.845   5.377
  1154G12c O00421310   2.530   5.747   5.445
  1154G12c C01C21311   2.572   5.778   5.569
  1154G12c H00A21312   2.680   5.785   5.571
  1154G12c C00P21313   2.492   5.874   5.649
  1154G12c C00O21314   2.528   5.886   5.786
  1154G12c C01D21315   2.640   5.806   5.832
  1154G12c H00S21316   2.672   5.720   5.776
  1154G12c C01E21317   2.715   5.840   5.945
  1154G12c O00821318   2.839   5.780   5.952
  1154G12c C01V21319   2.874   5.722   6.075
  1154G12c C01Z21320   3.024   5.706   6.093
  1154G12c H00R21321   3.056   5.622   6.154
  1154G12c H00Q21322   3.055   5.688   5.990
  1154G12c O00921323   3.071   5.830   6.136
  1154G12c H00P21324   3.159   5.844   6.104
  1154G12c C01W21325   2.784   5.667   6.158
  1154G12c H00O21326   2.678   5.675   6.138
  1154G12c C01X21327   2.813   5.612   6.298
  1154G12c H00N21328   2.911   5.638   6.337
  1154G12c H00M21329   2.734   5.645   6.365
  1154G12c C01Y21330   2.813   5.457   6.312
  1154G12c C02D21331   2.879   5.388   6.417
  1154G12c H01921332   2.941   5.438   6.490
  1154G12c C02C21333   2.868   5.245   6.431
  1154G12c H01A21334   2.924   5.191   6.505
  1154G12c C02B21335   2.789   5.169   6.341
  1154G12c O00E21336   2.787   5.034   6.353
  1154G12c H01B21337   2.742   5.008   6.274
  1154G12c C02F21338   2.718   5.239   6.238
  1154G12c O00F21339   2.631   5.170   6.161
  1154G12c C02G21340   2.672   5.170   6.027
  1154G12c H01721341   2.775   5.140   6.009
  1154G12c H01621342   2.642   5.263   5.980
  1154G12c H01521343   2.611   5.101   5.968
  1154G12c C02E21344   2.728   5.383   6.225
  1154G12c H01821345   2.680   5.436   6.143
  1154G12c C01F21346   2.673   5.950   6.023
  1154G12c C01G21347   2.748   6.028   6.116
  1154G12c H00L21348   2.850   5.997   6.136
  1154G12c C01H21349   2.711   6.156   6.160
  1154G12c H00B21350   2.784   6.227   6.197
  1154G12c C01I21351   2.578   6.199   6.124
  1154G12c C01U21352   2.541   5.997   6.011
  1154G12c C00S21353   2.248   6.148   5.547
  1154G12c C00K21354   2.240   6.250   5.754
  1154G12c C00N21355   2.475   5.980   5.883
  1154G12c C00021356   2.484   6.106   6.083
  1154G12c C01J21357   2.508   6.323   6.093
  1154G12c C01K21358   2.540   6.459   6.137
  1154G12c C01P21359   2.625   6.501   6.244
  1154G12c C01Q21360   2.652   6.405   6.350
  1154G12c H00G21361   2.581   6.336   6.393
  1154G12c C01R21362   2.772   6.425   6.410
  1154G12c H00F21363   2.837   6.498   6.364
  1154G12c C01S21364   2.813   6.367   6.546
  1154G12c H00E21365   2.737   6.301   6.587
  1154G12c H00D21366   2.906   6.312   6.533
  1154G12c O00521367   2.828   6.475   6.641
  1154G12c H00C21368   2.760   6.489   6.706
  1154G12c C01O21369   2.664   0.114   6.265
  1154G12c H00H21370   2.723   0.152   6.347
  1154G12c C01N21371   2.616   0.212   6.175
  1154G12c O00621372   2.650   0.341   6.186
  1154G12c C01T21373   2.558   0.418   6.263
  1154G12c H00K21374   2.598   0.518   6.278
  1154G12c H00J21375   2.535   0.369   6.357
  1154G12c H00I21376   2.455   0.426   6.228
  1154G12c C01M21377   2.532   0.173   6.071
  1154G12c C02021378   2.239   6.377   5.826
  1154G12c C02121379   2.179   6.495   5.768
  1154G12c C01L21380   2.488   0.037   6.049
  1154G12c O00721381   2.488   0.278   5.992
  1154G12c C02221382   2.229   0.101   5.787
  1154G12c C02321383   2.136   6.494   5.628
  1154G12c C00G21384   2.190   6.518   5.355
  1154G12c C00E21385   2.193   0.135   5.158
  1154G12c O00A21386   2.192   0.148   5.023
  1154G12c C02421387   2.291   0.229   4.974
  1154G12c H00V21388   2.267   0.335   4.979
  1154G12c H00U21389   2.296   0.216   4.865
  1154G12c H00T21390   2.384   0.205   5.024
  1164G12c C00D21391   5.983   0.138   3.801
  1164G12c O00B21392   5.966   0.020   3.731
  1164G12c C02521393   5.866   6.467   3.782
  1164G12c C02621394   5.721   6.514   3.768
  1164G12c H00Y21395   5.725   0.092   3.813
  1164G12c H00X21396   5.647   6.455   3.822
  1164G12c O00C21397   5.704   0.015   3.630
  1164G12c H00W21398   5.781   0.007   3.576
  1164G12c C02721399   5.905   6.351   3.849
  1164G12c O00D21400   6.030   6.312   3.854
  1164G12c H00Z21401   6.051   6.279   3.940
  1164G12c C02821402   5.815   6.263   3.921
  1164G12c C02921403   5.716   6.302   4.014
  1164G12c H01021404   5.708   6.404   4.048
  1164G12c C02T21405   5.632   6.207   4.079
  1164G12c H01O21406   5.556   6.239   4.149
  1164G12c C02S21407   5.650   6.073   4.062
  1164G12c O00J21408   5.562   5.989   4.130
  1164G12c H01P21409   5.580   5.896   4.128
  1164G12c C02R21410   5.752   6.027   3.976
  1164G12c O00I21411   5.753   5.896   3.948
  1164G12c C02Q21412   5.883   5.839   3.901
  1164G12c H01N21413   5.914   5.861   3.798
  1164G12c H01R21414   5.876   5.731   3.907
  1164G12c H01Q21415   5.973   5.855   3.960
  1164G12c C02A21416   5.828   6.125   3.904
  1164G12c H01121417   5.893   6.092   3.824
  1164G12c C00C21418   5.933   0.161   3.925
  1164G12c H01221419   5.878   0.087   3.980
  1164G12c C00B21420   5.950   0.283   3.993
  1164G12c C00A21421   5.909   0.315   4.124
  1164G12c C00921422   5.789   0.276   4.190
  1164G12c C00821423   5.678   0.190   4.157
  1164G12c H01321424   5.700   0.115   4.083
  1164G12c C00721425   5.547   0.217   4.197
  1164G12c H01421426   5.467   0.152   4.163
  1164G12c C00621427   5.516   0.335   4.276
  1164G12c C00521428   5.627   0.415   4.314
  1164G12c C00421429   5.614   0.540   4.364
  1164G12c C00321430   5.724   0.627   4.377
  1164G12c C00221431   5.695   0.764   4.424
  1164G12c C00121432   5.776   0.883   4.438
  1164G12c C00M21433   5.865   0.932   4.334
  1164G12c C00L21434   5.953   0.851   4.271
  1164G12c C00R21435   6.032   0.884   4.156
  1164G12c C00Q21436   6.042   1.004   4.082
  1164G12c C00V21437   6.106   0.979   3.955
  1164G12c C00U21438   6.137   0.855   3.901
  1164G12c C00T21439   6.103   0.746   3.971
  1164G12c C01621440   6.109   0.618   3.919
  1164G12c C01521441   6.161   0.596   3.796
  1164G12c C01021442   6.211   0.705   3.721
  1164G12c C01121443   6.274   0.686   3.596
  1164G12c H00521444   6.324   0.768   3.547
  1164G12c C01221445   6.295   0.552   3.552
  1164G12c C01721446   6.395   0.533   3.448
  1164G12c O00221447   6.500   0.620   3.437
  1164G12c H00421448   6.476   0.708   3.464
  1164G12c C01821449   6.385   0.430   3.362
  1164G12c O00121450   6.277   0.339   3.354
  1164G12c H00321451   6.303   0.280   3.285
  1164G12c C01921452   6.496   0.394   3.263
  1164G12c H00221453   0.056   0.467   3.256
  1164G12c H00121454   0.017   0.298   3.291
  1164G12c O00021455   6.443   0.394   3.131
  1164G12c C01A21456   6.516   0.345   3.024
  1164G12c C02K21457   6.450   0.311   2.901
  1164G12c O00G21458   6.315   0.298   2.911
  1164G12c C02M21459   6.254   0.259   2.790
  1164G12c H01G21460   6.151   0.233   2.811
  1164G12c H01F21461   6.295   0.166   2.748
  1164G12c H01E21462   6.251   0.341   2.719
  1164G12c C02J21463   0.005   0.295   2.781
  1164G12c H01H21464   6.483   0.271   2.685
  1164G12c C02I21465   0.146   0.323   2.784
  1164G12c C02N21466   0.224   0.327   2.666
  1164G12c H01M21467   0.187   0.275   2.579
  1164G12c C02O21468   0.350   0.376   2.664
  1164G12c H01L21469   0.391   0.432   2.747
  1164G12c C02P21470   0.442   0.370   2.548
  1164G12c H01K21471   0.381   0.342   2.461
  1164G12c H01J21472   0.489   0.466   2.529
  1164G12c O00H21473   0.534   0.263   2.590
  1164G12c H01I21474   0.562   0.273   2.679
  1164G12c C02H21475   0.204   0.349   2.906
  1164G12c H01C21476   0.311   0.360   2.920
  1164G12c C02L21477   0.138   0.343   3.029
  1164G12c H01D21478   0.188   0.359   3.123
  1164G12c C01321479   6.229   0.447   3.624
  1164G12c H00021480   6.256   0.351   3.582
  1164G12c C01421481   6.162   0.465   3.745
  1164G12c C00F21482   6.096   0.358   3.809
  1164G12c C00H21483   6.056   0.510   3.995
  1164G12c C00I21484   6.030   0.526   4.130
  1164G12c C00J21485   6.038   0.657   4.179
  1164G12c C00Z21486   6.189   0.833   3.769
  1164G12c C00Y21487   6.210   0.953   3.695
  1164G12c H00621488   6.243   0.946   3.592
  1164G12c C00X21489   6.180   1.074   3.745
  1164G12c O00321490   6.223   1.178   3.664
  1164G12c C01B21491   6.125   1.277   3.626
  1164G12c H00921492   6.174   1.350   3.562
  1164G12c H00821493   6.093   1.336   3.712
  1164G12c H00721494   6.039   1.224   3.583
  1164G12c C00W21495   6.130   1.092   3.872
  1164G12c O00421496   6.097   1.219   3.915
  1164G12c C01C21497   6.006   1.237   4.019
  1164G12c H00A21498   5.987   1.341   4.043
  1164G12c C00P21499   5.973   1.129   4.100
  1164G12c C00O21500   5.860   1.152   4.193
  1164G12c C01D21501   5.768   1.254   4.159
  1164G12c H00S21502   5.795   1.321   4.078
  1164G12c C01E21503   5.645   1.266   4.221
  1164G12c O00821504   5.545   1.339   4.165
  1164G12c C01V21505   5.563   1.460   4.098
  1164G12c C01Z21506   5.635   1.575   4.176
  1164G12c H00R21507   5.690   1.542   4.264
  1164G12c H00Q21508   5.708   1.627   4.114
  1164G12c O00921509   5.542   1.674   4.222
  1164G12c H00P21510   5.485   1.624   4.279
  1164G12c C01W21511   5.506   1.470   3.976
  1164G12c H00O21512   5.453   1.383   3.941
  1164G12c C01X21513   5.517   1.588   3.882
  1164G12c H00N21514   5.442   1.572   3.805
  1164G12c H00M21515   5.500   1.683   3.933
  1164G12c C01Y21516   5.649   1.586   3.806
  1164G12c C02D21517   5.673   1.488   3.705
  1164G12c H01921518   5.600   1.410   3.688
  1164G12c C02C21519   5.799   1.486   3.644
  1164G12c H01A21520   5.827   1.406   3.577
  1164G12c C02B21521   5.901   1.579   3.678
  1164G12c O00E21522   6.026   1.574   3.615
  1164G12c H01B21523   6.057   1.662   3.597
  1164G12c C02F21524   5.874   1.680   3.776
  1164G12c O00F21525   5.970   1.779   3.800
  1164G12c C02G21526   5.950   1.848   3.922
  1164G12c H01721527   5.942   1.787   4.012
  1164G12c H01621528   5.859   1.909   3.915
  1164G12c H01521529   6.038   1.911   3.930
  1164G12c C02E21530   5.747   1.685   3.836
  1164G12c H01821531   5.715   1.751   3.916
  1164G12c C01F21532   5.612   1.179   4.331
  1164G12c C01G21533   5.473   1.148   4.364
  1164G12c H00L21534   5.394   1.209   4.323
  1164G12c C01H21535   5.447   1.028   4.431
  1164G12c H00B21536   5.345   0.992   4.431
  1164G12c C01I21537   5.552   0.941   4.466
  1164G12c C01U21538   5.715   1.093   4.381
  1164G12c C00S21539   6.085   0.763   4.109
  1164G12c C00K21540   5.945   0.706   4.274
  1164G12c C00N21541   5.821   1.065   4.292
  1164G12c C00021542   5.687   0.990   4.471
  1164G12c C01J21543   5.561   0.796   4.463
  1164G12c C01K21544   5.454   0.703   4.466
  1164G12c C01P21545   5.334   0.711   4.536
  1164G12c C01Q21546   5.308   0.820   4.632
  1164G12c H00G21547   5.389   0.855   4.695
  1164G12c C01R21548   5.198   0.896   4.616
  1164G12c H00F21549   5.118   0.860   4.553
  1164G12c C01S21550   5.175   1.017   4.702
  1164G12c H00E21551   5.081   0.999   4.754
  1164G12c H00D21552   5.252   1.016   4.779
  1164G12c O00521553   5.172   1.122   4.610
  1164G12c H00C21554   5.240   1.184   4.631
  1164G12c C01O21555   5.222   0.621   4.510
  1164G12c H00H21556   5.127   0.647   4.554
  1164G12c C01N21557   5.245   0.509   4.428
  1164G12c O00621558   5.151   0.410   4.406
  1164G12c C01T21559   5.021   0.430   4.465
  1164G12c H00K21560   4.954   0.350   4.434
  1164G12c H00J21561   4.974   0.518   4.422
  1164G12c H00I21562   5.009   0.441   4.573
  1164G12c C01M21563   5.378   0.487   4.383
  1164G12c C02021564   5.850   0.603   4.321
  1164G12c C02121565   5.866   0.464   4.301
  1164G12c C01L21566   5.484   0.579   4.401
  1164G12c O00721567   5.394   0.376   4.301
  1164G12c C02221568   5.758   0.377   4.283
  1164G12c C02321569   5.959   0.424   4.198
  1164G12c C00G21570   6.035   0.382   3.937
  1164G12c C00E21571   6.077   0.231   3.749
  1164G12c O00A21572   6.132   0.190   3.631
  1164G12c C02421573   6.233   0.098   3.641
  1164G12c H00V21574   6.283   0.130   3.733
  1164G12c H00U21575   6.297   0.104   3.553
  1164G12c H00T21576   6.200   6.516   3.658
  1174G12c C00D21577   4.741   4.974   7.156
  1174G12c O00B21578   4.615   4.944   7.111
  1174G12c C02521579   4.595   4.965   6.981
  1174G12c C02621580   4.550   5.112   6.960
  1174G12c H00Y21581   4.474   5.127   7.038
  1174G12c H00X21582   4.517   5.143   6.861
  1174G12c O00C21583   4.659   5.199   6.986
  1174G12c H00W21584   4.728   5.137   7.003
  1174G12c C02721585   4.606   4.868   6.887
  1174G12c O00D21586   4.670   4.751   6.927
  1174G12c H00Z21587   4.691   4.770   7.017
  1174G12c C02821588   4.565   4.880   6.748
  1174G12c C02921589   4.509   4.765   6.679
  1174G12c H01021590   4.489   4.670   6.726
  1174G12c C02T21591   4.480   4.769   6.544
  1174G12c H01O21592   4.426   4.689   6.496
  1174G12c C02S21593   4.507   4.885   6.473
  1174G12c O00J21594   4.463   4.893   6.348
  1174G12c H01P21595   4.452   4.982   6.317
  1174G12c C02R21596   4.567   4.996   6.533
  1174G12c O00I21597   4.596   5.103   6.453
  1174G12c C02Q21598   4.714   5.178   6.488
  1174G12c H01N21599   4.720   5.218   6.589
  1174G12c H01R21600   4.723   5.270   6.431
  1174G12c H01Q21601   4.806   5.119   6.482
  1174G12c C02A21602   4.595   4.992   6.673
  1174G12c H01121603   4.649   5.075   6.717
  1174G12c C00C21604   4.858   4.987   7.074
  1174G12c H01221605   4.849   4.972   6.967
  1174G12c C00B21606   4.974   5.037   7.130
  1174G12c C00A21607   5.097   5.068   7.062
  1174G12c C00921608   5.154   5.015   6.935
  1174G12c C00821609   5.115   4.902   6.855
  1174G12c H01321610   5.018   4.858   6.837
  1174G12c C00721611   5.215   4.842   6.776
  1174G12c H01421612   5.185   4.758   6.715
  1174G12c C00621613   5.353   4.881   6.784
  1174G12c C00521614   5.385   4.988   6.870
  1174G12c C00421615   5.515   4.998   6.922
  1174G12c C00321616   5.542   5.083   7.035
  1174G12c C00221617   5.681   5.102   7.069
  1174G12c C00121618   5.736   5.163   7.191
  1174G12c C00M21619   5.686   5.150   7.325
  1174G12c C00L21620   5.550   5.185   7.351
  1174G12c C00R21621   5.485   5.147   7.472
  1174G12c C00Q21622   5.530   5.088   7.594
  1174G12c C00V21623   5.425   5.067   7.689
  1174G12c C00U21624   5.289   5.056   7.651
  1174G12c C00T21625   5.247   5.099   7.528
  1174G12c C01621626   5.125   5.077   7.469
  1174G12c C01521627   5.023   5.032   7.554
  1174G12c C01021628   5.055   4.998   7.687
  1174G12c C01121629   4.951   4.947   7.771
  1174G12c H00521630   4.968   4.931   7.876
  1174G12c C01221631   4.825   4.919   7.725
  1174G12c C01721632   4.724   4.867   7.806
  1174G12c O00221633   4.738   4.752   7.875
  1174G12c H00421634   4.818   4.704   7.855
  1174G12c C01821635   4.613   4.937   7.829
  1174G12c O00121636   4.580   5.047   7.753
  1174G12c H00321637   4.487   5.057   7.766
  1174G12c C01921638   4.496   4.877   7.904
  1174G12c H00221639   4.498   4.768   7.911
  1174G12c H00121640   4.502   4.911   8.008
  1174G12c O00021641   4.380   4.928   7.849
  1174G12c C01A21642   4.264   4.854   7.874
  1174G12c C02K21643   4.179   4.812   7.767
  1174G12c O00G21644   4.206   4.848   7.641
  1174G12c C02M21645   4.338   4.817   7.593
  1174G12c H01G21646   4.413   4.885   7.633
  1174G12c H01F21647   4.318   4.839   7.488
  1174G12c H01E21648   4.374   4.715   7.612
  1174G12c C02J21649   4.062   4.730   7.795
  1174G12c H01H21650   4.005   4.693   7.712
  1174G12c C02I21651   4.034   4.689   7.926
  1174G12c C02N21652   3.929   4.599   7.953
  1174G12c H01M21653   3.828   4.612   7.915
  1174G12c C02O21654   3.961   4.486   8.017
  1174G12c H01L21655   4.059   4.471   8.060
  1174G12c C02P21656   3.877   4.365   8.055
  1174G12c H01K21657   3.850   4.385   8.159
  1174G12c H01J21658   3.785   4.366   7.996
  1174G12c O00H21659   3.944   4.240   8.046
  1174G12c H01I21660   4.030   4.272   8.024
  1174G12c C02H21661   4.114   4.742   8.034
  1174G12c H01C21662   4.084   4.710   8.133
  1174G12c C02L21663   4.225   4.822   8.007
  1174G12c H01D21664   4.275   4.853   8.097
  1174G12c C01321665   4.803   4.939   7.589
  1174G12c H00021666   4.710   4.898   7.552
  1174G12c C01421667   4.900   4.992   7.499
  1174G12c C00F21668   4.877   5.007   7.355
  1174G12c C00H21669   5.106   5.092   7.335
  1174G12c C00I21670   5.212   5.142   7.259
  1174G12c C00J21671   5.332   5.177   7.320
  1174G12c C00Z21672   5.187   5.011   7.738
  1174G12c C00Y21673   5.228   4.971   7.869
  1174G12c H00621674   5.157   4.925   7.936
  1174G12c C00X21675   5.361   4.986   7.919
  1174G12c O00321676   5.406   4.956   8.045
  1174G12c C01B21677   5.312   4.885   8.123
  1174G12c H00921678   5.263   4.797   8.082
  1174G12c H00821679   5.242   4.963   8.152
  1174G12c H00721680   5.362   4.847   8.212
  1174G12c C00W21681   5.460   5.032   7.824
  1174G12c O00421682   5.589   5.045   7.867
  1174G12c C01C21683   5.679   5.011   7.770
  1174G12c H00A21684   5.756   4.943   7.804
  1174G12c C00P21685   5.661   5.055   7.635
  1174G12c C00O21686   5.774   5.036   7.548
  1174G12c C01D21687   5.900   4.979   7.587
  1174G12c H00S21688   5.934   4.970   7.689
  1174G12c C01E21689   6.000   4.931   7.496
  1174G12c O00821690   6.111   4.867   7.541
  1174G12c C01V21691   6.234   4.934   7.525
  1174G12c C01Z21692   6.357   4.851   7.565
  1174G12c H00R21693   6.395   4.810   7.472
  1174G12c H00Q21694   6.441   4.910   7.601
  1174G12c O00921695   6.312   4.745   7.648
  1174G12c H00P21696   6.226   4.716   7.623
  1174G12c C01W21697   6.251   5.057   7.473
  1174G12c H00O21698   6.167   5.114   7.437
  1174G12c C01X21699   6.380   5.133   7.442
  1174G12c H00N21700   6.363   5.230   7.489
  1174G12c H00M21701   6.463   5.072   7.478
  1174G12c C01Y21702   6.388   5.146   7.290
  1174G12c C02D21703   6.333   5.041   7.213
  1174G12c H01921704   6.305   4.943   7.248
  1174G12c C02C21705   6.301   5.062   7.076
  1174G12c H01A21706   6.246   4.983   7.027
  1174G12c C02B21707   6.348   5.179   7.010
  1174G12c O00E21708   6.328   5.196   6.876
  1174G12c H01B21709   6.364   5.281   6.854
  1174G12c C02F21710   6.412   5.280   7.083
  1174G12c O00F21711   6.444   5.389   7.010
  1174G12c C02G21712   6.506   5.503   7.084
  1174G12c H01721713   0.014   5.584   7.016
  1174G12c H01621714   0.072   5.467   7.139
  1174G12c H01521715   6.434   5.542   7.156
  1174G12c C02E21716   6.423   5.270   7.225
  1174G12c H01821717   6.448   5.359   7.280
  1174G12c C01F21718   5.976   4.955   7.360
  1174G12c C01G21719   6.035   4.883   7.252
  1174G12c H00L21720   6.107   4.808   7.282
  1174G12c C01H21721   5.988   4.906   7.116
  1174G12c H00B21722   6.006   4.829   7.043
  1174G12c C01I21723   5.893   5.012   7.091
  1174G12c C01U21724   5.886   5.052   7.323
  1174G12c C00S21725   5.347   5.156   7.452
  1174G12c C00K21726   5.454   5.177   7.246
  1174G12c C00N21727   5.777   5.078   7.411
  1174G12c C00021728   5.864   5.107   7.196
  1174G12c C01J21729   5.780   5.017   7.002
  1174G12c C01K21730   5.752   4.928   6.891
  1174G12c C01P21731   5.851   4.864   6.809
  1174G12c C01Q21732   5.989   4.899   6.812
  1174G12c H00G21733   6.015   5.003   6.823
  1174G12c C01R21734   6.086   4.804   6.788
  1174G12c H00F21735   6.062   4.701   6.767
  1174G12c C01S21736   6.224   4.838   6.769
  1174G12c H00E21737   6.245   4.945   6.773
  1174G12c H00D21738   6.270   4.795   6.858
  1174G12c O00521739   6.286   4.788   6.651
  1174G12c H00C21740   6.374   4.758   6.667
  1174G12c C01O21741   5.812   4.772   6.706
  1174G12c H00H21742   5.886   4.717   6.651
  1174G12c C01N21743   5.682   4.748   6.683
  1174G12c O00621744   5.654   4.656   6.584
  1174G12c C01T21745   5.584   4.709   6.478
  1174G12c H00K21746   5.644   4.796   6.450
  1174G12c H00J21747   5.479   4.728   6.502
  1174G12c H00I21748   5.589   4.628   6.405
  1174G12c C01M21749   5.580   4.830   6.750
  1174G12c C02021750   5.437   5.146   7.107
  1174G12c C02121751   5.310   5.151   7.042
  1174G12c C01L21752   5.616   4.922   6.857
  1174G12c O00721753   5.449   4.810   6.716
  1174G12c C02221754   5.289   5.067   6.934
  1174G12c C02321755   5.192   5.151   7.124
  1174G12c C00G21756   4.986   5.046   7.271
  1174G12c C00E21757   4.751   4.982   7.296
  1174G12c O00A21758   4.634   4.984   7.370
  1174G12c C02421759   4.600   5.111   7.392
  1174G12c H00V21760   4.665   5.187   7.436
  1174G12c H00U21761   4.518   5.121   7.464
  1174G12c H00T21762   4.572   5.155   7.297
  1184G12c C00D21763   6.163   3.710   3.231
  1184G12c O00B21764   6.205   3.602   3.151
  1184G12c C02521765   6.344   3.603   3.127
  1184G12c C02621766   6.426   3.519   3.228
  1184G12c H00Y21767   6.451   3.590   3.307
  1184G12c H00X21768   6.519   3.470   3.200
  1184G12c O00C21769   6.335   3.413   3.260
  1184G12c H00W21770   6.252   3.426   3.217
  1184G12c C02721771   6.385   3.658   3.010
  1184G12c O00D21772   6.292   3.715   2.925
  1184G12c H00Z21773   6.208   3.712   2.967
  1184G12c C02821774   0.001   3.636   2.970
  1184G12c C02921775   0.027   3.597   2.836
  1184G12c H01021776   6.466   3.575   2.770
  1184G12c C02T21777   0.159   3.564   2.796
  1184G12c H01O21778   0.182   3.543   2.693
  1184G12c C02S21779   0.264   3.567   2.886
  1184G12c O00J21780   0.390   3.541   2.835
  1184G12c H01P21781   0.448   3.531   2.909
  1184G12c C02R21782   0.241   3.609   3.019
  1184G12c O00I21783   0.350   3.624   3.102
  1184G12c C02Q21784   0.327   3.626   3.243
  1184G12c H01N21785   0.257   3.703   3.274
  1184G12c H01R21786   0.412   3.631   3.311
  1184G12c H01Q21787   0.271   3.537   3.275
  1184G12c C02A21788   0.113   3.652   3.052
  1184G12c H01121789   0.087   3.682   3.152
  1184G12c C00C21790   6.195   3.704   3.369
  1184G12c H01221791   6.245   3.614   3.398
  1184G12c C00B21792   6.160   3.805   3.460
  1184G12c C00A21793   6.171   3.805   3.608
  1184G12c C00921794   6.180   3.698   3.710
  1184G12c C00821795   6.164   3.557   3.703
  1184G12c H01321796   6.178   3.506   3.609
  1184G12c C00721797   6.120   3.490   3.818
  1184G12c H01421798   6.114   3.382   3.820
  1184G12c C00621799   6.071   3.558   3.927
  1184G12c C00521800   6.080   3.698   3.933
  1184G12c C00421801   6.020   3.779   4.032
  1184G12c C00321802   6.006   3.914   4.007
  1184G12c C00221803   5.928   3.983   4.108
  1184G12c C00121804   5.891   4.114   4.118
  1184G12c C00M21805   5.835   4.191   4.011
  1184G12c C00L21806   5.899   4.208   3.891
  1184G12c C00R21807   5.835   4.244   3.767
  1184G12c C00Q21808   5.702   4.297   3.740
  1184G12c C00V21809   5.671   4.318   3.602
  1184G12c C00U21810   5.752   4.258   3.503
  1184G12c C00T21811   5.865   4.190   3.528
  1184G12c C01621812   5.942   4.113   3.441
  1184G12c C01521813   5.898   4.111   3.312
  1184G12c C01021814   5.790   4.189   3.274
  1184G12c C01121815   5.764   4.201   3.135
  1184G12c H00521816   5.684   4.262   3.095
  1184G12c C01221817   5.848   4.148   3.037
  1184G12c C01721818   5.838   4.190   2.894
  1184G12c O00221819   5.796   4.316   2.879
  1184G12c H00421820   5.839   4.370   2.943
  1184G12c C01821821   5.840   4.104   2.793
  1184G12c O00121822   5.863   3.973   2.799
  1184G12c H00321823   5.842   3.952   2.709
  1184G12c C01921824   5.820   4.156   2.656
  1184G12c H00221825   5.727   4.213   2.658
  1184G12c H00121826   5.899   4.223   2.621
  1184G12c O00021827   5.805   4.053   2.555
  1184G12c C01A21828   5.806   4.100   2.422
  1184G12c C02K21829   5.869   4.017   2.327
  1184G12c O00G21830   5.943   3.908   2.380
  1184G12c C02M21831   5.996   3.812   2.292
  1184G12c H01G21832   6.034   3.727   2.349
  1184G12c H01F21833   6.068   3.851   2.221
  1184G12c H01E21834   5.902   3.790   2.242
  1184G12c C02J21835   5.883   4.050   2.186
  1184G12c H01H21836   5.937   3.985   2.119
  1184G12c C02I21837   5.827   4.178   2.143
  1184G12c C02N21838   5.819   4.200   2.001
  1184G12c H01M21839   5.736   4.260   1.965
  1184G12c C02O21840   5.909   4.145   1.910
  1184G12c H01L21841   5.995   4.090   1.947
  1184G12c C02P21842   5.898   4.162   1.761
  1184G12c H01K21843   5.986   4.208   1.716
  1184G12c H01J21844   5.884   4.068   1.708
  1184G12c O00H21845   5.779   4.243   1.728
  1184G12c H01I21846   5.773   4.317   1.786
  1184G12c C02H21847   5.769   4.264   2.243
  1184G12c H01C21848   5.729   4.358   2.206
  1184G12c C02L21849   5.757   4.224   2.377
  1184G12c H01D21850   5.722   4.294   2.451
  1184G12c C01321851   5.941   4.053   3.084
  1184G12c H00021852   6.006   4.001   3.015
  1184G12c C01421853   5.965   4.031   3.221
  1184G12c C00F21854   6.045   3.921   3.267
  1184G12c C00H21855   6.037   4.021   3.489
  1184G12c C00I21856   6.085   4.035   3.622
  1184G12c C00J21857   6.025   4.132   3.704
  1184G12c C00Z21858   5.715   4.255   3.366
  1184G12c C00Y21859   5.598   4.331   3.326
  1184G12c H00621860   5.564   4.342   3.224
  1184G12c C00X21861   5.524   4.403   3.422
  1184G12c O00321862   5.410   4.456   3.378
  1184G12c C01B21863   5.338   4.556   3.445
  1184G12c H00921864   5.268   4.524   3.523
  1184G12c H00821865   5.274   4.602   3.370
  1184G12c H00721866   5.407   4.633   3.478
  1184G12c C00W21867   5.558   4.387   3.562
  1184G12c O00421868   5.467   4.427   3.650
  1184G12c C01C21869   5.503   4.425   3.786
  1184G12c H00A21870   5.449   4.495   3.849
  1184G12c C00P21871   5.604   4.341   3.836
  1184G12c C00O21872   5.588   4.295   3.973
  1184G12c C01D21873   5.462   4.310   4.039
  1184G12c H00S21874   5.375   4.357   3.995
  1184G12c C01E21875   5.440   4.249   4.165
  1184G12c O00821876   5.314   4.251   4.227
  1184G12c C01V21877   5.288   4.374   4.274
  1184G12c C01Z21878   5.355   4.421   4.401
  1184G12c H00R21879   5.273   4.453   4.466
  1184G12c H00Q21880   5.384   4.330   4.455
  1184G12c O00921881   5.454   4.517   4.372
  1184G12c H00P21882   5.503   4.537   4.451
  1184G12c C01W21883   5.178   4.436   4.232
  1184G12c H00O21884   5.118   4.377   4.163
  1184G12c C01X21885   5.121   4.567   4.284
  1184G12c H00N21886   5.198   4.624   4.337
  1184G12c H00M21887   5.087   4.623   4.197
  1184G12c C01Y21888   5.016   4.544   4.399
  1184G12c C02D21889   4.967   4.416   4.424
  1184G12c H01921890   4.981   4.332   4.358
  1184G12c C02C21891   4.894   4.387   4.539
  1184G12c H01A21892   4.848   4.297   4.575
  1184G12c C02B21893   4.874   4.492   4.631
  1184G12c O00E21894   4.798   4.468   4.741
  1184G12c H01B21895   4.791   4.541   4.801
  1184G12c C02F21896   4.927   4.624   4.610
  1184G12c O00F21897   4.915   4.711   4.715
  1184G12c C02G21898   5.007   4.821   4.722
  1184G12c H01721899   5.012   4.849   4.827
  1184G12c H01621900   4.957   4.913   4.693
  1184G12c H01521901   5.110   4.795   4.698
  1184G12c C02E21902   5.001   4.651   4.492
  1184G12c H01821903   5.039   4.749   4.465
  1184G12c C01F21904   5.547   4.169   4.223
  1184G12c C01G21905   5.536   4.066   4.323
  1184G12c H00L21906   5.443   4.041   4.371
  1184G12c C01H21907   5.649   3.977   4.350
  1184G12c H00B21908   5.634   3.895   4.419
  1184G12c C01I21909   5.763   3.987   4.274
  1184G12c C01U21910   5.676   4.176   4.163
  1184G12c C00S21911   5.915   4.202   3.659
  1184G12c C00K21912   6.001   4.118   3.844
  1184G12c C00N21913   5.695   4.228   4.041
  1184G12c C00021914   5.791   4.113   4.217
  1184G12c C01J21915   5.871   3.910   4.221
  1184G12c C01K21916   5.889   3.772   4.247
  1184G12c C01P21917   5.860   3.682   4.365
  1184G12c C01Q21918   5.823   3.756   4.482
  1184G12c H00G21919   5.864   3.854   4.496
  1184G12c C01R21920   5.732   3.715   4.573
  1184G12c H00F21921   5.696   3.614   4.560
  1184G12c C01S21922   5.681   3.781   4.701
  1184G12c H00E21923   5.697   3.888   4.688
  1184G12c H00D21924   5.573   3.774   4.713
  1184G12c O00521925   5.741   3.729   4.818
  1184G12c H00C21926   5.686   3.745   4.893
  1184G12c C01O21927   5.888   3.546   4.366
  1184G12c H00H21928   5.874   3.493   4.460
  1184G12c C01N21929   5.935   3.487   4.249
  1184G12c O00621930   5.956   3.348   4.239
  1184G12c C01T21931   5.929   3.261   4.355
  1184G12c H00K21932   6.006   3.265   4.433
  1184G12c H00J21933   5.926   3.157   4.322
  1184G12c H00I21934   5.834   3.291   4.399
  1184G12c C01M21935   5.975   3.568   4.142
  1184G12c C02021936   6.053   3.988   3.891
  1184G12c C02121937   6.136   3.902   3.816
  1184G12c C01L21938   5.955   3.711   4.138
  1184G12c O00721939   6.016   3.492   4.034
  1184G12c C02221940   6.152   3.770   3.829
  1184G12c C02321941   6.162   3.930   3.678
  1184G12c C00G21942   6.086   3.914   3.405
  1184G12c C00E21943   6.081   3.813   3.180
  1184G12c O00A21944   6.031   3.798   3.053
  1184G12c C02421945   5.945   3.695   3.036
  1184G12c H00V21946   5.905   3.710   2.936
  1184G12c H00U21947   5.871   3.695   3.116
  1184G12c H00T21948   5.998   3.599   3.032
  1194G12c C00D21949   0.331   2.985   6.046
  1194G12c O00B21950   0.191   2.982   6.028
  1194G12c C02521951   0.147   2.957   5.901
  1194G12c C02621952   0.148   3.088   5.814
  1194G12c H00Y21953   0.174   3.059   5.712
  1194G12c H00X21954   0.230   3.147   5.854
  1194G12c O00C21955   0.032   3.166   5.809
  1194G12c H00W21956   6.493   3.136   5.876
  1194G12c C02721957   0.109   2.832   5.862
  1194G12c O00D21958   0.125   2.729   5.952
  1194G12c H00Z21959   0.132   2.770   6.037
  1194G12c C02821960   0.062   2.799   5.726
  1194G12c C02921961   0.104   2.682   5.666
  1194G12c H01021962   0.175   2.619   5.717
  1194G12c C02T21963   0.067   2.646   5.537
  1194G12c H01O21964   0.101   2.550   5.501
  1194G12c C02S21965   6.499   2.722   5.462
  1194G12c O00J21966   6.460   2.691   5.336
  1194G12c H01P21967   6.414   2.766   5.302
  1194G12c C02R21968   6.448   2.840   5.516
  1194G12c O00I21969   6.370   2.923   5.437
  1194G12c C02Q21970   6.330   3.045   5.492
  1194G12c H01N21971   6.269   3.095   5.418
  1194G12c H01R21972   6.415   3.110   5.512
  1194G12c H01Q21973   6.274   3.022   5.582
  1194G12c C02A21974   6.488   2.879   5.649
  1194G12c H01121975   6.451   2.968   5.699
  1194G12c C00C21976   0.375   3.000   6.184
  1194G12c H01221977   0.294   3.002   6.255
  1194G12c C00B21978   0.510   2.996   6.221
  1194G12c C00A21979   0.574   2.997   6.347
  1194G12c C00921980   0.528   3.058   6.474
  1194G12c C00821981   0.428   3.151   6.510
  1194G12c H01321982   0.341   3.163   6.447
  1194G12c C00721983   0.452   3.228   6.628
  1194G12c H01421984   0.377   3.302   6.648
  1194G12c C00621985   0.571   3.222   6.706
  1194G12c C00521986   0.668   3.135   6.662
  1194G12c C00421987   0.806   3.140   6.708
  1194G12c C00321988   0.911   3.077   6.633
  1194G12c C00221989   1.045   3.095   6.681
  1194G12c C00121990   1.175   3.073   6.629
  1194G12c C00M21991   1.211   3.074   6.492
  1194G12c C00L21992   1.125   3.026   6.389
  1194G12c C00R21993   1.133   3.048   6.249
  1194G12c C00Q21994   1.223   3.133   6.175
  1194G12c C00V21995   1.176   3.150   6.044
  1194G12c C00U21996   1.055   3.102   5.988
  1194G12c C00T21997   0.966   3.039   6.068
  1194G12c C01621998   0.835   3.014   6.036
  1194G12c C01521999   0.792   3.041   5.905
  1194G12c C01022000   0.887   3.103   5.817
  1194G12c C01122001   0.842   3.131   5.681
  1194G12c H00522002   0.900   3.179   5.604
  1194G12c C01222003   0.711   3.104   5.642
  1194G12c C01722004   0.669   3.130   5.503
  1194G12c O00222005   0.709   3.244   5.439
  1194G12c H00422006   0.670   3.241   5.353
  1194G12c C01822007   0.591   3.035   5.444
  1194G12c O00122008   0.550   2.926   5.519
  1194G12c H00322009   0.602   2.916   5.597
  1194G12c C01922010   0.524   3.047   5.305
  1194G12c H00222011   0.528   2.943   5.272
  1194G12c H00122012   0.422   3.078   5.324
  1194G12c O00022013   0.602   3.129   5.220
  1194G12c C01A22014   0.532   3.181   5.111
  1194G12c C02K22015   0.467   3.300   5.121
  1194G12c O00G22016   0.481   3.372   5.240
  1194G12c C02M22017   0.388   3.486   5.246
  1194G12c H01G22018   0.284   3.457   5.238
  1194G12c H01F22019   0.416   3.562   5.173
  1194G12c H01E22020   0.393   3.533   5.345
  1194G12c C02J22021   0.401   3.355   5.007
  1194G12c H01H22022   0.355   3.453   5.004
  1194G12c C02I22023   0.397   3.284   4.886
  1194G12c C02N22024   0.329   3.346   4.779
  1194G12c H01M22025   0.327   3.453   4.773
  1194G12c C02O22026   0.266   3.273   4.687
  1194G12c H01L22027   0.277   3.166   4.693
  1194G12c C02P22028   0.180   3.332   4.578
  1194G12c H01K22029   0.077   3.298   4.570
  1194G12c H01J22030   0.170   3.436   4.608
  1194G12c O00H22031   0.252   3.349   4.454
  1194G12c H01I22032   0.204   3.418   4.411
  1194G12c C02H22033   0.457   3.154   4.886
  1194G12c H01C22034   0.463   3.091   4.799
  1194G12c C02L22035   0.530   3.099   4.996
  1194G12c H01D22036   0.578   3.003   4.988
  1194G12c C01322037   0.621   3.062   5.747
  1194G12c H00022038   0.516   3.075   5.725
  1194G12c C01422039   0.661   3.019   5.878
  1194G12c C00F22040   0.570   2.991   5.984
  1194G12c C00H22041   0.751   2.979   6.142
  1194G12c C00I22042   0.800   2.950   6.267
  1194G12c C00J22043   0.936   2.964   6.286
  1194G12c C00Z22044   1.015   3.134   5.857
  1194G12c C00Y22045   1.101   3.207   5.771
  1194G12c H00622046   1.074   3.235   5.670
  1194G12c C00X22047   1.224   3.241   5.818
  1194G12c O00322048   1.320   3.305   5.737
  1194G12c C01B22049   1.279   3.348   5.606
  1194G12c H00922050   1.254   3.263   5.543
  1194G12c H00822051   1.369   3.399   5.570
  1194G12c H00722052   1.195   3.416   5.617
  1194G12c C00W22053   1.261   3.221   5.951
  1194G12c O00422054   1.376   3.285   5.984
  1194G12c C01C22055   1.417   3.274   6.114
  1194G12c H00A22056   1.519   3.299   6.137
  1194G12c C00P22057   1.343   3.208   6.215
  1194G12c C00O22058   1.371   3.234   6.356
  1194G12c C01D22059   1.452   3.350   6.385
  1194G12c H00S22060   1.483   3.406   6.298
  1194G12c C01E22061   1.458   3.417   6.508
  1194G12c O00822062   1.507   3.541   6.526
  1194G12c C01V22063   1.446   3.641   6.446
  1194G12c C01Z22064   1.559   3.720   6.374
  1194G12c H00R22065   1.558   3.823   6.409
  1194G12c H00Q22066   1.645   3.670   6.419
  1194G12c O00922067   1.571   3.711   6.232
  1194G12c H00P22068   1.515   3.775   6.190
  1194G12c C01W22069   1.312   3.663   6.441
  1194G12c H00O22070   1.245   3.597   6.492
  1194G12c C01X22071   1.241   3.781   6.374
  1194G12c H00N22072   1.167   3.824   6.443
  1194G12c H00M22073   1.318   3.856   6.358
  1194G12c C01Y22074   1.177   3.723   6.243
  1194G12c C02D22075   1.253   3.636   6.155
  1194G12c H01922076   1.354   3.607   6.177
  1194G12c C02C22077   1.191   3.590   6.038
  1194G12c H01A22078   1.250   3.537   5.965
  1194G12c C02B22079   1.052   3.603   6.019
  1194G12c O00E22080   0.997   3.568   5.906
  1194G12c H01B22081   0.907   3.594   5.908
  1194G12c C02F22082   0.975   3.671   6.115
  1194G12c O00F22083   0.835   3.682   6.082
  1194G12c C02G22084   0.753   3.737   6.184
  1194G12c H01722085   0.783   3.677   6.270
  1194G12c H01622086   0.647   3.717   6.169
  1194G12c H01522087   0.773   3.844   6.191
  1194G12c C02E22088   1.040   3.736   6.225
  1194G12c H01822089   0.981   3.781   6.304
  1194G12c C01F22090   1.398   3.352   6.618
  1194G12c C01G22091   1.355   3.419   6.734
  1194G12c H00L22092   1.380   3.523   6.749
  1194G12c C01H22093   1.252   3.366   6.824
  1194G12c H00B22094   1.213   3.426   6.906
  1194G12c C01I22095   1.204   3.239   6.798
  1194G12c C01U22096   1.348   3.219   6.604
  1194G12c C00S22097   1.020   2.993   6.190
  1194G12c C00K22098   0.997   2.974   6.416
  1194G12c C00N22099   1.317   3.173   6.470
  1194G12c C00022100   1.263   3.158   6.702
  1194G12c C01J22101   1.066   3.185   6.794
  1194G12c C01K22102   0.965   3.247   6.869
  1194G12c C01P22103   0.971   3.307   7.002
  1194G12c C01Q22104   1.081   3.295   7.094
  1194G12c H00G22105   1.131   3.380   7.137
  1194G12c C01R22106   1.123   3.167   7.117
  1194G12c H00F22107   1.066   3.083   7.079
  1194G12c C01S22108   1.248   3.133   7.204
  1194G12c H00E22109   1.215   3.105   7.304
  1194G12c H00D22110   1.290   3.040   7.167
  1194G12c O00522111   1.342   3.239   7.195
  1194G12c H00C22112   1.356   3.277   7.281
  1194G12c C01O22113   0.856   3.374   7.057
  1194G12c H00H22114   0.872   3.436   7.143
  1194G12c C01N22115   0.738   3.371   6.987
  1194G12c O00622116   0.639   3.444   7.049
  1194G12c C01T22117   0.546   3.366   7.124
  1194G12c H00K22118   0.573   3.299   7.206
  1194G12c H00J22119   0.472   3.317   7.061
  1194G12c H00I22120   0.479   3.442   7.165
  1194G12c C01M22121   0.721   3.298   6.873
  1194G12c C02022122   0.897   3.000   6.517
  1194G12c C02122123   0.754   2.978   6.496
  1194G12c C01L22124   0.835   3.224   6.817
  1194G12c O00722125   0.598   3.307   6.817
  1194G12c C02222126   0.647   3.045   6.555
  1194G12c C02322127   0.701   2.947   6.368
  1194G12c C00G22128   0.611   2.986   6.118
  1194G12c C00E22129   0.433   2.961   5.949
  1194G12c O00A22130   0.398   2.910   5.826
  1194G12c C02422131   0.446   2.779   5.801
  1194G12c H00V22132   0.387   2.722   5.872
  1194G12c H00U22133   0.548   2.775   5.840
  1194G12c H00T22134   0.432   2.749   5.697
  1204G12c C00D22135   2.745   6.423   7.858
  1204G12c O00B22136   2.607   6.419   7.848
  1204G12c C02522137   2.548   6.433   7.722
  1204G12c C02622138   2.516   0.063   7.682
  1204G12c H00Y22139   2.460   0.121   7.755
  1204G12c H00X22140   2.451   0.064   7.595
  1204G12c O00C22141   2.636   0.132   7.651
  1204G12c H00W22142   2.599   0.218   7.636
  1204G12c C02722143   2.543   6.320   7.647
  1204G12c O00D22144   2.571   6.204   7.709
  1204G12c H00Z22145   2.555   6.200   7.802
  1204G12c C02822146   2.534   6.311   7.506
  1204G12c C02922147   2.578   6.420   7.420
  1204G12c H01022148   2.600   6.514   7.469
  1204G12c C02T22149   2.589   6.400   7.278
  1204G12c H01O22150   2.627   6.482   7.218
  1204G12c C02S22151   2.548   6.277   7.224
  1204G12c O00J22152   2.569   6.253   7.094
  1204G12c H01P22153   2.551   6.164   7.068
  1204G12c C02R22154   2.497   6.183   7.303
  1204G12c O00I22155   2.444   6.071   7.236
  1204G12c C02Q22156   2.359   5.978   7.300
  1204G12c H01N22157   2.400   5.928   7.387
  1204G12c H01R22158   2.318   5.918   7.219
  1204G12c H01Q22159   2.276   6.033   7.346
  1204G12c C02A22160   2.485   6.194   7.444
  1204G12c H01122161   2.453   6.106   7.498
  1204G12c C00C22162   2.831   6.435   7.744
  1204G12c H01222163   2.789   6.432   7.644
  1204G12c C00B22164   2.964   6.474   7.752
  1204G12c C00A22165   3.047   6.518   7.640
  1204G12c C00922166   3.034   6.479   7.505
  1204G12c C00822167   2.944   6.404   7.434
  1204G12c H01322168   2.840   6.401   7.463
  1204G12c C00722169   2.985   6.343   7.308
  1204G12c H01422170   2.923   6.270   7.257
  1204G12c C00622171   3.121   6.348   7.259
  1204G12c C00522172   3.211   6.423   7.340
  1204G12c C00422173   3.353   6.418   7.327
  1204G12c C00322174   3.435   6.469   7.432
  1204G12c C00222175   3.572   6.441   7.420
  1204G12c C00122176   3.687   6.463   7.506
  1204G12c C00M22177   3.686   6.430   7.645
  1204G12c C00L22178   3.584   6.469   7.733
  1204G12c C00R22179   3.568   6.433   7.866
  1204G12c C00Q22180   3.639   6.347   7.949
  1204G12c C00V22181   3.578   6.328   8.072
  1204G12c C00U22182   3.444   6.363   8.100
  1204G12c C00T22183   3.366   6.430   8.004
  1204G12c C01622184   3.231   6.448   8.004
  1204G12c C01522185   3.162   6.392   8.109
  1204G12c C01022186   3.235   6.341   8.220
  1204G12c C01122187   3.164   6.313   8.340
  1204G12c H00522188   3.216   6.266   8.422
  1204G12c C01222189   3.030   6.352   8.358
  1204G12c C01722190   2.965   6.333   8.485
  1204G12c O00222191   2.898   6.215   8.519
  1204G12c H00422192   2.910   6.164   8.440
  1204G12c C01822193   2.948   6.439   8.556
  1204G12c O00122194   2.976   0.044   8.521
  1204G12c H00322195   2.937   0.088   8.595
  1204G12c C01922196   2.872   6.436   8.696
  1204G12c H00222197   2.766   6.450   8.673
  1204G12c H00122198   2.876   6.340   8.749
  1204G12c O00022199   2.923   0.017   8.773
  1204G12c C01A22200   2.846   0.086   8.856
  1204G12c C02K22201   2.903   0.202   8.906
  1204G12c O00G22202   3.036   0.218   8.870
  1204G12c C02M22203   3.100   0.345   8.904
  1204G12c H01G22204   3.050   0.429   8.856
  1204G12c H01F22205   3.204   0.336   8.873
  1204G12c H01E22206   3.111   0.350   9.013
  1204G12c C02J22207   2.832   0.290   8.989
  1204G12c H01H22208   2.870   0.386   9.019
  1204G12c C02I22209   2.704   0.250   9.029
  1204G12c C02N22210   2.627   0.332   9.115
  1204G12c H01M22211   2.563   0.299   9.196
  1204G12c C02O22212   2.625   0.470   9.090
  1204G12c H01L22213   2.680   0.510   9.006
  1204G12c C02P22214   2.530   0.570   9.152
  1204G12c H01K22215   2.571   0.671   9.146
  1204G12c H01J22216   2.433   0.560   9.103
  1204G12c O00H22217   2.527   0.551   9.288
  1204G12c H01I22218   2.451   0.498   9.306
  1204G12c C02H22219   2.656   0.121   8.994
  1204G12c H01C22220   2.558   0.087   9.022
  1204G12c C02L22221   2.723   0.040   8.898
  1204G12c H01D22222   2.684   6.466   8.865
  1204G12c C01322223   2.962   6.398   8.244
  1204G12c H00022224   2.861   6.414   8.279
  1204G12c C01422225   3.021   6.409   8.114
  1204G12c C00F22226   2.956   6.443   7.992
  1204G12c C00H22227   3.167   6.496   7.888
  1204G12c C00I22228   3.241   0.021   7.779
  1204G12c C00J22229   3.383   0.023   7.792
  1204G12c C00Z22230   3.374   6.327   8.212
  1204G12c C00Y22231   3.457   6.285   8.320
  1204G12c H00622232   3.412   6.260   8.415
  1204G12c C00X22233   3.595   6.260   8.303
  1204G12c O00322234   3.667   6.219   8.411
  1204G12c C01B22235   3.635   6.273   8.541
  1204G12c H00922236   3.642   6.382   8.547
  1204G12c H00822237   3.716   6.252   8.611
  1204G12c H00722238   3.540   6.242   8.584
  1204G12c C00W22239   3.654   6.276   8.179
  1204G12c O00422240   3.789   6.250   8.159
  1204G12c C01C22241   3.821   6.200   8.037
  1204G12c H00A22242   3.869   6.104   8.030
  1204G12c C00P22243   3.756   6.264   7.923
  1204G12c C00O22244   3.796   6.236   7.788
  1204G12c C01D22245   3.886   6.128   7.755
  1204G12c H00S22246   3.919   6.070   7.840
  1204G12c C01E22247   3.916   6.087   7.624
  1204G12c O00822248   3.966   5.966   7.604
  1204G12c C01V22249   4.095   5.950   7.549
  1204G12c C01Z22250   4.105   5.820   7.462
  1204G12c H00R22251   4.021   5.819   7.392
  1204G12c H00Q22252   4.194   5.808   7.400
  1204G12c O00922253   4.084   5.721   7.555
  1204G12c H00P22254   3.995   5.735   7.582
  1204G12c C01W22255   4.190   6.052   7.555
  1204G12c H00O22256   4.160   6.138   7.613
  1204G12c C01X22257   4.316   6.071   7.480
  1204G12c H00N22258   4.314   6.015   7.387
  1204G12c H00M22259   4.312   6.174   7.445
  1204G12c C01Y22260   4.434   6.027   7.561
  1204G12c C02D22261   4.436   5.895   7.611
  1204G12c H01922262   4.355   5.826   7.590
  1204G12c C02C22263   4.541   5.862   7.701
  1204G12c H01A22264   4.545   5.766   7.751
  1204G12c C02B22265   4.643   5.954   7.733
  1204G12c O00E22266   4.747   5.923   7.814
  1204G12c H01B22267   4.826   5.972   7.802
  1204G12c C02F22268   4.641   6.083   7.683
  1204G12c O00F22269   4.742   6.165   7.722
  1204G12c C02G22270   4.760   6.283   7.645
  1204G12c H01722271   4.748   6.261   7.538
  1204G12c H01622272   4.857   6.332   7.656
  1204G12c H01522273   4.683   6.355   7.672
  1204G12c C02E22274   4.533   6.119   7.604
  1204G12c H01822275   4.530   6.224   7.578
  1204G12c C01F22276   3.875   6.163   7.514
  1204G12c C01G22277   3.872   6.127   7.380
  1204G12c H00L22278   3.912   6.030   7.357
  1204G12c C01H22279   3.800   6.201   7.284
  1204G12c H00B22280   3.768   6.154   7.192
  1204G12c C01I22281   3.748   6.326   7.324
  1204G12c C01U22282   3.830   6.295   7.536
  1204G12c C00S22283   3.442   6.481   7.899
  1204G12c C00K22284   3.459   6.521   7.676
  1204G12c C00N22285   3.767   6.316   7.671
  1204G12c C00022286   3.790   6.389   7.442
  1204G12c C01J22287   3.620   6.383   7.299
  1204G12c C01K22288   3.539   6.351   7.182
  1204G12c C01P22289   3.586   6.311   7.054
  1204G12c C01Q22290   3.723   6.335   7.015
  1204G12c H00G22291   3.767   6.433   7.027
  1204G12c C01R22292   3.793   6.243   6.944
  1204G12c H00F22293   3.749   6.151   6.908
  1204G12c C01S22294   3.934   6.263   6.885
  1204G12c H00E22295   3.956   6.369   6.877
  1204G12c H00D22296   4.015   6.228   6.948
  1204G12c O00522297   3.945   6.210   6.753
  1204G12c H00C22298   4.028   6.237   6.717
  1204G12c C01O22299   3.491   6.274   6.958
  1204G12c H00H22300   3.523   6.256   6.856
  1204G12c C01N22301   3.354   6.276   6.988
  1204G12c O00622302   3.259   6.231   6.896
  1204G12c C01T22303   3.221   6.327   6.788
  1204G12c H00K22304   3.168   6.416   6.821
  1204G12c H00J22305   3.166   6.282   6.705
  1204G12c H00I22306   3.311   6.362   6.738
  1204G12c C01M22307   3.311   6.309   7.118
  1204G12c C02022308   3.386   0.007   7.554
  1204G12c C02122309   3.251   0.043   7.544
  1204G12c C01L22310   3.405   6.357   7.213
  1204G12c O00722311   3.174   6.290   7.144
  1204G12c C02222312   3.165   6.504   7.450
  1204G12c C02322313   3.170   0.051   7.663
  1204G12c C00G22314   3.029   6.480   7.880
  1204G12c C00E22315   2.810   6.425   7.982
  1204G12c O00A22316   2.725   6.393   8.090
  1204G12c C02422317   2.711   6.255   8.107
  1204G12c H00V22318   2.675   6.233   8.207
  1204G12c H00U22319   2.810   6.210   8.093
  1204G12c H00T22320   2.650   6.214   8.026
  1214G12c C00D22321   2.330   3.025   8.364
  1214G12c O00B22322   2.213   2.951   8.378
  1214G12c C02522323   2.100   3.020   8.343
  1214G12c C02622324   2.062   3.015   8.193
  1214G12c H00Y22325   1.966   2.977   8.158
  1214G12c H00X22326   2.119   2.933   8.148
  1214G12c O00C22327   2.096   3.145   8.153
  1214G12c H00W22328   2.053   3.158   8.070
  1214G12c C02722329   2.021   3.074   8.442
  1214G12c O00D22330   2.063   3.069   8.570
  1214G12c H00Z22331   2.151   3.035   8.560
  1214G12c C02822332   1.889   3.127   8.408
  1214G12c C02922333   1.768   3.059   8.452
  1214G12c H01022334   1.784   2.967   8.507
  1214G12c C02T22335   1.641   3.115   8.423
  1214G12c H01O22336   1.546   3.076   8.457
  1214G12c C02S22337   1.627   3.234   8.348
  1214G12c O00J22338   1.504   3.284   8.320
  1214G12c H01P22339   1.514   3.372   8.286
  1214G12c C02R22340   1.743   3.295   8.293
  1214G12c O00I22341   1.724   3.413   8.224
  1214G12c C02Q22342   1.829   3.481   8.160
  1214G12c H01N22343   1.871   3.414   8.086
  1214G12c H01R22344   1.913   3.509   8.224
  1214G12c H01Q22345   1.789   3.569   8.110
  1214G12c C02A22346   1.871   3.241   8.328
  1214G12c H01122347   1.956   3.295   8.289
  1214G12c C00C22348   2.376   3.065   8.239
  1214G12c H01222349   2.319   3.056   8.148
  1214G12c C00B22350   2.491   3.156   8.234
  1214G12c C00A22351   2.538   3.231   8.121
  1214G12c C00922352   2.512   3.208   7.980
  1214G12c C00822353   2.450   3.109   7.901
  1214G12c H01322354   2.358   3.060   7.928
  1214G12c C00722355   2.503   3.084   7.769
  1214G12c H01422356   2.462   3.008   7.704
  1214G12c C00622357   2.619   3.149   7.716
  1214G12c C00522358   2.671   3.252   7.794
  1214G12c C00422359   2.804   3.302   7.770
  1214G12c C00322360   2.872   3.378   7.866
  1214G12c C00222361   3.000   3.433   7.832
  1214G12c C00122362   3.102   3.493   7.906
  1214G12c C00M22363   3.147   3.458   8.038
  1214G12c C00L22364   3.051   3.437   8.141
  1214G12c C00R22365   3.079   3.370   8.266
  1214G12c C00Q22366   3.198   3.312   8.318
  1214G12c C00V22367   3.171   3.232   8.434
  1214G12c C00U22368   3.043   3.195   8.476
  1214G12c C00T22369   2.928   3.240   8.412
  1214G12c C01622370   2.803   3.197   8.432
  1214G12c C01522371   2.778   3.111   8.537
  1214G12c C01022372   2.886   3.077   8.620
  1214G12c C01122373   2.860   2.992   8.732
  1214G12c H00522374   2.936   2.967   8.804
  1214G12c C01222375   2.731   2.940   8.754
  1214G12c C01722376   2.713   2.855   8.871
  1214G12c O00222377   2.820   2.775   8.912
  1214G12c H00422378   2.874   2.749   8.839
  1214G12c C01822379   2.593   2.848   8.933
  1214G12c O00122380   2.477   2.920   8.909
  1214G12c H00322381   2.405   2.877   8.952
  1214G12c C01922382   2.584   2.751   9.052
  1214G12c H00222383   2.663   2.676   9.050
  1214G12c H00122384   2.602   2.798   9.148
  1214G12c O00022385   2.454   2.686   9.055
  1214G12c C01A22386   2.437   2.570   9.129
  1214G12c C02K22387   2.332   2.484   9.087
  1214G12c O00G22388   2.263   2.522   8.973
  1214G12c C02M22389   2.151   2.443   8.934
  1214G12c H01G22390   2.177   2.340   8.911
  1214G12c H01F22391   2.110   2.478   8.840
  1214G12c H01E22392   2.069   2.441   9.006
  1214G12c C02J22393   2.308   2.363   9.157
  1214G12c H01H22394   2.232   2.298   9.117
  1214G12c C02I22395   2.373   2.340   9.280
  1214G12c C02N22396   2.366   2.212   9.346
  1214G12c H01M22397   2.420   2.194   9.438
  1214G12c C02O22398   2.308   2.111   9.283
  1214G12c H01L22399   2.249   2.111   9.192
  1214G12c C02P22400   2.310   1.970   9.337
  1214G12c H01K22401   2.360   1.957   9.433
  1214G12c H01J22402   2.210   1.928   9.331
  1214G12c O00H22403   2.388   1.878   9.257
  1214G12c H01I22404   2.330   1.854   9.186
  1214G12c C02H22405   2.477   2.422   9.322
  1214G12c H01C22406   2.527   2.406   9.417
  1214G12c C02L22407   2.518   2.533   9.241
  1214G12c H01D22408   2.586   2.605   9.284
  1214G12c C01322409   2.630   2.969   8.663
  1214G12c H00022410   2.535   2.919   8.677
  1214G12c C01422411   2.654   3.065   8.558
  1214G12c C00F22412   2.552   3.091   8.461
  1214G12c C00H22413   2.701   3.227   8.341
  1214G12c C00I22414   2.726   3.321   8.238
  1214G12c C00J22415   2.856   3.375   8.232
  1214G12c C00Z22416   3.014   3.116   8.591
  1214G12c C00Y22417   3.129   3.078   8.668
  1214G12c H00622418   3.132   3.031   8.765
  1214G12c C00X22419   3.260   3.097   8.617
  1214G12c O00322420   3.376   3.046   8.689
  1214G12c C01B22421   3.369   3.007   8.825
  1214G12c H00922422   3.314   2.915   8.850
  1214G12c H00822423   3.325   3.093   8.875
  1214G12c H00722424   3.467   2.986   8.866
  1214G12c C00W22425   3.281   3.176   8.505
  1214G12c O00422426   3.409   3.191   8.475
  1214G12c C01C22427   3.430   3.249   8.351
  1214G12c H00A22428   3.532   3.268   8.322
  1214G12c C00P22429   3.330   3.310   8.269
  1214G12c C00O22430   3.365   3.340   8.131
  1214G12c C01D22431   3.480   3.274   8.074
  1214G12c H00S22432   3.546   3.207   8.128
  1214G12c C01E22433   3.510   3.272   7.939
  1214G12c O00822434   3.615   3.193   7.887
  1214G12c C01V22435   3.743   3.230   7.923
  1214G12c C01Z22436   3.804   3.155   8.037
  1214G12c H00R22437   3.898   3.195   8.076
  1214G12c H00Q22438   3.736   3.152   8.123
  1214G12c O00922439   3.820   3.028   7.985
  1214G12c H00P22440   3.746   3.009   7.928
  1214G12c C01W22441   3.809   3.318   7.847
  1214G12c H00O22442   3.763   3.361   7.759
  1214G12c C01X22443   3.949   3.363   7.851
  1214G12c H00N22444   4.011   3.300   7.915
  1214G12c H00M22445   3.994   3.347   7.753
  1214G12c C01Y22446   3.969   3.501   7.906
  1214G12c C02D22447   3.926   3.535   8.036
  1214G12c H01922448   3.881   3.454   8.093
  1214G12c C02C22449   3.947   3.662   8.091
  1214G12c H01A22450   3.918   3.686   8.193
  1214G12c C02B22451   3.998   3.758   8.003
  1214G12c O00E22452   4.012   3.886   8.038
  1214G12c H01B22453   4.039   3.931   7.959
  1214G12c C02F22454   4.027   3.735   7.871
  1214G12c O00F22455   4.066   3.846   7.799
  1214G12c C02G22456   4.031   3.861   7.662
  1214G12c H01722457   3.933   3.823   7.636
  1214G12c H01622458   4.106   3.800   7.611
  1214G12c H01522459   4.036   3.966   7.631
  1214G12c C02E22460   4.017   3.606   7.822
  1214G12c H01822461   4.030   3.590   7.716
  1214G12c C01F22462   3.425   3.345   7.849
  1214G12c C01G22463   3.429   3.319   7.707
  1214G12c H00L22464   3.506   3.258   7.663
  1214G12c C01H22465   3.307   3.340   7.636
  1214G12c H00B22466   3.297   3.285   7.543
  1214G12c C01I22467   3.194   3.411   7.697
  1214G12c C01U22468   3.320   3.418   7.900
  1214G12c C00S22469   2.951   3.330   8.312
  1214G12c C00K22470   2.912   3.418   8.114
  1214G12c C00N22471   3.283   3.405   8.033
  1214G12c C00022472   3.214   3.475   7.823
  1214G12c C01J22473   3.051   3.404   7.701
  1214G12c C01K22474   2.978   3.330   7.596
  1214G12c C01P22475   3.004   3.309   7.456
  1214G12c C01Q22476   3.116   3.378   7.400
  1214G12c H00G22477   3.134   3.481   7.424
  1214G12c C01R22478   3.206   3.319   7.319
  1214G12c H00F22479   3.199   3.219   7.277
  1214G12c C01S22480   3.318   3.389   7.255
  1214G12c H00E22481   3.385   3.430   7.331
  1214G12c H00D22482   3.381   3.322   7.197
  1214G12c O00522483   3.274   3.502   7.184
  1214G12c H00C22484   3.246   3.474   7.099
  1214G12c C01O22485   2.922   3.229   7.374
  1214G12c H00H22486   2.950   3.213   7.271
  1214G12c C01N22487   2.810   3.164   7.425
  1214G12c O00622488   2.735   3.103   7.327
  1214G12c C01T22489   2.619   3.025   7.356
  1214G12c H00K22490   2.550   3.068   7.430
  1214G12c H00J22491   2.660   2.939   7.408
  1214G12c H00I22492   2.573   2.998   7.262
  1214G12c C01M22493   2.782   3.180   7.560
  1214G12c C02022494   2.823   3.398   7.999
  1214G12c C02122495   2.684   3.376   8.010
  1214G12c C01L22496   2.855   3.272   7.642
  1214G12c O00722497   2.681   3.111   7.608
  1214G12c C02222498   2.618   3.291   7.921
  1214G12c C02322499   2.632   3.332   8.136
  1214G12c C00G22500   2.579   3.163   8.346
  1214G12c C00E22501   2.417   3.038   8.477
  1214G12c O00A22502   2.354   3.007   8.592
  1214G12c C02422503   2.335   3.127   8.664
  1214G12c H00V22504   2.429   3.177   8.686
  1214G12c H00U22505   2.272   3.137   8.753
  1214G12c H00T22506   2.283   3.199   8.601
  1224G12c C00D22507   2.927   2.842   5.499
  1224G12c O00B22508   2.968   2.751   5.595
  1224G12c C02522509   2.875   2.675   5.667
  1224G12c C02622510   2.852   2.744   5.802
  1224G12c H00Y22511   2.765   2.714   5.860
  1224G12c H00X22512   2.838   2.851   5.788
  1224G12c O00C22513   2.957   2.714   5.895
  1224G12c H00W22514   3.034   2.759   5.863
  1224G12c C02722515   2.815   2.565   5.618
  1224G12c O00D22516   2.839   2.525   5.494
  1224G12c H00Z22517   2.817   2.433   5.492
  1224G12c C02822518   2.708   2.498   5.684
  1224G12c C02922519   2.582   2.486   5.615
  1224G12c H01022520   2.573   2.533   5.518
  1224G12c C02T22521   2.476   2.420   5.683
  1224G12c H01O22522   2.382   2.399   5.634
  1224G12c C02S22523   2.483   2.382   5.815
  1224G12c O00J22524   2.377   2.314   5.874
  1224G12c H01P22525   2.402   2.314   5.966
  1224G12c C02R22526   2.603   2.394   5.887
  1224G12c O00I22527   2.605   2.346   6.017
  1224G12c C02Q22528   2.725   2.333   6.089
  1224G12c H01N22529   2.702   2.284   6.184
  1224G12c H01R22530   2.772   2.429   6.109
  1224G12c H01Q22531   2.802   2.278   6.034
  1224G12c C02A22532   2.711   2.451   5.820
  1224G12c H01122533   2.804   2.475   5.869
  1224G12c C00C22534   2.792   2.857   5.458
  1224G12c H01222535   2.717   2.793   5.501
  1224G12c C00B22536   2.753   2.964   5.380
  1224G12c C00A22537   2.620   2.999   5.338
  1224G12c C00922538   2.498   2.924   5.333
  1224G12c C00822539   2.480   2.784   5.349
  1224G12c H01322540   2.535   2.719   5.416
  1224G12c C00722541   2.381   2.716   5.270
  1224G12c H01422542   2.380   2.608   5.272
  1224G12c C00622543   2.310   2.789   5.166
  1224G12c C00522544   2.333   2.923   5.158
  1224G12c C00422545   2.296   2.985   5.037
  1224G12c C00322546   2.345   3.113   5.010
  1224G12c C00222547   2.313   3.165   4.880
  1224G12c C00122548   2.340   3.291   4.817
  1224G12c C00M22549   2.471   3.353   4.814
  1224G12c C00L22550   2.562   3.357   4.916
  1224G12c C00R22551   2.700   3.370   4.903
  1224G12c C00Q22552   2.786   3.405   4.789
  1224G12c C00V22553   2.925   3.378   4.810
  1224G12c C00U22554   2.973   3.314   4.928
  1224G12c C00T22555   2.890   3.278   5.033
  1224G12c C01622556   2.919   3.192   5.139
  1224G12c C01522557   3.058   3.173   5.167
  1224G12c C01022558   3.152   3.220   5.072
  1224G12c C01122559   3.286   3.209   5.100
  1224G12c H00522560   3.364   3.255   5.041
  1224G12c C01222561   3.334   3.126   5.202
  1224G12c C01722562   3.479   3.108   5.223
  1224G12c O00222563   3.556   3.212   5.191
  1224G12c H00422564   3.631   3.179   5.144
  1224G12c C01822565   3.537   2.995   5.262
  1224G12c O00122566   3.467   2.884   5.296
  1224G12c H00322567   3.532   2.816   5.305
  1224G12c C01922568   3.682   2.970   5.273
  1224G12c H00222569   3.706   2.943   5.170
  1224G12c H00122570   3.738   3.060   5.296
  1224G12c O00022571   3.716   2.869   5.365
  1224G12c C01A22572   3.830   2.793   5.349
  1224G12c C02K22573   3.855   2.691   5.444
  1224G12c O00G22574   3.760   2.678   5.545
  1224G12c C02M22575   3.792   2.605   5.662
  1224G12c H01G22576   3.731   2.634   5.747
  1224G12c H01F22577   3.893   2.620   5.700
  1224G12c H01E22578   3.777   2.499   5.639
  1224G12c C02J22579   3.971   2.618   5.435
  1224G12c H01H22580   3.991   2.537   5.505
  1224G12c C02I22581   4.070   2.658   5.342
  1224G12c C02N22582   4.200   2.587   5.336
  1224G12c H01M22583   4.262   2.597   5.247
  1224G12c C02O22584   4.254   2.508   5.433
  1224G12c H01L22585   4.204   2.492   5.527
  1224G12c C02P22586   4.372   2.420   5.409
  1224G12c H01K22587   4.353   2.335   5.475
  1224G12c H01J22588   4.387   2.392   5.305
  1224G12c O00H22589   4.482   2.483   5.478
  1224G12c H01I22590   4.455   2.560   5.526
  1224G12c C02H22591   4.039   2.753   5.238
  1224G12c H01C22592   4.119   2.780   5.170
  1224G12c C02L22593   3.920   2.825   5.245
  1224G12c H01D22594   3.909   2.908   5.177
  1224G12c C01322595   3.237   3.064   5.287
  1224G12c H00022596   3.271   2.992   5.360
  1224G12c C01422597   3.096   3.092   5.273
  1224G12c C00F22598   2.991   3.029   5.346
  1224G12c C00H22599   2.820   3.139   5.222
  1224G12c C00I22600   2.688   3.182   5.207
  1224G12c C00J22601   2.664   3.269   5.100
  1224G12c C00Z22602   3.109   3.289   4.957
  1224G12c C00Y22603   3.196   3.332   4.858
  1224G12c H00622604   3.300   3.314   4.877
  1224G12c C00X22605   3.154   3.402   4.737
  1224G12c O00322606   3.244   3.439   4.639
  1224G12c C01B22607   3.383   3.412   4.655
  1224G12c H00922608   3.410   3.310   4.685
  1224G12c H00822609   3.419   3.471   4.739
  1224G12c H00722610   3.446   3.438   4.570
  1224G12c C00W22611   3.022   3.426   4.714
  1224G12c O00422612   2.989   3.497   4.599
  1224G12c C01C22613   2.854   3.510   4.579
  1224G12c H00A22614   2.821   3.589   4.513
  1224G12c C00P22615   2.752   3.452   4.661
  1224G12c C00O22616   2.621   3.434   4.606
  1224G12c C01D22617   2.601   3.436   4.466
  1224G12c H00S22618   2.674   3.483   4.400
  1224G12c C01E22619   2.504   3.362   4.394
  1224G12c O00822620   2.491   3.347   4.257
  1224G12c C01V22621   2.560   3.430   4.172
  1224G12c C01Z22622   2.496   3.561   4.118
  1224G12c H00R22623   2.470   3.543   4.013
  1224G12c H00Q22624   2.404   3.576   4.175
  1224G12c O00922625   2.569   3.683   4.144
  1224G12c H00P22626   2.508   3.755   4.153
  1224G12c C01W22627   2.689   3.397   4.139
  1224G12c H00O22628   2.716   3.299   4.176
  1224G12c C01X22629   2.787   3.464   4.046
  1224G12c H00N22630   2.825   3.395   3.971
  1224G12c H00M22631   2.733   3.535   3.983
  1224G12c C01Y22632   2.902   3.523   4.134
  1224G12c C02D22633   3.002   3.432   4.180
  1224G12c H01922634   2.990   3.325   4.175
  1224G12c C02C22635   3.119   3.478   4.250
  1224G12c H01A22636   3.187   3.397   4.273
  1224G12c C02B22637   3.119   3.612   4.295
  1224G12c O00E22638   3.222   3.655   4.372
  1224G12c H01B22639   3.191   3.739   4.403
  1224G12c C02F22640   3.025   3.704   4.249
  1224G12c O00F22641   3.038   3.838   4.277
  1224G12c C02G22642   3.097   3.902   4.165
  1224G12c H01722643   3.138   4.001   4.187
  1224G12c H01622644   3.028   3.928   4.084
  1224G12c H01522645   3.177   3.846   4.116
  1224G12c C02E22646   2.916   3.657   4.173
  1224G12c H01822647   2.836   3.722   4.142
  1224G12c C01F22648   2.415   3.288   4.469
  1224G12c C01G22649   2.340   3.170   4.428
  1224G12c H00L22650   2.368   3.136   4.329
  1224G12c C01H22651   2.271   3.085   4.518
  1224G12c H00B22652   2.241   2.984   4.491
  1224G12c C01I22653   2.263   3.135   4.650
  1224G12c C01U22654   2.398   3.327   4.602
  1224G12c C00S22655   2.757   3.323   5.022
  1224G12c C00K22656   2.541   3.276   5.031
  1224G12c C00N22657   2.508   3.381   4.673
  1224G12c C00022658   2.299   3.266   4.680
  1224G12c C01J22659   2.251   3.075   4.784
  1224G12c C01K22660   2.190   2.949   4.814
  1224G12c C01P22661   2.104   2.868   4.740
  1224G12c C01Q22662   2.030   2.918   4.623
  1224G12c H00G22663   2.011   2.861   4.533
  1224G12c C01R22664   1.972   3.039   4.618
  1224G12c H00F22665   1.974   3.099   4.708
  1224G12c C01S22666   1.903   3.109   4.496
  1224G12c H00E22667   1.801   3.070   4.500
  1224G12c H00D22668   1.895   3.218   4.500
  1224G12c O00522669   1.953   3.064   4.373
  1224G12c H00C22670   1.883   3.021   4.326
  1224G12c C01O22671   2.080   2.735   4.768
  1224G12c H00H22672   2.023   2.674   4.699
  1224G12c C01N22673   2.136   2.681   4.882
  1224G12c O00622674   2.139   2.548   4.914
  1224G12c C01T22675   2.084   2.457   4.823
  1224G12c H00K22676   2.098   2.352   4.852
  1224G12c H00J22677   2.123   2.467   4.722
  1224G12c H00I22678   1.977   2.459   4.803
  1224G12c C01M22679   2.189   2.775   4.977
  1224G12c C02022680   2.446   3.176   5.086
  1224G12c C02122681   2.457   3.121   5.215
  1224G12c C01L22682   2.226   2.906   4.944
  1224G12c O00722683   2.222   2.717   5.095
  1224G12c C02222684   2.409   2.998   5.248
  1224G12c C02322685   2.589   3.121   5.276
  1224G12c C00G22686   2.855   3.048   5.320
  1224G12c C00E22687   3.023   2.930   5.444
  1224G12c O00A22688   3.140   2.928   5.516
  1224G12c C02422689   3.153   3.046   5.603
  1224G12c H00V22690   3.249   3.026   5.651
  1224G12c H00U22691   3.071   3.059   5.673
  1224G12c H00T22692   3.166   3.142   5.552
  1234G12c C00D22693   2.524   4.893   4.875
  1234G12c O00B22694   2.447   5.000   4.833
  1234G12c C02522695   2.341   5.031   4.917
  1234G12c C02622696   2.217   4.941   4.903
  1234G12c H00Y22697   2.201   4.922   4.797
  1234G12c H00X22698   2.122   4.980   4.938
  1234G12c O00C22699   2.235   4.820   4.975
  1234G12c H00W22700   2.261   4.753   4.913
  1234G12c C02722701   2.359   5.146   4.983
  1234G12c O00D22702   2.476   5.209   4.953
  1234G12c H00Z22703   2.520   5.143   4.902
  1234G12c C02822704   2.258   5.204   5.070
  1234G12c C02922705   2.252   5.347   5.075
  1234G12c H01022706   2.319   5.404   5.012
  1234G12c C02T22707   2.162   5.413   5.154
  1234G12c H01O22708   2.162   5.521   5.156
  1234G12c C02S22709   2.074   5.340   5.231
  1234G12c O00J22710   1.990   5.402   5.317
  1234G12c H01P22711   1.923   5.341   5.342
  1234G12c C02R22712   2.072   5.199   5.229
  1234G12c O00I22713   1.987   5.136   5.316
  1234G12c C02Q22714   1.955   5.003   5.286
  1234G12c H01N22715   1.917   5.003   5.183
  1234G12c H01R22716   1.877   4.970   5.354
  1234G12c H01Q22717   2.032   4.926   5.284
  1234G12c C02A22718   2.167   5.134   5.152
  1234G12c H01122719   2.160   5.027   5.150
  1234G12c C00C22720   2.547   4.852   5.007
  1234G12c H01222721   2.508   4.919   5.082
  1234G12c C00B22722   2.619   4.736   5.039
  1234G12c C00A22723   2.646   4.676   5.170
  1234G12c C00922724   2.652   4.736   5.299
  1234G12c C00822725   2.643   4.865   5.354
  1234G12c H01322726   2.587   4.937   5.296
  1234G12c C00722727   2.709   4.897   5.471
  1234G12c H01422728   2.697   4.997   5.510
  1234G12c C00622729   2.793   4.800   5.536
  1234G12c C00522730   2.802   4.675   5.477
  1234G12c C00422731   2.895   4.580   5.518
  1234G12c C00322732   2.911   4.459   5.440
  1234G12c C00222733   3.010   4.368   5.482
  1234G12c C00122734   3.059   4.240   5.433
  1234G12c C00M22735   3.084   4.216   5.294
  1234G12c C00L22736   2.993   4.245   5.197
  1234G12c C00R22737   3.017   4.242   5.053
  1234G12c C00Q22738   3.132   4.206   4.977
  1234G12c C00V22739   3.114   4.245   4.842
  1234G12c C00U22740   3.014   4.333   4.795
  1234G12c C00T22741   2.913   4.371   4.879
  1234G12c C01622742   2.836   4.486   4.857
  1234G12c C01522743   2.842   4.539   4.727
  1234G12c C01022744   2.926   4.478   4.628
  1234G12c C01122745   2.925   4.538   4.498
  1234G12c H00522746   2.995   4.498   4.426
  1234G12c C01222747   2.834   4.639   4.456
  1234G12c C01722748   2.824   4.689   4.323
  1234G12c O00222749   2.785   4.820   4.311
  1234G12c H00422750   2.797   4.835   4.218
  1234G12c C01822751   2.863   4.617   4.208
  1234G12c O00122752   2.886   4.480   4.215
  1234G12c H00322753   2.817   4.443   4.267
  1234G12c C01922754   2.858   4.670   4.064
  1234G12c H00222755   2.938   4.627   4.004
  1234G12c H00122756   2.777   4.613   4.019
  1234G12c O00022757   2.823   4.805   4.061
  1234G12c C01A22758   2.782   4.866   3.947
  1234G12c C02K22759   2.718   4.993   3.949
  1234G12c O00G22760   2.685   5.040   4.076
  1234G12c C02M22761   2.560   4.993   4.136
  1234G12c H01G22762   2.467   5.008   4.080
  1234G12c H01F22763   2.542   5.024   4.239
  1234G12c H01E22764   2.566   4.884   4.142
  1234G12c C02J22765   2.662   5.056   3.834
  1234G12c H01H22766   2.617   5.153   3.849
  1234G12c C02I22767   2.688   5.002   3.708
  1234G12c C02N22768   2.622   5.064   3.595
  1234G12c H01M22769   2.561   5.153   3.604
  1234G12c C02O22770   2.643   5.015   3.471
  1234G12c H01L22771   2.711   4.932   3.456
  1234G12c C02P22772   2.569   5.066   3.346
  1234G12c H01K22773   2.546   4.977   3.286
  1234G12c H01J22774   2.475   5.111   3.375
  1234G12c O00H22775   2.652   5.155   3.280
  1234G12c H01I22776   2.626   5.240   3.312
  1234G12c C02H22777   2.763   4.879   3.710
  1234G12c H01C22778   2.792   4.821   3.623
  1234G12c C02L22779   2.803   4.812   3.822
  1234G12c H01D22780   2.854   4.717   3.808
  1234G12c C01322781   2.757   4.695   4.563
  1234G12c H00022782   2.705   4.785   4.536
  1234G12c C01422783   2.756   4.646   4.700
  1234G12c C00F22784   2.674   4.707   4.804
  1234G12c C00H22785   2.761   4.545   4.958
  1234G12c C00I22786   2.750   4.477   5.080
  1234G12c C00J22787   2.824   4.360   5.097
  1234G12c C00Z22788   3.014   4.377   4.665
  1234G12c C00Y22789   3.106   4.321   4.566
  1234G12c H00622790   3.106   4.333   4.459
  1234G12c C00X22791   3.206   4.238   4.609
  1234G12c O00322792   3.309   4.195   4.523
  1234G12c C01B22793   3.287   4.206   4.388
  1234G12c H00922794   3.277   4.308   4.350
  1234G12c H00822795   3.200   4.144   4.365
  1234G12c H00722796   3.376   4.161   4.344
  1234G12c C00W22797   3.215   4.203   4.748
  1234G12c O00422798   3.324   4.126   4.781
  1234G12c C01C22799   3.350   4.102   4.914
  1234G12c H00A22800   3.429   4.033   4.941
  1234G12c C00P22801   3.257   4.147   5.019
  1234G12c C00O22802   3.300   4.156   5.158
  1234G12c C01D22803   3.440   4.143   5.189
  1234G12c H00S22804   3.516   4.124   5.114
  1234G12c C01E22805   3.493   4.186   5.312
  1234G12c O00822806   3.630   4.179   5.338
  1234G12c C01V22807   3.703   4.074   5.291
  1234G12c C01Z22808   3.848   4.120   5.253
  1234G12c H00R22809   3.867   4.059   5.165
  1234G12c H00Q22810   3.838   4.223   5.221
  1234G12c O00922811   3.944   4.093   5.356
  1234G12c H00P22812   3.901   4.028   5.410
  1234G12c C01W22813   3.656   3.950   5.271
  1234G12c H00O22814   3.555   3.930   5.303
  1234G12c C01X22815   3.722   3.838   5.205
  1234G12c H00N22816   3.829   3.856   5.199
  1234G12c H00M22817   3.695   3.751   5.265
  1234G12c C01Y22818   3.653   3.814   5.072
  1234G12c C02D22819   3.701   3.883   4.965
  1234G12c H01922820   3.797   3.933   4.974
  1234G12c C02C22821   3.638   3.878   4.836
  1234G12c H01A22822   3.690   3.922   4.753
  1234G12c C02B22823   3.528   3.799   4.821
  1234G12c O00E22824   3.466   3.782   4.700
  1234G12c H01B22825   3.398   3.716   4.703
  1234G12c C02F22826   3.467   3.730   4.933
  1234G12c O00F22827   3.352   3.656   4.900
  1234G12c C02G22828   3.243   3.713   4.968
  1234G12c H01722829   3.235   3.814   4.928
  1234G12c H01622830   3.244   3.724   5.076
  1234G12c H01522831   3.146   3.669   4.946
  1234G12c C02E22832   3.536   3.740   5.060
  1234G12c H01822833   3.484   3.697   5.144
  1234G12c C01F22834   3.407   4.226   5.415
  1234G12c C01G22835   3.443   4.299   5.535
  1234G12c H00L22836   3.548   4.319   5.546
  1234G12c C01H22837   3.341   4.354   5.616
  1234G12c H00B22838   3.349   4.442   5.678
  1234G12c C01I22839   3.206   4.314   5.596
  1234G12c C01U22840   3.269   4.196   5.405
  1234G12c C00S22841   2.909   4.312   4.999
  1234G12c C00K22842   2.881   4.329   5.223
  1234G12c C00N22843   3.219   4.183   5.275
  1234G12c C00022844   3.175   4.212   5.506
  1234G12c C01J22845   3.090   4.398   5.601
  1234G12c C01K22846   3.072   4.517   5.682
  1234G12c C01P22847   3.123   4.546   5.812
  1234G12c C01Q22848   3.202   4.444   5.882
  1234G12c H00G22849   3.176   4.339   5.885
  1234G12c C01R22850   3.309   4.473   5.956
  1234G12c H00F22851   3.337   4.577   5.964
  1234G12c C01S22852   3.389   4.373   6.036
  1234G12c H00E22853   3.494   4.361   6.009
  1234G12c H00D22854   3.388   4.416   6.137
  1234G12c O00522855   3.330   4.250   6.050
  1234G12c H00C22856   3.364   4.191   5.985
  1234G12c C01O22857   3.095   4.667   5.876
  1234G12c H00H22858   3.151   4.698   5.963
  1234G12c C01N22859   3.005   4.763   5.821
  1234G12c O00622860   2.988   4.892   5.880
  1234G12c C01T22861   3.003   4.894   6.024
  1234G12c H00K22862   2.921   4.850   6.080
  1234G12c H00J22863   3.012   5.002   6.039
  1234G12c H00I22864   3.096   4.851   6.060
  1234G12c C01M22865   2.944   4.728   5.700
  1234G12c C02022866   2.836   4.421   5.326
  1234G12c C02122867   2.721   4.510   5.313
  1234G12c C01L22868   2.975   4.602   5.633
  1234G12c O00722869   2.868   4.835   5.646
  1234G12c C02222870   2.712   4.633   5.375
  1234G12c C02322871   2.685   4.542   5.181
  1234G12c C00G22872   2.682   4.664   4.936
  1234G12c C00E22873   2.580   4.812   4.773
  1234G12c O00A22874   2.538   4.849   4.648
  1234G12c C02422875   2.426   4.770   4.591
  1234G12c H00V22876   2.454   4.665   4.604
  1234G12c H00U22877   2.408   4.780   4.484
  1234G12c H00T22878   2.335   4.796   4.644
  1244G12c C00D22879   1.445   1.108   3.476
  1244G12c O00B22880   1.374   0.990   3.470
  1244G12c C02522881   1.371   0.927   3.350
  1244G12c C02622882   1.468   0.804   3.350
  1244G12c H00Y22883   1.435   0.730   3.277
  1244G12c H00X22884   1.443   0.738   3.433
  1244G12c O00C22885   1.606   0.836   3.339
  1244G12c H00W22886   1.667   0.765   3.356
  1244G12c C02722887   1.286   0.967   3.247
  1244G12c O00D22888   1.196   1.065   3.272
  1244G12c H00Z22889   1.210   1.079   3.364
  1244G12c C02822890   1.292   0.915   3.113
  1244G12c C02922891   1.399   0.839   3.050
  1244G12c H01022892   1.495   0.818   3.094
  1244G12c C02T22893   1.400   0.818   2.918
  1244G12c H01O22894   1.491   0.781   2.873
  1244G12c C02S22895   1.288   0.850   2.839
  1244G12c O00J22896   1.273   0.814   2.705
  1244G12c H01P22897   1.183   0.837   2.685
  1244G12c C02R22898   1.179   0.913   2.897
  1244G12c O00I22899   1.068   0.921   2.811
  1244G12c C02Q22900   0.996   1.040   2.817
  1244G12c H01N22901   0.961   1.056   2.919
  1244G12c H01R22902   0.906   1.047   2.757
  1244G12c H01Q22903   1.051   1.132   2.797
  1244G12c C02A22904   1.180   0.943   3.033
  1244G12c H01122905   1.095   0.993   3.076
  1244G12c C00C22906   1.506   1.166   3.363
  1244G12c H01222907   1.492   1.112   3.271
  1244G12c C00B22908   1.585   1.282   3.371
  1244G12c C00A22909   1.662   1.339   3.266
  1244G12c C00922910   1.726   1.268   3.156
  1244G12c C00822911   1.716   1.137   3.096
  1244G12c H01322912   1.642   1.061   3.115
  1244G12c C00722913   1.816   1.100   2.997
  1244G12c H01422914   1.797   1.003   2.956
  1244G12c C00622915   1.928   1.184   2.958
  1244G12c C00522916   1.933   1.304   3.022
  1244G12c C00422917   2.048   1.379   3.025
  1244G12c C00322918   2.058   1.485   3.125
  1244G12c C00222919   2.184   1.548   3.137
  1244G12c C00122920   2.236   1.659   3.211
  1244G12c C00M22921   2.206   1.693   3.348
  1244G12c C00L22922   2.074   1.674   3.399
  1244G12c C00R22923   2.034   1.675   3.538
  1244G12c C00Q22924   2.111   1.693   3.656
  1244G12c C00V22925   2.035   1.662   3.773
  1244G12c C00U22926   1.913   1.594   3.772
  1244G12c C00T22927   1.845   1.568   3.652
  1244G12c C01622928   1.732   1.488   3.639
  1244G12c C01522929   1.676   1.439   3.755
  1244G12c C01022930   1.732   1.474   3.879
  1244G12c C01122931   1.671   1.423   3.998
  1244G12c H00522932   1.690   1.446   4.101
  1244G12c C01222933   1.545   1.357   3.989
  1244G12c C01722934   1.471   1.337   4.108
  1244G12c O00222935   1.440   1.211   4.143
  1244G12c H00422936   1.363   1.220   4.196
  1244G12c C01822937   1.422   1.443   4.178
  1244G12c O00122938   1.445   1.573   4.133
  1244G12c H00322939   1.437   1.561   4.039
  1244G12c C01922940   1.358   1.423   4.311
  1244G12c H00222941   1.418   1.382   4.392
  1244G12c H00122942   1.317   1.518   4.345
  1244G12c O00022943   1.240   1.348   4.284
  1244G12c C01A22944   1.146   1.352   4.381
  1244G12c C02K22945   1.142   1.248   4.473
  1244G12c O00G22946   1.227   1.144   4.455
  1244G12c C02M22947   1.239   1.049   4.562
  1244G12c H01G22948   1.265   1.102   4.654
  1244G12c H01F22949   1.321   0.985   4.531
  1244G12c H01E22950   1.150   0.991   4.585
  1244G12c C02J22951   1.054   1.258   4.589
  1244G12c H01H22952   1.045   1.180   4.663
  1244G12c C02I22953   0.956   1.363   4.593
  1244G12c C02N22954   0.871   1.374   4.713
  1244G12c H01M22955   0.849   1.289   4.776
  1244G12c C02O22956   0.806   1.487   4.743
  1244G12c H01L22957   0.828   1.579   4.689
  1244G12c C02P22958   0.699   1.504   4.845
  1244G12c H01K22959   0.746   1.502   4.944
  1244G12c H01J22960   0.653   1.602   4.833
  1244G12c O00H22961   0.615   1.395   4.834
  1244G12c H01I22962   0.544   1.406   4.896
  1244G12c C02H22963   0.958   1.460   4.493
  1244G12c H01C22964   0.881   1.536   4.495
  1244G12c C02L22965   1.058   1.462   4.396
  1244G12c H01D22966   1.040   1.539   4.322
  1244G12c C01322967   1.498   1.323   3.856
  1244G12c H00022968   1.408   1.266   3.869
  1244G12c C01422969   1.564   1.353   3.738
  1244G12c C00F22970   1.533   1.299   3.610
  1244G12c C00H22971   1.693   1.452   3.509
  1244G12c C00I22972   1.757   1.510   3.402
  1244G12c C00J22973   1.860   1.598   3.420
  1244G12c C00Z22974   1.846   1.557   3.886
  1244G12c C00Y22975   1.898   1.598   4.011
  1244G12c H00622976   1.846   1.568   4.101
  1244G12c C00X22977   2.013   1.680   4.014
  1244G12c O00322978   2.059   1.736   4.128
  1244G12c C01B22979   1.986   1.745   4.243
  1244G12c H00922980   1.881   1.763   4.220
  1244G12c H00822981   2.016   1.826   4.309
  1244G12c H00722982   1.987   1.652   4.300
  1244G12c C00W22983   2.087   1.705   3.898
  1244G12c O00422984   2.205   1.778   3.908
  1244G12c C01C22985   2.289   1.770   3.805
  1244G12c H00A22986   2.363   1.849   3.807
  1244G12c C00P22987   2.246   1.732   3.673
  1244G12c C00O22988   2.346   1.709   3.572
  1244G12c C01D22989   2.482   1.687   3.607
  1244G12c H00S22990   2.515   1.694   3.709
  1244G12c C01E22991   2.576   1.629   3.517
  1244G12c O00822992   2.701   1.590   3.558
  1244G12c C01V22993   2.762   1.695   3.625
  1244G12c C01Z22994   2.776   1.824   3.550
  1244G12c H00R22995   2.755   1.809   3.444
  1244G12c H00Q22996   2.720   1.905   3.595
  1244G12c O00922997   2.915   1.855   3.539
  1244G12c H00P22998   2.960   1.772   3.529
  1244G12c C01W22999   2.798   1.687   3.760
  1244G12c H00O23000   2.788   1.592   3.811
  1244G12c C01X23001   2.855   1.807   3.835
  1244G12c H00N23002   2.913   1.771   3.920
  1244G12c H00M23003   2.921   1.863   3.768
  1244G12c C01Y23004   2.749   1.893   3.899
  1244G12c C02D23005   2.655   1.831   3.989
  1244G12c H01923006   2.673   1.728   4.016
  1244G12c C02C23007   2.553   1.907   4.050
  1244G12c H01A23008   2.487   1.855   4.119
  1244G12c C02B23009   2.553   2.049   4.030
  1244G12c O00E23010   2.465   2.135   4.098
  1244G12c H01B23011   2.474   2.216   4.051
  1244G12c C02F23012   2.644   2.109   3.941
  1244G12c O00F23013   2.622   2.245   3.929
  1244G12c C02G23014   2.700   2.315   3.828
  1244G12c H01723015   2.678   2.421   3.838
  1244G12c H01623016   2.672   2.296   3.725
  1244G12c H01523017   2.807   2.299   3.843
  1244G12c C02E23018   2.744   2.034   3.872
  1244G12c H01823019   2.816   2.080   3.806
  1244G12c C01F23020   2.535   1.599   3.385
  1244G12c C01G23021   2.601   1.507   3.295
  1244G12c H00L23022   2.692   1.453   3.318
  1244G12c C01H23023   2.538   1.466   3.171
  1244G12c H00B23024   2.565   1.381   3.111
  1244G12c C01I23025   2.418   1.536   3.134
  1244G12c C01U23026   2.424   1.659   3.343
  1244G12c C00S23027   1.903   1.629   3.545
  1244G12c C00K23028   1.966   1.611   3.330
  1244G12c C00N23029   2.322   1.689   3.431
  1244G12c C00023030   2.376   1.644   3.211
  1244G12c C01J23031   2.299   1.490   3.069
  1244G12c C01K23032   2.296   1.376   2.977
  1244G12c C01P23033   2.399   1.323   2.891
  1244G12c C01Q23034   2.537   1.374   2.883
  1244G12c H00G23035   2.550   1.480   2.870
  1244G12c C01R23036   2.644   1.288   2.892
  1244G12c H00F23037   2.627   1.185   2.921
  1244G12c C01S23038   2.792   1.326   2.873
  1244G12c H00E23039   2.854   1.299   2.958
  1244G12c H00D23040   2.841   1.281   2.787
  1244G12c O00523041   2.811   1.469   2.864
  1244G12c H00C23042   2.853   1.506   2.940
  1244G12c C01O23043   2.370   1.220   2.798
  1244G12c H00H23044   2.446   1.182   2.731
  1244G12c C01N23045   2.242   1.171   2.785
  1244G12c O00623046   2.215   1.069   2.698
  1244G12c C01T23047   2.145   1.118   2.581
  1244G12c H00K23048   2.041   1.137   2.605
  1244G12c H00J23049   2.160   1.060   2.490
  1244G12c H00I23050   2.186   1.216   2.556
  1244G12c C01M23051   2.140   1.220   2.864
  1244G12c C02023052   1.950   1.530   3.209
  1244G12c C02123053   1.826   1.472   3.174
  1244G12c C01L23054   2.161   1.333   2.955
  1244G12c O00723055   2.015   1.158   2.864
  1244G12c C02223056   1.832   1.352   3.110
  1244G12c C02323057   1.727   1.459   3.275
  1244G12c C00G23058   1.602   1.344   3.497
  1244G12c C00E23059   1.455   1.174   3.598
  1244G12c O00A23060   1.393   1.102   3.698
  1244G12c C02423061   1.458   0.988   3.752
  1244G12c H00V23062   1.444   0.904   3.684
  1244G12c H00U23063   1.421   0.970   3.853
  1244G12c H00T23064   1.565   1.005   3.744
  1254G12c C00D23065   3.693   2.851   4.923
  1254G12c O00B23066   3.595   2.948   4.941
  1254G12c C02523067   3.606   3.057   4.859
  1254G12c C02623068   3.515   3.030   4.739
  1254G12c H00Y23069   3.530   2.930   4.699
  1254G12c H00X23070   3.525   3.111   4.667
  1254G12c O00C23071   3.383   3.047   4.791
  1254G12c H00W23072   3.388   3.035   4.884
  1254G12c C02723073   3.689   3.166   4.887
  1254G12c O00D23074   3.762   3.167   5.003
  1254G12c H00Z23075   3.845   3.212   4.994
  1254G12c C02823076   3.713   3.278   4.795
  1254G12c C02923077   3.728   3.410   4.842
  1254G12c H01023078   3.728   3.425   4.949
  1254G12c C02T23079   3.736   3.524   4.754
  1254G12c H01O23080   3.741   3.625   4.792
  1254G12c C02S23081   3.746   3.502   4.617
  1254G12c O00J23082   3.737   3.601   4.525
  1254G12c H01P23083   3.744   3.572   4.436
  1254G12c C02R23084   3.743   3.368   4.567
  1254G12c O00I23085   3.742   3.358   4.427
  1254G12c C02Q23086   3.690   3.241   4.364
  1254G12c H01N23087   3.678   3.248   4.256
  1254G12c H01R23088   3.596   3.208   4.408
  1254G12c H01Q23089   3.759   3.159   4.383
  1254G12c C02A23090   3.720   3.263   4.655
  1254G12c H01123091   3.705   3.164   4.615
  1254G12c C00C23092   3.803   2.870   4.840
  1254G12c H01223093   3.817   2.955   4.774
  1254G12c C00B23094   3.913   2.783   4.843
  1254G12c C00A23095   4.044   2.807   4.782
  1254G12c C00923096   4.076   2.874   4.653
  1254G12c C00823097   4.006   2.957   4.562
  1254G12c H01323098   3.909   3.002   4.573
  1254G12c C00723099   4.070   2.984   4.428
  1254G12c H01423100   4.033   3.057   4.357
  1254G12c C00623101   4.185   2.907   4.390
  1254G12c C00523102   4.244   2.820   4.486
  1254G12c C00423103   4.349   2.727   4.455
  1254G12c C00323104   4.389   2.630   4.551
  1254G12c C00223105   4.480   2.527   4.497
  1254G12c C00123106   4.539   2.410   4.557
  1254G12c C00M23107   4.453   2.322   4.640
  1254G12c C00L23108   4.373   2.362   4.742
  1254G12c C00R23109   4.279   2.278   4.812
  1254G12c C00Q23110   4.245   2.140   4.804
  1254G12c C00V23111   4.134   2.111   4.891
  1254G12c C00U23112   4.052   2.208   4.953
  1254G12c C00T23113   4.075   2.343   4.942
  1254G12c C01623114   3.985   2.446   4.959
  1254G12c C01523115   3.874   2.408   5.029
  1254G12c C01023116   3.856   2.276   5.075
  1254G12c C01123117   3.747   2.246   5.168
  1254G12c H00523118   3.726   2.148   5.207
  1254G12c C01223119   3.663   2.348   5.206
  1254G12c C01723120   3.557   2.332   5.309
  1254G12c O00223121   3.433   2.367   5.285
  1254G12c H00423122   3.427   2.396   5.196
  1254G12c C01823123   3.589   2.267   5.421
  1254G12c O00123124   3.715   2.209   5.445
  1254G12c H00323125   3.721   2.187   5.537
  1254G12c C01923126   3.495   2.243   5.538
  1254G12c H00223127   3.421   2.318   5.510
  1254G12c H00123128   3.448   2.146   5.526
  1254G12c O00023129   3.566   2.251   5.659
  1254G12c C01A23130   3.486   2.298   5.764
  1254G12c C02K23131   3.385   2.217   5.816
  1254G12c O00G23132   3.380   2.086   5.779
  1254G12c C02M23133   3.305   1.995   5.854
  1254G12c H01G23134   3.321   1.892   5.823
  1254G12c H01F23135   3.202   2.017   5.828
  1254G12c H01E23136   3.333   1.999   5.960
  1254G12c C02J23137   3.295   2.267   5.911
  1254G12c H01H23138   3.212   2.208   5.946
  1254G12c C02I23139   3.306   2.398   5.962
  1254G12c C02N23140   3.202   2.450   6.050
  1254G12c H01M23141   3.152   2.387   6.121
  1254G12c C02O23142   3.191   2.580   6.056
  1254G12c H01L23143   3.244   2.654   5.999
  1254G12c C02P23144   3.110   2.644   6.160
  1254G12c H01K23145   3.130   2.609   6.261
  1254G12c H01J23146   3.127   2.752   6.157
  1254G12c O00H23147   2.969   2.618   6.134
  1254G12c H01I23148   2.950   2.656   6.050
  1254G12c C02H23149   3.420   2.472   5.921
  1254G12c H01C23150   3.447   2.570   5.958
  1254G12c C02L23151   3.505   2.428   5.817
  1254G12c H01D23152   3.572   2.505   5.782
  1254G12c C01323153   3.677   2.475   5.153
  1254G12c H00023154   3.609   2.548   5.194
  1254G12c C01423155   3.778   2.504   5.057
  1254G12c C00F23156   3.794   2.636   5.000
  1254G12c C00H23157   4.013   2.577   4.925
  1254G12c C00I23158   4.142   2.607   4.878
  1254G12c C00J23159   4.233   2.501   4.861
  1254G12c C00Z23160   3.937   2.172   5.026
  1254G12c C00Y23161   3.902   2.036   5.038
  1254G12c H00623162   3.809   2.005   5.083
  1254G12c C00X23163   3.981   1.938   4.975
  1254G12c O00323164   3.958   1.806   4.971
  1254G12c C01B23165   3.864   1.759   5.065
  1254G12c H00923166   3.761   1.781   5.036
  1254G12c H00823167   3.880   1.789   5.169
  1254G12c H00723168   3.874   1.650   5.066
  1254G12c C00W23169   4.095   1.977   4.903
  1254G12c O00423170   4.172   1.874   4.847
  1254G12c C01C23171   4.243   1.910   4.737
  1254G12c H00A23172   4.204   1.866   4.646
  1254G12c C00P23173   4.297   2.040   4.719
  1254G12c C00O23174   4.396   2.063   4.613
  1254G12c C01D23175   4.433   1.961   4.523
  1254G12c H00S23176   4.412   1.859   4.551
  1254G12c C01E23177   4.492   1.981   4.396
  1254G12c O00823178   4.517   1.879   4.302
  1254G12c C01V23179   4.475   1.756   4.340
  1254G12c C01Z23180   4.362   1.696   4.256
  1254G12c H00R23181   4.323   1.604   4.298
  1254G12c H00Q23182   4.284   1.772   4.250
  1254G12c O00923183   4.410   1.666   4.129
  1254G12c H00P23184   4.501   1.694   4.128
  1254G12c C01W23185   4.539   1.688   4.435
  1254G12c H00O23186   4.629   1.737   4.470
  1254G12c C01X23187   4.506   1.547   4.483
  1254G12c H00N23188   4.511   1.532   4.591
  1254G12c H00M23189   4.401   1.527   4.460
  1254G12c C01Y23190   4.586   1.437   4.426
  1254G12c C02D23191   4.536   1.309   4.412
  1254G12c H01923192   4.435   1.288   4.444
  1254G12c C02C23193   4.621   1.201   4.379
  1254G12c H01A23194   4.585   1.100   4.365
  1254G12c C02B23195   4.760   1.224   4.355
  1254G12c O00E23196   4.836   1.122   4.310
  1254G12c H01B23197   4.922   1.160   4.311
  1254G12c C02F23198   4.815   1.350   4.376
  1254G12c O00F23199   4.954   1.368   4.361
  1254G12c C02G23200   5.002   1.483   4.418
  1254G12c H01723201   4.981   1.472   4.524
  1254G12c H01623202   4.981   1.579   4.371
  1254G12c H01523203   5.111   1.471   4.421
  1254G12c C02E23204   4.725   1.456   4.403
  1254G12c H01823205   4.765   1.556   4.398
  1254G12c C01F23206   4.541   2.107   4.365
  1254G12c C01G23207   4.571   2.159   4.241
  1254G12c H00L23208   4.576   2.087   4.161
  1254G12c C01H23209   4.572   2.300   4.216
  1254G12c H00B23210   4.557   2.331   4.113
  1254G12c C01I23211   4.565   2.394   4.325
  1254G12c C01U23212   4.546   2.201   4.472
  1254G12c C00S23213   4.197   2.371   4.884
  1254G12c C00K23214   4.328   2.499   4.754
  1254G12c C00N23215   4.463   2.186   4.586
  1254G12c C00023216   4.593   2.336   4.454
  1254G12c C01J23217   4.517   2.527   4.362
  1254G12c C01K23218   4.493   2.638   4.273
  1254G12c C01P23219   4.550   2.660   4.143
  1254G12c C01Q23220   4.664   2.584   4.097
  1254G12c H00G23221   4.749   2.560   4.160
  1254G12c C01R23222   4.677   2.562   3.966
  1254G12c H00F23223   4.594   2.578   3.899
  1254G12c C01S23224   4.796   2.508   3.899
  1254G12c H00E23225   4.765   2.440   3.820
  1254G12c H00D23226   4.830   2.599   3.850
  1254G12c O00523227   4.891   2.443   3.981
  1254G12c H00C23228   4.916   2.495   4.056
  1254G12c C01O23229   4.503   2.769   4.069
  1254G12c H00H23230   4.547   2.792   3.973
  1254G12c C01N23231   4.408   2.859   4.113
  1254G12c O00623232   4.381   2.965   4.031
  1254G12c C01T23233   4.427   3.092   4.076
  1254G12c H00K23234   4.362   3.117   4.160
  1254G12c H00J23235   4.404   3.175   4.010
  1254G12c H00I23236   4.532   3.083   4.105
  1254G12c C01M23237   4.350   2.835   4.238
  1254G12c C02023238   4.328   2.620   4.673
  1254G12c C02123239   4.250   2.731   4.711
  1254G12c C01L23240   4.400   2.730   4.326
  1254G12c O00723241   4.247   2.918   4.273
  1254G12c C02223242   4.202   2.819   4.618
  1254G12c C02323243   4.154   2.725   4.811
  1254G12c C00G23244   3.906   2.668   4.927
  1254G12c C00E23245   3.687   2.737   5.001
  1254G12c O00A23246   3.574   2.722   5.075
  1254G12c C02423247   3.457   2.668   5.008
  1254G12c H00V23248   3.358   2.710   5.027
  1254G12c H00U23249   3.457   2.559   5.014
  1254G12c H00T23250   3.463   2.678   4.900
  1264G12c C00D23251   0.194   4.512   6.095
  1264G12c O00B23252   0.248   4.638   6.068
  1264G12c C02523253   0.336   4.704   6.151
  1264G12c C02623254   0.286   4.823   6.229
  1264G12c H00Y23255   0.363   4.881   6.280
  1264G12c H00X23256   0.216   4.788   6.305
  1264G12c O00C23257   0.230   4.906   6.135
  1264G12c H00W23258   0.166   4.856   6.087
  1264G12c C02723259   0.463   4.652   6.163
  1264G12c O00D23260   0.504   4.555   6.075
  1264G12c H00Z23261   0.434   4.539   6.013
  1264G12c C02823262   0.555   4.695   6.266
  1264G12c C02923263   0.516   4.727   6.399
  1264G12c H01023264   0.413   4.726   6.430
  1264G12c C02T23265   0.607   4.739   6.500
  1264G12c H01O23266   0.568   4.756   6.600
  1264G12c C02S23267   0.745   4.721   6.478
  1264G12c O00J23268   0.841   4.735   6.566
  1264G12c H01P23269   0.905   4.672   6.534
  1264G12c C02R23270   0.789   4.700   6.345
  1264G12c O00I23271   0.927   4.697   6.327
  1264G12c C02Q23272   0.968   4.656   6.203
  1264G12c H01N23273   0.944   4.551   6.189
  1264G12c H01R23274   1.076   4.659   6.192
  1264G12c H01Q23275   0.933   4.718   6.121
  1264G12c C02A23276   0.690   4.688   6.247
  1264G12c H01123277   0.716   4.666   6.144
  1264G12c C00C23278   0.217   4.455   6.222
  1264G12c H01223279   0.275   4.511   6.294
  1264G12c C00B23280   0.173   4.328   6.257
  1264G12c C00A23281   0.218   4.254   6.369
  1264G12c C00923282   0.353   4.252   6.426
  1264G12c C00823283   0.464   4.329   6.399
  1264G12c H01323284   0.464   4.422   6.345
  1264G12c C00723285   0.595   4.278   6.441
  1264G12c H01423286   0.681   4.335   6.409
  1264G12c C00623287   0.603   4.145   6.499
  1264G12c C00523288   0.483   4.067   6.504
  1264G12c C00423289   0.481   3.928   6.517
  1264G12c C00323290   0.365   3.853   6.498
  1264G12c C00223291   0.385   3.708   6.489
  1264G12c C00123292   0.303   3.589   6.463
  1264G12c C00M23293   0.191   3.588   6.365
  1264G12c C00L23294   0.119   3.700   6.333
  1264G12c C00R23295   0.031   3.725   6.224
  1264G12c C00Q23296   6.520   3.644   6.114
  1264G12c C00V23297   6.433   3.703   6.023
  1264G12c C00U23298   6.419   3.845   6.010
  1264G12c C00T23299   6.466   3.930   6.106
  1264G12c C01623300   6.495   4.062   6.093
  1264G12c C01523301   6.446   4.124   5.981
  1264G12c C01023302   6.362   4.051   5.891
  1264G12c C01123303   6.301   4.118   5.778
  1264G12c H00523304   6.220   4.077   5.720
  1264G12c C01223305   6.339   4.244   5.746
  1264G12c C01723306   6.303   4.300   5.618
  1264G12c O00223307   6.246   4.421   5.611
  1264G12c H00423308   6.218   4.423   5.521
  1264G12c C01823309   6.332   4.229   5.507
  1264G12c O00123310   6.393   4.106   5.510
  1264G12c H00323311   6.406   4.085   5.602
  1264G12c C01923312   6.311   4.283   5.367
  1264G12c H00223313   6.408   4.314   5.329
  1264G12c H00123314   6.274   4.204   5.301
  1264G12c O00023315   6.213   4.382   5.360
  1264G12c C01A23316   6.243   4.483   5.268
  1264G12c C02K23317   6.177   4.602   5.296
  1264G12c O00G23318   6.100   4.604   5.408
  1264G12c C02M23319   6.040   4.725   5.449
  1264G12c H01G23320   5.971   4.720   5.533
  1264G12c H01F23321   5.972   4.761   5.372
  1264G12c H01E23322   6.116   4.802   5.464
  1264G12c C02J23323   6.197   4.717   5.218
  1264G12c H01H23324   6.149   4.812   5.235
  1264G12c C02I23325   6.281   4.715   5.104
  1264G12c C02N23326   6.308   4.831   5.020
  1264G12c H01M23327   6.293   4.841   4.913
  1264G12c C02O23328   6.336   4.942   5.086
  1264G12c H01L23329   6.344   4.939   5.194
  1264G12c C02P23330   6.367   5.078   5.036
  1264G12c H01K23331   6.442   5.139   5.085
  1264G12c H01J23332   6.387   5.055   4.931
  1264G12c O00H23333   6.252   5.163   5.051
  1264G12c H01I23334   6.269   5.234   5.111
  1264G12c C02H23335   6.340   4.589   5.074
  1264G12c H01C23336   6.401   4.574   4.987
  1264G12c C02L23337   6.317   4.470   5.148
  1264G12c H01D23338   6.367   4.380   5.115
  1264G12c C01323339   6.416   4.315   5.835
  1264G12c H00023340   6.432   4.417   5.805
  1264G12c C01423341   6.475   4.254   5.958
  1264G12c C00F23342   0.052   4.321   6.042
  1264G12c C00H23343   0.046   4.126   6.193
  1264G12c C00I23344   0.082   4.062   6.312
  1264G12c C00J23345   0.062   3.927   6.320
  1264G12c C00Z23346   6.347   3.913   5.910
  1264G12c C00Y23347   6.277   3.832   5.819
  1264G12c H00623348   6.227   3.883   5.739
  1264G12c C00X23349   6.277   3.692   5.825
  1264G12c O00323350   6.214   3.625   5.725
  1264G12c C01B23351   6.128   3.520   5.762
  1264G12c H00923352   6.053   3.566   5.827
  1264G12c H00823353   6.178   3.446   5.824
  1264G12c H00723354   6.092   3.473   5.671
  1264G12c C00W23355   6.375   3.629   5.915
  1264G12c O00423356   6.401   3.495   5.905
  1264G12c C01C23357   6.514   3.449   5.968
  1264G12c H00A23358   0.016   3.345   5.953
  1264G12c C00P23359   0.050   3.516   6.080
  1264G12c C00O23360   0.172   3.459   6.137
  1264G12c C01D23361   0.259   3.377   6.049
  1264G12c H00S23362   0.231   3.363   5.945
  1264G12c C01E23363   0.396   3.355   6.076
  1264G12c O00823364   0.483   3.309   5.979
  1264G12c C01V23365   0.506   3.385   5.867
  1264G12c C01Z23366   0.601   3.500   5.881
  1264G12c H00R23367   0.553   3.593   5.849
  1264G12c H00Q23368   0.645   3.517   5.980
  1264G12c O00923369   0.718   3.478   5.805
  1264G12c H00P23370   0.749   3.390   5.824
  1264G12c C01W23371   0.437   3.355   5.761
  1264G12c H00O23372   0.369   3.273   5.775
  1264G12c C01X23373   0.436   3.429   5.627
  1264G12c H00N23374   0.529   3.484   5.615
  1264G12c H00M23375   0.431   3.359   5.543
  1264G12c C01Y23376   0.313   3.527   5.622
  1264G12c C02D23377   0.332   3.664   5.650
  1264G12c H01923378   0.431   3.698   5.677
  1264G12c C02C23379   0.221   3.749   5.650
  1264G12c H01A23380   0.234   3.854   5.671
  1264G12c C02B23381   0.096   3.697   5.620
  1264G12c O00E23382   6.510   3.782   5.597
  1264G12c H01B23383   6.429   3.734   5.595
  1264G12c C02F23384   0.078   3.557   5.598
  1264G12c O00F23385   6.469   3.522   5.559
  1264G12c C02G23386   6.445   3.385   5.524
  1264G12c H01723387   6.484   3.319   5.601
  1264G12c H01623388   6.487   3.373   5.425
  1264G12c H01523389   6.336   3.380   5.515
  1264G12c C02E23390   0.187   3.473   5.600
  1264G12c H01823391   0.174   3.371   5.568
  1264G12c C01F23392   0.442   3.384   6.204
  1264G12c C01G23393   0.581   3.388   6.232
  1264G12c H00L23394   0.655   3.366   6.157
  1264G12c C01H23395   0.620   3.472   6.338
  1264G12c H00B23396   0.728   3.479   6.337
  1264G12c C01I23397   0.527   3.530   6.432
  1264G12c C01U23398   0.351   3.426   6.306
  1264G12c C00S23399   6.514   3.861   6.224
  1264G12c C00K23400   0.150   3.838   6.384
  1264G12c C00N23401   0.231   3.489   6.261
  1264G12c C00023402   0.396   3.490   6.427
  1264G12c C01J23403   0.522   3.658   6.484
  1264G12c C01K23404   0.643   3.732   6.522
  1264G12c C01P23405   0.775   3.690   6.546
  1264G12c C01Q23406   0.813   3.549   6.544
  1264G12c H00G23407   0.744   3.480   6.589
  1264G12c C01R23408   0.932   3.515   6.497
  1264G12c H00F23409   0.997   3.594   6.462
  1264G12c C01S23410   0.995   3.380   6.490
  1264G12c H00E23411   1.074   3.361   6.562
  1264G12c H00D23412   0.909   3.313   6.493
  1264G12c O00523413   1.054   3.359   6.368
  1264G12c H00C23414   1.078   3.268   6.364
  1264G12c C01O23415   0.877   3.780   6.576
  1264G12c H00H23416   0.976   3.749   6.605
  1264G12c C01N23417   0.858   3.917   6.564
  1264G12c O00623418   0.955   4.015   6.582
  1264G12c C01T23419   1.019   4.006   6.705
  1264G12c H00K23420   1.097   4.081   6.719
  1264G12c H00J23421   1.065   3.911   6.731
  1264G12c H00I23422   0.946   4.020   6.785
  1264G12c C01M23423   0.725   3.961   6.533
  1264G12c C02023424   0.241   3.912   6.468
  1264G12c C02123425   0.234   4.052   6.492
  1264G12c C01L23426   0.610   3.868   6.532
  1264G12c O00723427   0.720   4.093   6.517
  1264G12c C02223428   0.357   4.127   6.489
  1264G12c C02323429   0.158   4.133   6.404
  1264G12c C00G23430   0.089   4.261   6.165
  1264G12c C00E23431   0.122   4.440   6.000
  1264G12c O00A23432   0.092   4.505   5.880
  1264G12c C02423433   0.181   4.467   5.769
  1264G12c H00V23434   0.173   4.358   5.764
  1264G12c H00U23435   0.284   4.499   5.782
  1264G12c H00T23436   0.149   4.506   5.672
  1274G12c C00D23437   0.319   4.388   8.298
  1274G12c O00B23438   0.205   4.447   8.251
  1274G12c C02523439   0.128   4.381   8.160
  1274G12c C02623440   0.009   4.308   8.224
  1274G12c H00Y23441   6.438   4.302   8.166
  1274G12c H00X23442   6.498   4.372   8.306
  1274G12c O00C23443   0.051   4.179   8.256
  1274G12c H00W23444   6.495   4.124   8.265
  1274G12c C02723445   0.154   4.400   8.024
  1274G12c O00D23446   0.251   4.492   7.990
  1274G12c H00Z23447   0.247   4.560   8.057
  1274G12c C02823448   0.070   4.347   7.923
  1274G12c C02923449   0.044   4.431   7.815
  1274G12c H01023450   0.088   4.530   7.814
  1274G12c C02T23451   6.485   4.380   7.709
  1274G12c H01O23452   6.459   4.466   7.650
  1274G12c C02S23453   6.427   4.249   7.709
  1274G12c O00J23454   6.354   4.200   7.601
  1274G12c H01P23455   6.319   4.119   7.633
  1274G12c C02R23456   6.456   4.167   7.824
  1274G12c O00I23457   6.403   4.043   7.820
  1274G12c C02Q23458   6.426   3.964   7.933
  1274G12c H01N23459   6.395   4.014   8.024
  1274G12c H01R23460   0.012   3.944   7.945
  1274G12c H01Q23461   6.358   3.879   7.927
  1274G12c C02A23462   0.025   4.218   7.926
  1274G12c H01123463   0.071   4.152   7.998
  1274G12c C00C23464   0.376   4.268   8.246
  1274G12c H01223465   0.338   4.229   8.153
  1274G12c C00B23466   0.474   4.198   8.321
  1274G12c C00A23467   0.521   4.062   8.299
  1274G12c C00923468   0.442   3.947   8.258
  1274G12c C00823469   0.306   3.942   8.210
  1274G12c H01323470   0.268   4.028   8.157
  1274G12c C00723471   0.227   3.821   8.224
  1274G12c H01423472   0.125   3.821   8.189
  1274G12c C00623473   0.274   3.716   8.303
  1274G12c C00523474   0.400   3.732   8.360
  1274G12c C00423475   0.433   3.654   8.471
  1274G12c C00323476   0.551   3.684   8.542
  1274G12c C00223477   0.578   3.597   8.655
  1274G12c C00123478   0.672   3.607   8.767
  1274G12c C00M23479   0.708   3.725   8.843
  1274G12c C00L23480   0.717   3.848   8.779
  1274G12c C00R23481   0.733   3.979   8.844
  1274G12c C00Q23482   0.733   4.016   8.979
  1274G12c C00V23483   0.737   4.162   8.993
  1274G12c C00U23484   0.711   4.249   8.881
  1274G12c C00T23485   0.689   4.199   8.755
  1274G12c C01623486   0.646   4.269   8.644
  1274G12c C01523487   0.624   4.401   8.663
  1274G12c C01023488   0.657   4.462   8.784
  1274G12c C01123489   0.644   4.605   8.793
  1274G12c H00523490   0.665   4.674   8.874
  1274G12c C01223491   0.608   4.680   8.676
  1274G12c C01723492   0.626   4.820   8.661
  1274G12c O00223493   0.535   4.879   8.581
  1274G12c H00423494   0.546   4.972   8.569
  1274G12c C01823495   0.718   4.895   8.724
  1274G12c O00123496   0.828   4.834   8.776
  1274G12c H00323497   0.890   4.900   8.804
  1274G12c C01923498   0.725   5.051   8.717
  1274G12c H00223499   0.767   5.083   8.813
  1274G12c H00123500   0.790   5.065   8.631
  1274G12c O00023501   0.601   5.106   8.689
  1274G12c C01A23502   0.611   5.236   8.646
  1274G12c C02K23503   0.594   5.256   8.508
  1274G12c O00G23504   0.566   5.141   8.435
  1274G12c C02M23505   0.622   5.129   8.308
  1274G12c H01G23506   0.608   5.026   8.274
  1274G12c H01F23507   0.727   5.158   8.306
  1274G12c H01E23508   0.574   5.173   8.221
  1274G12c C02J23509   0.612   5.383   8.449
  1274G12c H01H23510   0.597   5.399   8.343
  1274G12c C02I23511   0.657   5.492   8.525
  1274G12c C02N23512   0.668   5.618   8.472
  1274G12c H01M23513   0.647   5.641   8.368
  1274G12c C02O23514   0.699   5.732   8.546
  1274G12c H01L23515   0.719   5.725   8.652
  1274G12c C02P23516   0.707   5.869   8.486
  1274G12c H01K23517   0.672   5.868   8.383
  1274G12c H01J23518   0.653   5.941   8.548
  1274G12c O00H23519   0.845   5.900   8.479
  1274G12c H01I23520   0.856   5.993   8.495
  1274G12c C02H23521   0.673   5.465   8.663
  1274G12c H01C23522   0.709   5.543   8.729
  1274G12c C02L23523   0.651   5.342   8.726
  1274G12c H01D23524   0.652   5.336   8.834
  1274G12c C01323525   0.565   4.606   8.566
  1274G12c H00023526   0.539   4.653   8.473
  1274G12c C01423527   0.563   4.464   8.560
  1274G12c C00F23528   0.500   4.392   8.464
  1274G12c C00H23529   0.618   4.201   8.520
  1274G12c C00I23530   0.656   4.069   8.506
  1274G12c C00J23531   0.710   4.004   8.619
  1274G12c C00Z23532   0.700   4.388   8.894
  1274G12c C00Y23533   0.736   4.440   9.021
  1274G12c H00623534   0.732   4.546   9.039
  1274G12c C00X23535   0.762   4.355   9.131
  1274G12c O00323536   0.777   4.400   9.258
  1274G12c C01B23537   0.804   4.535   9.278
  1274G12c H00923538   0.786   4.573   9.379
  1274G12c H00823539   0.744   4.611   9.229
  1274G12c H00723540   0.908   4.555   9.252
  1274G12c C00W23541   0.763   4.216   9.116
  1274G12c O00423542   0.789   4.140   9.223
  1274G12c C01C23543   0.736   4.010   9.223
  1274G12c H00A23544   0.732   3.959   9.318
  1274G12c C00P23545   0.709   3.939   9.102
  1274G12c C00O23546   0.662   3.802   9.101
  1274G12c C01D23547   0.601   3.744   9.219
  1274G12c H00S23548   0.590   3.807   9.306
  1274G12c C01E23549   0.527   3.624   9.217
  1274G12c O00823550   0.447   3.577   9.317
  1274G12c C01V23551   0.471   3.624   9.446
  1274G12c C01Z23552   0.358   3.713   9.496
  1274G12c H00R23553   0.395   3.805   9.540
  1274G12c H00Q23554   0.280   3.750   9.430
  1274G12c O00923555   0.294   3.645   9.603
  1274G12c H00P23556   0.231   3.709   9.631
  1274G12c C01W23557   0.586   3.601   9.513
  1274G12c H00O23558   0.663   3.549   9.458
  1274G12c C01X23559   0.620   3.658   9.653
  1274G12c H00N23560   0.528   3.671   9.710
  1274G12c H00M23561   0.688   3.595   9.709
  1274G12c C01Y23562   0.685   3.796   9.639
  1274G12c C02D23563   0.813   3.809   9.585
  1274G12c H01923564   0.868   3.718   9.566
  1274G12c C02C23565   0.865   3.939   9.558
  1274G12c H01A23566   0.966   3.946   9.518
  1274G12c C02B23567   0.787   4.051   9.594
  1274G12c O00E23568   0.830   4.176   9.556
  1274G12c H01B23569   0.766   4.240   9.584
  1274G12c C02F23570   0.661   4.039   9.664
  1274G12c O00F23571   0.588   4.150   9.685
  1274G12c C02G23572   0.451   4.132   9.734
  1274G12c H01723573   0.399   4.090   9.648
  1274G12c H01623574   0.394   4.218   9.769
  1274G12c H01523575   0.456   4.066   9.820
  1274G12c C02E23576   0.612   3.907   9.680
  1274G12c H01823577   0.512   3.892   9.719
  1274G12c C01F23578   0.529   3.549   9.095
  1274G12c C01G23579   0.439   3.450   9.066
  1274G12c H00L23580   0.368   3.409   9.136
  1274G12c C01H23581   0.418   3.408   8.928
  1274G12c H00B23582   0.326   3.352   8.915
  1274G12c C01I23583   0.510   3.458   8.826
  1274G12c C01U23584   0.624   3.579   8.994
  1274G12c C00S23585   0.737   4.067   8.738
  1274G12c C00K23586   0.694   3.864   8.640
  1274G12c C00N23587   0.671   3.712   8.985
  1274G12c C00023588   0.633   3.516   8.869
  1274G12c C01J23589   0.491   3.485   8.683
  1274G12c C01K23590   0.384   3.441   8.591
  1274G12c C01P23591   0.300   3.323   8.603
  1274G12c C01Q23592   0.329   3.228   8.707
  1274G12c H00G23593   0.427   3.189   8.728
  1274G12c C01R23594   0.222   3.171   8.767
  1274G12c H00F23595   0.124   3.214   8.752
  1274G12c C01S23596   0.240   3.064   8.869
  1274G12c H00E23597   0.342   3.026   8.866
  1274G12c H00D23598   0.235   3.122   8.961
  1274G12c O00523599   0.132   2.974   8.852
  1274G12c H00C23600   0.065   3.006   8.910
  1274G12c C01O23601   0.196   3.299   8.510
  1274G12c H00H23602   0.135   3.210   8.524
  1274G12c C01N23603   0.169   3.384   8.404
  1274G12c O00623604   0.057   3.362   8.336
  1274G12c C01T23605   0.085   3.343   8.196
  1274G12c H00K23606   0.151   3.418   8.151
  1274G12c H00J23607   0.002   3.330   8.127
  1274G12c H00I23608   0.151   3.256   8.188
  1274G12c C01M23609   0.246   3.508   8.398
  1274G12c C02023610   0.629   3.803   8.527
  1274G12c C02123611   0.601   3.867   8.400
  1274G12c C01L23612   0.356   3.537   8.485
  1274G12c O00723613   0.194   3.607   8.320
  1274G12c C02223614   0.497   3.832   8.321
  1274G12c C02323615   0.618   4.007   8.385
  1274G12c C00G23616   0.535   4.263   8.433
  1274G12c C00E23617   0.388   4.458   8.400
  1274G12c O00A23618   0.319   4.567   8.446
  1274G12c C02423619   0.216   4.523   8.535
  1274G12c H00V23620   0.182   4.614   8.585
  1274G12c H00U23621   0.241   4.457   8.617
  1274G12c H00T23622   0.148   4.460   8.478
  1284G12c C00D23623   1.528   2.665   3.142
  1284G12c O00B23624   1.592   2.546   3.145
  1284G12c C02523625   1.552   2.452   3.050
  1284G12c C02623626   1.431   2.371   3.087
  1284G12c H00Y23627   1.392   2.306   3.009
  1284G12c H00X23628   1.356   2.439   3.128
  1284G12c O00C23629   1.472   2.296   3.195
  1284G12c H00W23630   1.541   2.348   3.233
  1284G12c C02723631   1.618   2.438   2.933
  1284G12c O00D23632   1.712   2.532   2.895
  1284G12c H00Z23633   1.756   2.498   2.819
  1284G12c C02823634   1.580   2.336   2.835
  1284G12c C02923635   1.571   2.202   2.876
  1284G12c H01023636   1.592   2.168   2.977
  1284G12c C02T23637   1.546   2.104   2.776
  1284G12c H01O23638   1.558   2.001   2.807
  1284G12c C02S23639   1.530   2.130   2.640
  1284G12c O00J23640   1.545   2.032   2.550
  1284G12c H01P23641   1.559   2.064   2.462
  1284G12c C02R23642   1.542   2.265   2.595
  1284G12c O00I23643   1.520   2.284   2.457
  1284G12c C02Q23644   1.504   2.411   2.401
  1284G12c H01N23645   1.596   2.468   2.402
  1284G12c H01R23646   1.438   2.475   2.460
  1284G12c H01Q23647   1.460   2.388   2.304
  1284G12c C02A23648   1.553   2.368   2.697
  1284G12c H01123649   1.559   2.473   2.672
  1284G12c C00C23650   1.520   2.739   3.025
  1284G12c H01223651   1.552   2.692   2.933
  1284G12c C00B23652   1.497   2.877   3.028
  1284G12c C00A23653   1.510   2.971   2.919
  1284G12c C00923654   1.614   2.966   2.822
  1284G12c C00823655   1.706   2.861   2.775
  1284G12c H01323656   1.679   2.757   2.774
  1284G12c C00723657   1.827   2.902   2.705
  1284G12c H01423658   1.893   2.824   2.671
  1284G12c C00623659   1.849   3.042   2.682
  1284G12c C00523660   1.758   3.140   2.732
  1284G12c C00423661   1.791   3.278   2.743
  1284G12c C00323662   1.700   3.364   2.814
  1284G12c C00223663   1.755   3.498   2.840
  1284G12c C00123664   1.692   3.610   2.899
  1284G12c C00M23665   1.629   3.607   3.031
  1284G12c C00L23666   1.531   3.511   3.068
  1284G12c C00R23667   1.487   3.483   3.201
  1284G12c C00Q23668   1.508   3.550   3.330
  1284G12c C00V23669   1.465   3.476   3.441
  1284G12c C00U23670   1.437   3.336   3.434
  1284G12c C00T23671   1.412   3.278   3.310
  1284G12c C01623672   1.414   3.140   3.285
  1284G12c C01523673   1.403   3.061   3.402
  1284G12c C01023674   1.408   3.118   3.530
  1284G12c C01123675   1.383   3.039   3.641
  1284G12c H00523676   1.374   3.074   3.742
  1284G12c C01223677   1.372   2.898   3.632
  1284G12c C01723678   1.346   2.811   3.744
  1284G12c O00223679   1.244   2.725   3.726
  1284G12c H00423680   1.221   2.711   3.817
  1284G12c C01823681   1.413   2.819   3.859
  1284G12c O00123682   1.519   2.905   3.875
  1284G12c H00323683   1.487   2.993   3.863
  1284G12c C01923684   1.380   2.729   3.973
  1284G12c H00223685   1.431   2.633   3.960
  1284G12c H00123686   1.417   2.766   4.069
  1284G12c O00023687   1.237   2.712   3.987
  1284G12c C01A23688   1.174   2.625   4.073
  1284G12c C02K23689   1.032   2.635   4.074
  1284G12c O00G23690   0.970   2.707   3.978
  1284G12c C02M23691   0.833   2.687   3.946
  1284G12c H01G23692   0.803   2.585   3.924
  1284G12c H01F23693   0.805   2.755   3.865
  1284G12c H01E23694   0.770   2.730   4.025
  1284G12c C02J23695   0.963   2.550   4.170
  1284G12c H01H23696   0.855   2.548   4.175
  1284G12c C02I23697   1.034   2.475   4.269
  1284G12c C02N23698   0.961   2.405   4.375
  1284G12c H01M23699   0.979   2.301   4.398
  1284G12c C02O23700   0.848   2.463   4.416
  1284G12c H01L23701   0.819   2.562   4.383
  1284G12c C02P23702   0.754   2.403   4.518
  1284G12c H01K23703   0.657   2.412   4.469
  1284G12c H01J23704   0.790   2.305   4.548
  1284G12c O00H23705   0.742   2.469   4.641
  1284G12c H01I23706   0.814   2.441   4.696
  1284G12c C02H23707   1.175   2.460   4.253
  1284G12c H01C23708   1.234   2.408   4.327
  1284G12c C02L23709   1.247   2.537   4.155
  1284G12c H01D23710   1.355   2.541   4.158
  1284G12c C01323711   1.390   2.840   3.500
  1284G12c H00023712   1.377   2.733   3.491
  1284G12c C01423713   1.422   2.925   3.390
  1284G12c C00F23714   1.454   2.867   3.267
  1284G12c C00H23715   1.429   3.080   3.157
  1284G12c C00I23716   1.429   3.168   3.045
  1284G12c C00J23717   1.430   3.308   3.072
  1284G12c C00Z23718   1.424   3.259   3.547
  1284G12c C00Y23719   1.417   3.325   3.675
  1284G12c H00623720   1.388   3.276   3.766
  1284G12c C00X23721   1.450   3.458   3.686
  1284G12c O00323722   1.459   3.531   3.806
  1284G12c C01B23723   1.437   3.476   3.937
  1284G12c H00923724   1.519   3.405   3.953
  1284G12c H00823725   1.342   3.424   3.931
  1284G12c H00723726   1.450   3.555   4.012
  1284G12c C00W23727   1.495   3.528   3.571
  1284G12c O00423728   1.540   3.654   3.595
  1284G12c C01C23729   1.589   3.726   3.483
  1284G12c H00A23730   1.586   3.834   3.482
  1284G12c C00P23731   1.595   3.666   3.354
  1284G12c C00O23732   1.694   3.717   3.260
  1284G12c C01D23733   1.805   3.794   3.312
  1284G12c H00S23734   1.803   3.818   3.417
  1284G12c C01E23735   1.925   3.817   3.245
  1284G12c O00823736   2.041   3.860   3.309
  1284G12c C01V23737   2.020   3.958   3.402
  1284G12c C01Z23738   1.946   4.087   3.356
  1284G12c H00R23739   2.007   4.171   3.391
  1284G12c H00Q23740   1.950   4.076   3.248
  1284G12c O00923741   1.810   4.107   3.412
  1284G12c H00P23742   1.817   4.116   3.506
  1284G12c C01W23743   2.075   3.949   3.522
  1284G12c H00O23744   2.130   3.860   3.551
  1284G12c C01X23745   2.064   4.054   3.633
  1284G12c H00N23746   2.144   4.033   3.704
  1284G12c H00M23747   2.097   4.147   3.586
  1284G12c C01Y23748   1.932   4.045   3.708
  1284G12c C02D23749   1.868   4.163   3.747
  1284G12c H01923750   1.902   4.259   3.713
  1284G12c C02C23751   1.753   4.162   3.824
  1284G12c H01A23752   1.713   4.258   3.855
  1284G12c C02B23753   1.704   4.038   3.866
  1284G12c O00E23754   1.594   4.038   3.943
  1284G12c H01B23755   1.585   3.949   3.971
  1284G12c C02F23756   1.762   3.919   3.828
  1284G12c O00F23757   1.706   3.805   3.883
  1284G12c C02G23758   1.756   3.685   3.836
  1284G12c H01723759   1.698   3.611   3.892
  1284G12c H01623760   1.863   3.671   3.853
  1284G12c H01523761   1.740   3.663   3.731
  1284G12c C02E23762   1.881   3.920   3.750
  1284G12c H01823763   1.925   3.822   3.734
  1284G12c C01F23764   1.934   3.780   3.108
  1284G12c C01G23765   2.054   3.754   3.042
  1284G12c H00L23766   2.149   3.786   3.082
  1284G12c C01H23767   2.047   3.681   2.923
  1284G12c H00B23768   2.139   3.628   2.899
  1284G12c C01I23769   1.927   3.655   2.856
  1284G12c C01U23770   1.810   3.754   3.042
  1284G12c C00S23771   1.429   3.357   3.202
  1284G12c C00K23772   1.517   3.388   2.994
  1284G12c C00N23773   1.700   3.692   3.123
  1284G12c C00023774   1.807   3.702   2.911
  1284G12c C01J23775   1.888   3.530   2.793
  1284G12c C01K23776   1.969   3.451   2.699
  1284G12c C01P23777   2.084   3.487   2.623
  1284G12c C01Q23778   2.141   3.621   2.619
  1284G12c H00G23779   2.237   3.641   2.663
  1284G12c C01R23780   2.081   3.714   2.537
  1284G12c H00F23781   1.982   3.687   2.501
  1284G12c C01S23782   2.135   3.856   2.525
  1284G12c H00E23783   2.082   3.916   2.451
  1284G12c H00D23784   2.119   3.904   2.621
  1284G12c O00523785   2.276   3.870   2.517
  1284G12c H00C23786   2.305   3.946   2.566
  1284G12c C01O23787   2.142   3.388   2.544
  1284G12c H00H23788   2.226   3.421   2.485
  1284G12c C01N23789   2.103   3.253   2.542
  1284G12c O00623790   2.177   3.160   2.475
  1284G12c C01T23791   2.301   3.189   2.412
  1284G12c H00K23792   2.353   3.098   2.383
  1284G12c H00J23793   2.374   3.238   2.476
  1284G12c H00I23794   2.278   3.247   2.322
  1284G12c C01M23795   1.988   3.215   2.614
  1284G12c C02023796   1.578   3.318   2.880
  1284G12c C02123797   1.540   3.190   2.838
  1284G12c C01L23798   1.915   3.320   2.688
  1284G12c O00723799   1.962   3.081   2.614
  1284G12c C02223800   1.630   3.101   2.784
  1284G12c C02323801   1.463   3.105   2.926
  1284G12c C00G23802   1.459   2.944   3.146
  1284G12c C00E23803   1.509   2.733   3.263
  1284G12c O00A23804   1.556   2.667   3.377
  1284G12c C02423805   1.686   2.717   3.422
  1284G12c H00V23806   1.755   2.702   3.339
  1284G12c H00U23807   1.720   2.680   3.519
  1284G12c H00T23808   1.667   2.825   3.430
  1294G12c C00D23809   4.077   5.334   6.313
  1294G12c O00B23810   4.022   5.406   6.209
  1294G12c C02523811   4.057   5.373   6.077
  1294G12c C02623812   3.934   5.369   5.996
  1294G12c H00Y23813   3.880   5.283   6.037
  1294G12c H00X23814   3.946   5.351   5.889
  1294G12c O00C23815   3.852   5.477   6.032
  1294G12c H00W23816   3.908   5.534   6.083
  1294G12c C02723817   4.185   5.366   6.030
  1294G12c O00D23818   4.294   5.383   6.112
  1294G12c H00Z23819   4.258   5.389   6.199
  1294G12c C02823820   4.215   5.342   5.891
  1294G12c C02923821   4.168   5.222   5.825
  1294G12c H01023822   4.101   5.149   5.868
  1294G12c C02T23823   4.212   5.200   5.696
  1294G12c H01O23824   4.194   5.112   5.636
  1294G12c C02S23825   4.291   5.294   5.625
  1294G12c O00J23826   4.337   5.265   5.500
  1294G12c H01P23827   4.431   5.277   5.501
  1294G12c C02R23828   4.347   5.405   5.691
  1294G12c O00I23829   4.444   5.481   5.626
  1294G12c C02Q23830   4.540   5.540   5.711
  1294G12c H01N23831   4.493   5.627   5.757
  1294G12c H01R23832   4.631   5.567   5.659
  1294G12c H01Q23833   4.566   5.474   5.794
  1294G12c C02A23834   4.307   5.422   5.824
  1294G12c H01123835   4.346   5.510   5.872
  1294G12c C00C23836   4.078   5.189   6.312
  1294G12c H01223837   4.047   5.139   6.222
  1294G12c C00B23838   4.120   5.113   6.423
  1294G12c C00A23839   4.110   4.966   6.442
  1294G12c C00923840   4.014   4.877   6.387
  1294G12c C00823841   3.898   4.903   6.309
  1294G12c H01323842   3.893   4.986   6.240
  1294G12c C00723843   3.785   4.814   6.332
  1294G12c H01423844   3.700   4.837   6.270
  1294G12c C00623845   3.786   4.707   6.418
  1294G12c C00523846   3.900   4.695   6.496
  1294G12c C00423847   3.902   4.615   6.613
  1294G12c C00323848   4.003   4.632   6.711
  1294G12c C00223849   3.990   4.558   6.836
  1294G12c C00123850   4.070   4.555   6.957
  1294G12c C00M23851   4.108   4.682   7.022
  1294G12c C00L23852   4.182   4.777   6.959
  1294G12c C00R23853   4.208   4.912   7.013
  1294G12c C00Q23854   4.183   4.977   7.135
  1294G12c C00V23855   4.222   5.113   7.135
  1294G12c C00U23856   4.237   5.186   7.019
  1294G12c C00T23857   4.232   5.123   6.895
  1294G12c C01623858   4.234   5.186   6.773
  1294G12c C01523859   4.239   5.326   6.774
  1294G12c C01023860   4.272   5.389   6.893
  1294G12c C01123861   4.306   5.524   6.882
  1294G12c H00523862   4.331   5.580   6.972
  1294G12c C01223863   4.313   5.588   6.760
  1294G12c C01723864   4.379   5.719   6.757
  1294G12c O00223865   4.494   5.727   6.826
  1294G12c H00423866   4.521   5.641   6.855
  1294G12c C01823867   4.326   5.823   6.685
  1294G12c O00123868   4.205   5.816   6.618
  1294G12c H00323869   4.186   5.905   6.594
  1294G12c C01923870   4.385   5.959   6.686
  1294G12c H00223871   4.408   5.987   6.789
  1294G12c H00123872   4.474   5.955   6.624
  1294G12c O00023873   4.296   6.050   6.621
  1294G12c C01A23874   4.307   6.189   6.644
  1294G12c C02K23875   4.216   6.264   6.577
  1294G12c O00G23876   4.120   6.206   6.494
  1294G12c C02M23877   4.015   6.286   6.427
  1294G12c H01G23878   4.059   6.353   6.354
  1294G12c H01F23879   3.955   6.347   6.494
  1294G12c H01E23880   3.943   6.220   6.378
  1294G12c C02J23881   4.211   6.400   6.609
  1294G12c H01H23882   4.142   6.464   6.556
  1294G12c C02I23883   4.294   6.465   6.710
  1294G12c C02N23884   4.265   0.077   6.740
  1294G12c H01M23885   4.204   0.135   6.672
  1294G12c C02O23886   4.302   0.138   6.855
  1294G12c H01L23887   4.356   0.084   6.932
  1294G12c C02P23888   4.278   0.287   6.878
  1294G12c H01K23889   4.374   0.335   6.863
  1294G12c H01J23890   4.207   0.335   6.810
  1294G12c O00H23891   4.233   0.311   7.010
  1294G12c H01I23892   4.220   0.403   7.027
  1294G12c C02H23893   4.392   6.383   6.768
  1294G12c H01C23894   4.460   6.429   6.839
  1294G12c C02L23895   4.393   6.248   6.738
  1294G12c H01D23896   4.476   6.199   6.788
  1294G12c C01323897   4.274   5.523   6.645
  1294G12c H00023898   4.279   5.579   6.552
  1294G12c C01423899   4.238   5.387   6.652
  1294G12c C00F23900   4.185   5.326   6.538
  1294G12c C00H23901   4.206   5.114   6.654
  1294G12c C00I23902   4.211   4.976   6.661
  1294G12c C00J23903   4.231   4.913   6.785
  1294G12c C00Z23904   4.267   5.328   7.016
  1294G12c C00Y23905   4.290   5.387   7.140
  1294G12c H00623906   4.324   5.488   7.154
  1294G12c C00X23907   4.272   5.318   7.263
  1294G12c O00323908   4.321   5.372   7.380
  1294G12c C01B23909   4.224   5.417   7.480
  1294G12c H00923910   4.265   5.483   7.556
  1294G12c H00823911   4.178   5.325   7.515
  1294G12c H00723912   4.153   5.472   7.418
  1294G12c C00W23913   4.232   5.180   7.259
  1294G12c O00423914   4.218   5.121   7.376
  1294G12c C01C23915   4.128   5.013   7.372
  1294G12c H00A23916   4.097   4.972   7.467
  1294G12c C00P23917   4.120   4.925   7.253
  1294G12c C00O23918   4.041   4.805   7.245
  1294G12c C01D23919   3.944   4.791   7.347
  1294G12c H00S23920   3.932   4.860   7.429
  1294G12c C01E23921   3.842   4.692   7.337
  1294G12c O00823922   3.725   4.700   7.418
  1294G12c C01V23923   3.719   4.622   7.533
  1294G12c C01Z23924   3.655   4.692   7.651
  1294G12c H00R23925   3.579   4.762   7.616
  1294G12c H00Q23926   3.605   4.622   7.717
  1294G12c O00923927   3.751   4.761   7.726
  1294G12c H00P23928   3.801   4.822   7.674
  1294G12c C01W23929   3.775   4.501   7.545
  1294G12c H00O23930   3.819   4.450   7.461
  1294G12c C01X23931   3.773   4.409   7.669
  1294G12c H00N23932   3.856   4.339   7.658
  1294G12c H00M23933   3.783   4.478   7.753
  1294G12c C01Y23934   3.655   4.319   7.682
  1294G12c C02D23935   3.539   4.343   7.607
  1294G12c H01923936   3.525   4.425   7.538
  1294G12c C02C23937   3.425   4.263   7.625
  1294G12c H01A23938   3.343   4.269   7.556
  1294G12c C02B23939   3.431   4.161   7.726
  1294G12c O00E23940   3.337   4.067   7.734
  1294G12c H01B23941   3.355   3.997   7.795
  1294G12c C02F23942   3.549   4.147   7.802
  1294G12c O00F23943   3.542   4.045   7.894
  1294G12c C02G23944   3.661   3.982   7.940
  1294G12c H01723945   3.638   3.899   8.007
  1294G12c H01623946   3.730   4.051   7.989
  1294G12c H01523947   3.719   3.945   7.855
  1294G12c C02E23948   3.664   4.227   7.785
  1294G12c H01823949   3.755   4.195   7.835
  1294G12c C01F23950   3.843   4.593   7.235
  1294G12c C01G23951   3.736   4.506   7.198
  1294G12c H00L23952   3.639   4.513   7.246
  1294G12c C01H23953   3.743   4.436   7.072
  1294G12c H00B23954   3.649   4.390   7.044
  1294G12c C01I23955   3.858   4.440   6.996
  1294G12c C01U23956   3.956   4.582   7.159
  1294G12c C00S23957   4.226   4.988   6.898
  1294G12c C00K23958   4.175   4.787   6.813
  1294G12c C00N23959   4.044   4.697   7.148
  1294G12c C00023960   3.979   4.492   7.052
  1294G12c C01J23961   3.875   4.468   6.856
  1294G12c C01K23962   3.773   4.446   6.751
  1294G12c C01P23963   3.663   4.348   6.746
  1294G12c C01Q23964   3.649   4.248   6.846
  1294G12c H00G23965   3.729   4.192   6.892
  1294G12c C01R23966   3.525   4.239   6.900
  1294G12c H00F23967   3.447   4.304   6.864
  1294G12c C01S23968   3.494   4.145   7.010
  1294G12c H00E23969   3.402   4.090   6.988
  1294G12c H00D23970   3.573   4.071   7.015
  1294G12c O00523971   3.482   4.208   7.137
  1294G12c H00C23972   3.406   4.176   7.183
  1294G12c C01O23973   3.578   4.344   6.636
  1294G12c H00H23974   3.502   4.267   6.632
  1294G12c C01N23975   3.592   4.425   6.520
  1294G12c O00623976   3.507   4.419   6.410
  1294G12c C01T23977   3.420   4.310   6.407
  1294G12c H00K23978   3.356   4.312   6.319
  1294G12c H00J23979   3.352   4.304   6.493
  1294G12c H00I23980   3.475   4.217   6.403
  1294G12c C01M23981   3.690   4.522   6.531
  1294G12c C02023982   4.108   4.730   6.698
  1294G12c C02123983   4.119   4.778   6.568
  1294G12c C01L23984   3.794   4.528   6.637
  1294G12c O00723985   3.682   4.617   6.434
  1294G12c C02223986   4.021   4.768   6.472
  1294G12c C02323987   4.168   4.910   6.552
  1294G12c C00G23988   4.171   5.183   6.537
  1294G12c C00E23989   4.120   5.398   6.431
  1294G12c O00A23990   4.104   5.531   6.420
  1294G12c C02423991   3.973   5.573   6.457
  1294G12c H00V23992   3.963   5.680   6.475
  1294G12c H00U23993   3.957   5.545   6.561
  1294G12c H00T23994   3.891   5.546   6.390
  1304G12c C00D23995   2.732   0.526   7.344
  1304G12c O00B23996   2.719   0.402   7.278
  1304G12c C02523997   2.646   0.405   7.162
  1304G12c C02623998   2.510   0.332   7.179
  1304G12c H00Y23999   2.438   0.347   7.099
  1304G12c H00X24000   2.472   0.384   7.267
  1304G12c O00C24001   2.524   0.197   7.209
  1304G12c H00W24002   2.448   0.182   7.263
  1304G12c C02724003   2.687   0.477   7.058
  1304G12c O00D24004   2.818   0.529   7.063
  1304G12c H00Z24005   2.849   0.477   7.135
  1304G12c C02824006   2.600   0.509   6.953
  1304G12c C02924007   2.534   0.412   6.876
  1304G12c H01024008   2.549   0.308   6.901
  1304G12c C02T24009   2.456   0.448   6.767
  1304G12c H01O24010   2.412   0.365   6.714
  1304G12c C02S24011   2.435   0.578   6.728
  1304G12c O00J24012   2.375   0.594   6.613
  1304G12c H01P24013   2.363   0.686   6.600
  1304G12c C02R24014   2.493   0.678   6.800
  1304G12c O00I24015   2.475   0.804   6.749
  1304G12c C02Q24016   2.523   0.914   6.825
  1304G12c H01N24017   2.459   0.938   6.910
  1304G12c H01R24018   2.523   1.005   6.766
  1304G12c H01Q24019   2.625   0.894   6.858
  1304G12c C02A24020   2.580   0.640   6.908
  1304G12c H01124021   2.644   0.705   6.966
  1304G12c C00C24022   2.622   0.623   7.339
  1304G12c H01224023   2.526   0.601   7.295
  1304G12c C00B24024   2.628   0.744   7.411
  1304G12c C00A24025   2.527   0.844   7.433
  1304G12c C00924026   2.414   0.883   7.348
  1304G12c C00824027   2.350   0.831   7.231
  1304G12c H01324028   2.373   0.730   7.198
  1304G12c C00724029   2.272   0.922   7.154
  1304G12c H01424030   2.215   0.891   7.068
  1304G12c C00624031   2.254   1.060   7.197
  1304G12c C00524032   2.314   1.099   7.312
  1304G12c C00424033   2.323   1.239   7.353
  1304G12c C00324034   2.402   1.277   7.461
  1304G12c C00224035   2.406   1.419   7.488
  1304G12c C00124036   2.490   1.496   7.573
  1304G12c C00M24037   2.638   1.472   7.592
  1304G12c C00L24038   2.683   1.348   7.628
  1304G12c C00R24039   2.826   1.310   7.623
  1304G12c C00Q24040   2.948   1.381   7.595
  1304G12c C00V24041   3.066   1.288   7.592
  1304G12c C00U24042   3.052   1.148   7.584
  1304G12c C00T24043   2.934   1.083   7.587
  1304G12c C01624044   2.912   0.947   7.556
  1304G12c C01524045   3.018   0.865   7.539
  1304G12c C01024046   3.149   0.924   7.554
  1304G12c C01124047   3.255   0.831   7.557
  1304G12c H00524048   3.354   0.869   7.579
  1304G12c C01224049   3.241   0.694   7.534
  1304G12c C01724050   3.356   0.611   7.528
  1304G12c O00224051   3.466   0.658   7.447
  1304G12c H00424052   3.429   0.697   7.369
  1304G12c C01824053   3.365   0.505   7.609
  1304G12c O00124054   3.258   0.474   7.692
  1304G12c H00324055   3.290   0.412   7.755
  1304G12c C01924056   3.480   0.407   7.613
  1304G12c H00224057   3.452   0.316   7.559
  1304G12c H00124058   3.568   0.452   7.567
  1304G12c O00024059   3.519   0.379   7.743
  1304G12c C01A24060   3.643   0.317   7.769
  1304G12c C02K24061   3.686   0.307   7.899
  1304G12c O00G24062   3.600   0.368   7.987
  1304G12c C02M24063   3.612   0.354   8.128
  1304G12c H01G24064   3.547   0.423   8.181
  1304G12c H01F24065   3.716   0.368   8.158
  1304G12c H01E24066   3.584   0.252   8.156
  1304G12c C02J24067   3.806   0.246   7.932
  1304G12c H01H24068   3.829   0.235   8.037
  1304G12c C02I24069   3.885   0.182   7.836
  1304G12c C02N24070   4.002   0.117   7.879
  1304G12c H01M24071   4.069   0.167   7.947
  1304G12c C02O24072   4.042   6.517   7.831
  1304G12c H01L24073   3.983   6.459   7.762
  1304G12c C02P24074   4.166   6.446   7.885
  1304G12c H01K24075   4.197   6.383   7.801
  1304G12c H01J24076   4.236   0.003   7.913
  1304G12c O00H24077   4.124   6.363   7.993
  1304G12c H01I24078   4.112   6.418   8.068
  1304G12c C02H24079   3.841   0.188   7.701
  1304G12c H01C24080   3.903   0.147   7.622
  1304G12c C02L24081   3.721   0.250   7.670
  1304G12c H01D24082   3.702   0.266   7.565
  1304G12c C01324083   3.113   0.650   7.506
  1304G12c H00024084   3.111   0.544   7.486
  1304G12c C01424085   2.998   0.733   7.502
  1304G12c C00F24086   2.867   0.694   7.458
  1304G12c C00H24087   2.783   0.902   7.532
  1304G12c C00I24088   2.676   0.989   7.564
  1304G12c C00J24089   2.703   1.117   7.618
  1304G12c C00Z24090   3.162   1.064   7.566
  1304G12c C00Y24091   3.290   1.122   7.558
  1304G12c H00624092   3.376   1.057   7.555
  1304G12c C00X24093   3.305   1.264   7.553
  1304G12c O00324094   3.430   1.331   7.526
  1304G12c C01B24095   3.546   1.251   7.481
  1304G12c H00924096   3.575   1.186   7.564
  1304G12c H00824097   3.630   1.318   7.467
  1304G12c H00724098   3.532   1.206   7.383
  1304G12c C00W24099   3.197   1.345   7.568
  1304G12c O00424100   3.210   1.480   7.548
  1304G12c C01C24101   3.101   1.563   7.555
  1304G12c H00A24102   3.129   1.666   7.572
  1304G12c C00P24103   2.965   1.517   7.566
  1304G12c C00O24104   2.858   1.607   7.532
  1304G12c C01D24105   2.892   1.722   7.458
  1304G12c H00S24106   2.990   1.749   7.422
  1304G12c C01E24107   2.791   1.804   7.394
  1304G12c O00824108   2.818   1.913   7.319
  1304G12c C01V24109   2.927   1.912   7.237
  1304G12c C01Z24110   3.045   2.002   7.278
  1304G12c H00R24111   3.036   2.024   7.384
  1304G12c H00Q24112   3.146   1.962   7.267
  1304G12c O00924113   3.036   2.120   7.204
  1304G12c H00P24114   2.948   2.152   7.200
  1304G12c C01W24115   2.926   1.825   7.133
  1304G12c H00O24116   2.844   1.756   7.120
  1304G12c C01X24117   3.038   1.818   7.028
  1304G12c H00N24118   2.986   1.770   6.946
  1304G12c H00M24119   3.067   1.918   6.996
  1304G12c C01Y24120   3.149   1.726   7.087
  1304G12c C02D24121   3.277   1.773   7.126
  1304G12c H01924122   3.297   1.879   7.118
  1304G12c C02C24123   3.369   1.675   7.172
  1304G12c H01A24124   3.454   1.708   7.230
  1304G12c C02B24125   3.341   1.538   7.186
  1304G12c O00E24126   3.431   1.452   7.241
  1304G12c H01B24127   3.375   1.379   7.260
  1304G12c C02F24128   3.213   1.503   7.167
  1304G12c O00F24129   3.184   1.382   7.220
  1304G12c C02G24130   3.053   1.337   7.231
  1304G12c H01724131   3.059   1.237   7.275
  1304G12c H01624132   3.003   1.334   7.134
  1304G12c H01524133   2.989   1.396   7.297
  1304G12c C02E24134   3.123   1.588   7.103
  1304G12c H01824135   3.021   1.560   7.083
  1304G12c C01F24136   2.652   1.776   7.414
  1304G12c C01G24137   2.551   1.824   7.331
  1304G12c H00L24138   2.587   1.895   7.258
  1304G12c C01H24139   2.425   1.752   7.315
  1304G12c H00B24140   2.365   1.763   7.225
  1304G12c C01I24141   2.404   1.642   7.404
  1304G12c C01U24142   2.619   1.678   7.507
  1304G12c C00S24143   2.827   1.170   7.627
  1304G12c C00K24144   2.611   1.229   7.598
  1304G12c C00N24145   2.717   1.584   7.548
  1304G12c C00024146   2.486   1.632   7.521
  1304G12c C01J24147   2.332   1.510   7.402
  1304G12c C01K24148   2.240   1.470   7.297
  1304G12c C01P24149   2.147   1.544   7.220
  1304G12c C01Q24150   2.114   1.684   7.243
  1304G12c H00G24151   2.107   1.751   7.159
  1304G12c C01R24152   2.119   1.736   7.366
  1304G12c H00F24153   2.143   1.677   7.453
  1304G12c C01S24154   2.105   1.883   7.405
  1304G12c H00E24155   2.145   1.911   7.503
  1304G12c H00D24156   2.182   1.939   7.352
  1304G12c O00524157   1.974   1.934   7.376
  1304G12c H00C24158   1.979   2.010   7.320
  1304G12c C01O24159   2.072   1.489   7.116
  1304G12c H00H24160   2.015   1.558   7.054
  1304G12c C01N24161   2.093   1.356   7.083
  1304G12c O00624162   2.050   1.300   6.964
  1304G12c C01T24163   1.973   1.373   6.870
  1304G12c H00K24164   2.043   1.440   6.820
  1304G12c H00J24165   1.891   1.430   6.914
  1304G12c H00I24166   1.937   1.302   6.796
  1304G12c C01M24167   2.166   1.277   7.171
  1304G12c C02024168   2.491   1.187   7.532
  1304G12c C02124169   2.456   1.049   7.511
  1304G12c C01L24170   2.242   1.334   7.280
  1304G12c O00724171   2.174   1.144   7.132
  1304G12c C02224172   2.383   1.012   7.397
  1304G12c C02324173   2.554   0.950   7.520
  1304G12c C00G24174   2.758   0.780   7.464
  1304G12c C00E24175   2.849   0.560   7.400
  1304G12c O00A24176   2.941   0.463   7.395
  1304G12c C02424177   2.920   0.359   7.491
  1304G12c H00V24178   3.011   0.300   7.499
  1304G12c H00U24179   2.836   0.291   7.475
  1304G12c H00T24180   2.908   0.418   7.582
  1314G12c C00D24181   0.056   3.822   3.545
  1314G12c O00B24182   0.106   3.701   3.509
  1314G12c C02524183   0.097   3.596   3.600
  1314G12c C02624184   6.493   3.511   3.581
  1314G12c H00Y24185   6.414   3.576   3.544
  1314G12c H00X24186   6.469   3.463   3.675
  1314G12c O00C24187   0.004   3.408   3.488
  1314G12c H00W24188   6.450   3.373   3.443
  1314G12c C02724189   0.187   3.596   3.706
  1314G12c O00D24190   0.274   3.699   3.727
  1314G12c H00Z24191   0.331   3.719   3.654
  1314G12c C02824192   0.178   3.497   3.808
  1314G12c C02924193   0.191   3.538   3.943
  1314G12c H01024194   0.190   3.641   3.975
  1314G12c C02T24195   0.196   3.444   4.047
  1314G12c H01O24196   0.212   3.481   4.147
  1314G12c C02S24197   0.181   3.309   4.017
  1314G12c O00J24198   0.184   3.220   4.119
  1314G12c H01P24199   0.143   3.140   4.090
  1314G12c C02R24200   0.174   3.263   3.889
  1314G12c O00I24201   0.164   3.121   3.879
  1314G12c C02Q24202   0.132   3.079   3.752
  1314G12c H01N24203   0.211   3.085   3.677
  1314G12c H01R24204   0.036   3.113   3.713
  1314G12c H01Q24205   0.105   2.974   3.766
  1314G12c C02A24206   0.180   3.354   3.784
  1314G12c H01124207   0.179   3.319   3.682
  1314G12c C00C24208   0.015   3.859   3.675
  1314G12c H01224209   0.037   3.799   3.762
  1314G12c C00B24210   6.485   3.988   3.707
  1314G12c C00A24211   6.465   4.054   3.831
  1314G12c C00924212   6.448   3.998   3.965
  1314G12c C00824213   6.433   3.875   4.031
  1314G12c H01324214   6.454   3.780   3.985
  1314G12c C00724215   6.366   3.875   4.160
  1314G12c H01424216   6.342   3.782   4.211
  1314G12c C00624217   6.304   3.986   4.215
  1314G12c C00524218   6.326   4.104   4.149
  1314G12c C00424219   6.237   4.212   4.180
  1314G12c C00324220   6.240   4.330   4.100
  1314G12c C00224221   6.140   4.432   4.133
  1314G12c C00124222   6.108   4.558   4.066
  1314G12c C00M24223   6.083   4.570   3.926
  1314G12c C00L24224   6.183   4.536   3.833
  1314G12c C00R24225   6.159   4.526   3.691
  1314G12c C00Q24226   6.038   4.544   3.606
  1314G12c C00V24227   6.057   4.499   3.471
  1314G12c C00U24228   6.161   4.417   3.427
  1314G12c C00T24229   6.253   4.374   3.516
  1314G12c C01624230   6.330   4.262   3.497
  1314G12c C01524231   6.335   4.203   3.375
  1314G12c C01024232   6.253   4.259   3.274
  1314G12c C01124233   6.266   4.201   3.150
  1314G12c H00524234   6.219   4.237   3.059
  1314G12c C01224235   6.336   4.086   3.124
  1314G12c C01724236   6.347   4.029   2.984
  1314G12c O00224237   6.231   4.023   2.901
  1314G12c H00424238   6.256   4.013   2.810
  1314G12c C01824239   6.470   4.011   2.935
  1314G12c O00124240   0.063   4.028   3.005
  1314G12c H00324241   0.040   4.047   3.095
  1314G12c C01924242   6.492   3.968   2.791
  1314G12c H00224243   0.074   3.992   2.764
  1314G12c H00124244   6.478   3.860   2.790
  1314G12c O00024245   6.414   4.033   2.698
  1314G12c C01A24246   6.437   3.979   2.567
  1314G12c C02K24247   6.352   4.026   2.465
  1314G12c O00G24248   6.256   4.119   2.504
  1314G12c C02M24249   6.149   4.149   2.417
  1314G12c H01G24250   6.176   4.223   2.342
  1314G12c H01F24251   6.068   4.186   2.479
  1314G12c H01E24252   6.116   4.066   2.354
  1314G12c C02J24253   6.367   3.979   2.337
  1314G12c H01H24254   6.301   4.007   2.256
  1314G12c C02I24255   6.474   3.897   2.304
  1314G12c C02N24256   6.478   3.838   2.170
  1314G12c H01M24257   6.466   3.902   2.084
  1314G12c C02O24258   6.485   3.711   2.155
  1314G12c H01L24259   6.501   3.662   2.250
  1314G12c C02P24260   6.482   3.630   2.037
  1314G12c H01K24261   6.418   3.545   2.063
  1314G12c H01J24262   6.444   3.688   1.953
  1314G12c O00H24263   0.095   3.584   2.019
  1314G12c H01I24264   0.149   3.583   2.096
  1314G12c C02H24265   0.047   3.861   2.400
  1314G12c H01C24266   0.124   3.792   2.370
  1314G12c C02L24267   0.026   3.892   2.531
  1314G12c H01D24268   0.098   3.856   2.603
  1314G12c C01324269   6.410   4.030   3.230
  1314G12c H00024270   6.446   3.929   3.216
  1314G12c C01424271   6.418   4.089   3.359
  1314G12c C00F24272   6.487   4.028   3.463
  1314G12c C00H24273   6.400   4.201   3.607
  1314G12c C00I24274   6.402   4.264   3.731
  1314G12c C00J24275   6.334   4.388   3.739
  1314G12c C00Z24276   6.167   4.363   3.301
  1314G12c C00Y24277   6.079   4.413   3.200
  1314G12c H00624278   6.071   4.370   3.102
  1314G12c C00X24279   5.973   4.496   3.239
  1314G12c O00324280   5.874   4.519   3.142
  1314G12c C01B24281   5.755   4.602   3.162
  1314G12c H00924282   5.688   4.570   3.242
  1314G12c H00824283   5.697   4.607   3.069
  1314G12c H00724284   5.775   4.706   3.184
  1314G12c C00W24285   5.960   4.534   3.375
  1314G12c O00424286   5.860   4.616   3.406
  1314G12c C01C24287   5.818   4.618   3.533
  1314G12c H00A24288   5.714   4.638   3.552
  1314G12c C00P24289   5.909   4.597   3.644
  1314G12c C00O24290   5.870   4.630   3.778
  1314G12c C01D24291   5.741   4.689   3.803
  1314G12c H00S24292   5.687   4.738   3.723
  1314G12c C01E24293   5.676   4.683   3.928
  1314G12c O00824294   5.547   4.727   3.930
  1314G12c C01V24295   5.504   4.782   4.054
  1314G12c C01Z24296   5.383   4.715   4.113
  1314G12c H00R24297   5.369   4.612   4.081
  1314G12c H00Q24298   5.362   4.717   4.220
  1314G12c O00924299   5.275   4.787   4.056
  1314G12c H00P24300   5.305   4.808   3.969
  1314G12c C01W24301   5.580   4.870   4.130
  1314G12c H00O24302   5.676   4.907   4.095
  1314G12c C01X24303   5.542   4.930   4.262
  1314G12c H00N24304   5.538   5.036   4.237
  1314G12c H00M24305   5.446   4.907   4.308
  1314G12c C01Y24306   5.640   4.902   4.373
  1314G12c C02D24307   5.778   4.936   4.357
  1314G12c H01924308   5.810   4.966   4.258
  1314G12c C02C24309   5.871   4.924   4.457
  1314G12c H01A24310   5.976   4.935   4.435
  1314G12c C02B24311   5.829   4.866   4.580
  1314G12c O00E24312   5.914   4.833   4.676
  1314G12c H01B24313   5.870   4.809   4.756
  1314G12c C02F24314   5.694   4.831   4.596
  1314G12c O00F24315   5.666   4.794   4.724
  1314G12c C02G24316   5.528   4.792   4.761
  1314G12c H01724317   5.467   4.705   4.736
  1314G12c H01624318   5.465   4.880   4.753
  1314G12c H01524319   5.532   4.767   4.867
  1314G12c C02E24320   5.599   4.840   4.489
  1314G12c H01824321   5.495   4.813   4.501
  1314G12c C01F24322   5.748   4.621   4.032
  1314G12c C01G24323   5.700   4.557   4.150
  1314G12c H00L24324   5.592   4.552   4.163
  1314G12c C01H24325   5.790   4.485   4.240
  1314G12c H00B24326   5.752   4.412   4.310
  1314G12c C01I24327   5.933   4.495   4.211
  1314G12c C01U24328   5.890   4.626   4.025
  1314G12c C00S24329   6.267   4.445   3.635
  1314G12c C00K24330   6.283   4.439   3.862
  1314G12c C00N24331   5.948   4.610   3.895
  1314G12c C00024332   5.978   4.585   4.122
  1314G12c C01J24333   6.045   4.407   4.240
  1314G12c C01K24334   6.052   4.299   4.330
  1314G12c C01P24335   5.973   4.276   4.444
  1314G12c C01Q24336   5.897   4.388   4.507
  1314G12c H00G24337   5.931   4.485   4.473
  1314G12c C01R24338   5.801   4.362   4.591
  1314G12c H00F24339   5.758   4.267   4.619
  1314G12c C01S24340   5.721   4.470   4.653
  1314G12c H00E24341   5.740   4.462   4.760
  1314G12c H00D24342   5.750   4.567   4.614
  1314G12c O00524343   5.588   4.453   4.622
  1314G12c H00C24344   5.571   4.361   4.633
  1314G12c C01O24345   5.994   4.158   4.525
  1314G12c H00H24346   5.929   4.137   4.609
  1314G12c C01N24347   6.095   4.061   4.494
  1314G12c O00624348   6.131   3.950   4.562
  1314G12c C01T24349   6.071   3.933   4.690
  1314G12c H00K24350   5.966   3.905   4.688
  1314G12c H00J24351   6.059   4.030   4.738
  1314G12c H00I24352   6.113   3.856   4.754
  1314G12c C01M24353   6.166   4.079   4.375
  1314G12c C02024354   6.315   4.348   3.977
  1314G12c C02124355   6.413   4.238   3.964
  1314G12c C01L24356   6.155   4.199   4.295
  1314G12c O00724357   6.238   3.972   4.328
  1314G12c C02224358   6.407   4.118   4.031
  1314G12c C02324359   6.455   4.192   3.832
  1314G12c C00G24360   6.453   4.071   3.591
  1314G12c C00E24361   0.040   3.909   3.445
  1314G12c O00A24362   0.114   3.887   3.330
  1314G12c C02424363   0.228   3.977   3.309
  1314G12c H00V24364   0.204   4.083   3.310
  1314G12c H00U24365   0.269   3.952   3.211
  1314G12c H00T24366   0.298   3.940   3.383
  1324G12c C00D24367   5.857   0.711   4.785
  1324G12c O00B24368   5.754   0.722   4.869
  1324G12c C02524369   5.731   0.836   4.936
  1324G12c C02624370   5.816   0.841   5.053
  1324G12c H00Y24371   5.781   0.925   5.112
  1324G12c H00X24372   5.918   0.865   5.023
  1324G12c O00C24373   5.789   0.725   5.127
  1324G12c H00W24374   5.742   0.676   5.061
  1324G12c C02724375   5.664   0.940   4.876
  1324G12c O00D24376   5.605   0.908   4.758
  1324G12c H00Z24377   5.606   0.813   4.756
  1324G12c C02824378   5.651   1.072   4.933
  1324G12c C02924379   5.530   1.132   4.925
  1324G12c H01024380   5.444   1.080   4.885
  1324G12c C02T24381   5.503   1.254   4.982
  1324G12c H01O24382   5.403   1.292   4.974
  1324G12c C02S24383   5.614   1.324   5.036
  1324G12c O00J24384   5.602   1.454   5.084
  1324G12c H01P24385   5.688   1.475   5.115
  1324G12c C02R24386   5.743   1.271   5.045
  1324G12c O00I24387   5.835   1.345   5.120
  1324G12c C02Q24388   5.940   1.262   5.171
  1324G12c H01N24389   5.908   1.166   5.212
  1324G12c H01R24390   5.995   1.321   5.245
  1324G12c H01Q24391   6.018   1.252   5.095
  1324G12c C02A24392   5.763   1.142   4.988
  1324G12c H01124393   5.866   1.109   4.991
  1324G12c C00C24394   5.919   0.822   4.737
  1324G12c H01224395   5.898   0.923   4.767
  1324G12c C00B24396   6.037   0.807   4.663
  1324G12c C00A24397   6.126   0.914   4.621
  1324G12c C00924398   6.105   1.058   4.592
  1324G12c C00824399   5.987   1.140   4.587
  1324G12c H01324400   5.905   1.103   4.646
  1324G12c C00724401   5.979   1.248   4.492
  1324G12c H01424402   5.887   1.303   4.482
  1324G12c C00624403   6.084   1.279   4.409
  1324G12c C00524404   6.200   1.199   4.408
  1324G12c C00424405   6.290   1.195   4.304
  1324G12c C00324406   6.379   1.084   4.293
  1324G12c C00224407   6.471   1.088   4.174
  1324G12c C00124408   0.052   0.997   4.134
  1324G12c C00M24409   0.029   0.854   4.128
  1324G12c C00L24410   6.491   0.778   4.226
  1324G12c C00R24411   6.440   0.642   4.218
  1324G12c C00Q24412   6.432   0.544   4.117
  1324G12c C00V24413   6.366   0.425   4.161
  1324G12c C00U24414   6.298   0.415   4.288
  1324G12c C00T24415   6.306   0.516   4.386
  1324G12c C01624416   6.211   0.528   4.491
  1324G12c C01524417   6.125   0.423   4.510
  1324G12c C01024418   6.133   0.306   4.431
  1324G12c C01124419   6.044   0.197   4.452
  1324G12c H00524420   6.041   0.107   4.391
  1324G12c C01224421   5.949   0.205   4.554
  1324G12c C01724422   5.885   0.084   4.571
  1324G12c O00224423   5.829   0.014   4.469
  1324G12c H00424424   5.828   6.443   4.490
  1324G12c C01824425   5.872   0.029   4.692
  1324G12c O00124426   5.926   0.088   4.808
  1324G12c H00324427   5.995   0.145   4.776
  1324G12c C01924428   5.803   6.416   4.725
  1324G12c H00224429   5.766   6.424   4.827
  1324G12c H00124430   5.711   6.405   4.668
  1324G12c O00024431   5.868   6.298   4.687
  1324G12c C01A24432   5.979   6.266   4.762
  1324G12c C02K24433   6.111   6.258   4.703
  1324G12c O00G24434   6.125   6.283   4.570
  1324G12c C02M24435   6.201   6.395   4.533
  1324G12c H01G24436   6.200   6.406   4.425
  1324G12c H01F24437   6.307   6.385   4.556
  1324G12c H01E24438   6.174   6.492   4.577
  1324G12c C02J24439   6.216   6.229   4.788
  1324G12c H01H24440   6.315   6.217   4.746
  1324G12c C02I24441   6.196   6.221   4.930
  1324G12c C02N24442   6.304   6.223   5.020
  1324G12c H01M24443   6.302   6.174   5.116
  1324G12c C02O24444   6.414   6.295   4.989
  1324G12c H01L24445   6.428   6.354   4.899
  1324G12c C02P24446   0.018   6.301   5.079
  1324G12c H01K24447   0.112   6.279   5.030
  1324G12c H01J24448   0.026   6.404   5.113
  1324G12c O00H24449   0.016   6.216   5.187
  1324G12c H01I24450   0.078   6.248   5.251
  1324G12c C02H24451   6.064   6.223   4.987
  1324G12c H01C24452   6.051   6.223   5.094
  1324G12c C02L24453   5.954   6.240   4.899
  1324G12c H01D24454   5.857   6.258   4.944
  1324G12c C01324455   5.935   0.329   4.622
  1324G12c H00024456   5.845   0.332   4.682
  1324G12c C01424457   6.020   0.440   4.598
  1324G12c C00F24458   6.005   0.562   4.662
  1324G12c C00H24459   6.190   0.654   4.545
  1324G12c C00I24460   6.276   0.761   4.513
  1324G12c C00J24461   6.374   0.736   4.416
  1324G12c C00Z24462   6.219   0.305   4.322
  1324G12c C00Y24463   6.228   0.190   4.234
  1324G12c H00624464   6.173   0.099   4.252
  1324G12c C00X24465   6.301   0.197   4.108
  1324G12c O00324466   6.292   0.100   4.013
  1324G12c C01B24467   6.227   6.491   4.036
  1324G12c H00924468   6.274   6.444   4.122
  1324G12c H00824469   6.240   6.426   3.950
  1324G12c H00724470   6.118   6.500   4.042
  1324G12c C00W24471   6.373   0.313   4.076
  1324G12c O00424472   6.447   0.311   3.960
  1324G12c C01C24473   6.468   0.438   3.903
  1324G12c H00A24474   6.462   0.444   3.795
  1324G12c C00P24475   6.478   0.558   3.982
  1324G12c C00O24476   0.018   0.678   3.923
  1324G12c C01D24477   0.054   0.690   3.788
  1324G12c H00S24478   0.059   0.605   3.721
  1324G12c C01E24479   0.069   0.815   3.717
  1324G12c O00824480   0.085   0.820   3.584
  1324G12c C01V24481   0.221   0.822   3.555
  1324G12c C01Z24482   0.305   0.698   3.573
  1324G12c H00R24483   0.410   0.716   3.554
  1324G12c H00Q24484   0.294   0.637   3.663
  1324G12c O00924485   0.266   0.618   3.465
  1324G12c H00P24486   0.173   0.624   3.449
  1324G12c C01W24487   0.275   0.930   3.505
  1324G12c H00O24488   0.211   1.016   3.492
  1324G12c C01X24489   0.420   0.959   3.473
  1324G12c H00N24490   0.472   0.871   3.437
  1324G12c H00M24491   0.432   1.035   3.396
  1324G12c C01Y24492   0.488   1.007   3.594
  1324G12c C02D24493   0.604   0.942   3.638
  1324G12c H01924494   0.642   0.854   3.588
  1324G12c C02C24495   0.673   0.994   3.752
  1324G12c H01A24496   0.763   0.944   3.784
  1324G12c C02B24497   0.623   1.107   3.819
  1324G12c O00E24498   0.705   1.166   3.913
  1324G12c H01B24499   0.677   1.251   3.943
  1324G12c C02F24500   0.509   1.172   3.780
  1324G12c O00F24501   0.462   1.285   3.856
  1324G12c C02G24502   0.342   1.356   3.818
  1324G12c H01724503   0.364   1.397   3.719
  1324G12c H01624504   0.310   1.446   3.870
  1324G12c H01524505   0.248   1.302   3.819
  1324G12c C02E24506   0.440   1.120   3.669
  1324G12c H01824507   0.350   1.164   3.629
  1324G12c C01F24508   0.043   0.933   3.788
  1324G12c C01G24509   0.004   1.058   3.733
  1324G12c H00L24510   6.511   1.074   3.627
  1324G12c C01H24511   6.495   1.165   3.824
  1324G12c H00B24512   6.427   1.241   3.790
  1324G12c C01I24513   0.003   1.148   3.963
  1324G12c C01U24514   0.066   0.922   3.925
  1324G12c C00S24515   6.391   0.614   4.349
  1324G12c C00K24516   6.424   0.841   4.337
  1324G12c C00N24517   0.037   0.802   3.990
  1324G12c C00024518   0.075   1.035   4.003
  1324G12c C01J24519   6.461   1.203   4.081
  1324G12c C01K24520   6.371   1.316   4.095
  1324G12c C01P24521   6.350   1.433   4.013
  1324G12c C01Q24522   6.437   1.452   3.898
  1324G12c H00G24523   0.023   1.444   3.904
  1324G12c C01R24524   6.374   1.476   3.783
  1324G12c H00F24525   6.269   1.478   3.756
  1324G12c C01S24526   6.445   1.495   3.649
  1324G12c H00E24527   6.411   1.409   3.591
  1324G12c H00D24528   6.405   1.587   3.608
  1324G12c O00524529   0.057   1.518   3.651
  1324G12c H00C24530   0.100   1.528   3.734
  1324G12c C01O24531   6.246   1.523   4.039
  1324G12c H00H24532   6.246   1.607   3.971
  1324G12c C01N24533   6.159   1.507   4.145
  1324G12c O00624534   6.058   1.604   4.160
  1324G12c C01T24535   5.980   1.621   4.284
  1324G12c H00K24536   5.920   1.712   4.273
  1324G12c H00J24537   6.042   1.623   4.374
  1324G12c H00I24538   5.911   1.538   4.302
  1324G12c C01M24539   6.179   1.399   4.230
  1324G12c C02024540   6.382   0.970   4.380
  1324G12c C02124541   6.305   0.993   4.495
  1324G12c C01L24542   6.290   1.306   4.211
  1324G12c O00724543   6.087   1.384   4.329
  1324G12c C02224544   6.213   1.095   4.510
  1324G12c C02324545   6.248   0.884   4.565
  1324G12c C00G24546   6.080   0.676   4.624
  1324G12c C00E24547   5.907   0.583   4.761
  1324G12c O00A24548   5.847   0.476   4.829
  1324G12c C02424549   5.936   0.416   4.925
  1324G12c H00V24550   5.884   0.343   4.986
  1324G12c H00U24551   5.971   0.487   5.000
  1324G12c H00T24552   6.017   0.358   4.881
  1334G12c C00D24553   3.141   5.302   4.783
  1334G12c O00B24554   3.078   5.412   4.839
  1334G12c C02524555   3.133   5.455   4.964
  1334G12c C02624556   3.036   5.440   5.076
  1334G12c H00Y24557   3.059   5.512   5.155
  1334G12c H00X24558   3.043   5.338   5.114
  1334G12c O00C24559   2.912   5.467   5.020
  1334G12c H00W24560   2.891   5.382   4.985
  1334G12c C02724561   3.264   5.508   4.975
  1334G12c O00D24562   3.347   5.522   4.869
  1334G12c H00Z24563   3.319   5.494   4.783
  1334G12c C02824564   3.312   5.551   5.103
  1334G12c C02924565   3.256   5.663   5.173
  1334G12c H01024566   3.167   5.712   5.139
  1334G12c C02T24567   3.300   5.708   5.296
  1334G12c H01O24568   3.246   5.783   5.353
  1334G12c C02S24569   3.414   5.649   5.358
  1334G12c O00J24570   3.452   5.693   5.479
  1334G12c H01P24571   3.533   5.644   5.489
  1334G12c C02R24572   3.499   5.562   5.283
  1334G12c O00I24573   3.623   5.522   5.334
  1334G12c C02Q24574   3.705   5.445   5.251
  1334G12c H01N24575   3.661   5.346   5.233
  1334G12c H01R24576   3.791   5.409   5.308
  1334G12c H01Q24577   3.731   5.501   5.162
  1334G12c C02A24578   3.441   5.513   5.156
  1334G12c H01124579   3.501   5.449   5.092
  1334G12c C00C24580   3.185   5.193   4.862
  1334G12c H01224581   3.162   5.183   4.967
  1334G12c C00B24582   3.273   5.100   4.810
  1334G12c C00A24583   3.339   4.999   4.889
  1334G12c C00924584   3.384   5.020   5.025
  1334G12c C00824585   3.363   5.120   5.128
  1334G12c H01324586   3.284   5.193   5.120
  1334G12c C00724587   3.456   5.145   5.233
  1334G12c H01424588   3.432   5.226   5.301
  1334G12c C00624589   3.584   5.085   5.222
  1334G12c C00524590   3.600   4.988   5.121
  1334G12c C00424591   3.731   4.942   5.088
  1334G12c C00324592   3.750   4.862   4.970
  1334G12c C00224593   3.886   4.824   4.937
  1334G12c C00124594   3.952   4.758   4.832
  1334G12c C00M24595   3.917   4.770   4.693
  1334G12c C00L24596   3.781   4.777   4.644
  1334G12c C00R24597   3.748   4.834   4.521
  1334G12c C00Q24598   3.820   4.877   4.398
  1334G12c C00V24599   3.733   4.926   4.298
  1334G12c C00U24600   3.605   4.977   4.321
  1334G12c C00T24601   3.549   4.958   4.445
  1334G12c C01624602   3.434   5.020   4.488
  1334G12c C01524603   3.375   5.111   4.397
  1334G12c C01024604   3.428   5.123   4.268
  1334G12c C01124605   3.371   5.217   4.179
  1334G12c H00524606   3.393   5.220   4.074
  1334G12c C01224607   3.255   5.289   4.218
  1334G12c C01724608   3.184   5.368   4.123
  1334G12c O00224609   3.047   5.343   4.113
  1334G12c H00424610   3.019   5.259   4.146
  1334G12c C01824611   3.249   5.459   4.043
  1334G12c O00124612   3.383   5.485   4.057
  1334G12c H00324613   3.405   5.444   4.139
  1334G12c C01924614   3.176   5.540   3.933
  1334G12c H00224615   3.070   5.526   3.954
  1334G12c H00124616   3.200   5.646   3.941
  1334G12c O00024617   3.212   5.489   3.807
  1334G12c C01A24618   3.142   5.551   3.703
  1334G12c C02K24619   3.028   5.481   3.651
  1334G12c O00G24620   2.998   5.370   3.715
  1334G12c C02M24621   2.885   5.290   3.677
  1334G12c H01G24622   2.890   5.207   3.748
  1334G12c H01F24623   2.881   5.250   3.576
  1334G12c H01E24624   2.792   5.346   3.687
  1334G12c C02J24625   2.957   5.536   3.546
  1334G12c H01H24626   2.861   5.498   3.513
  1334G12c C02I24627   3.003   5.647   3.477
  1334G12c C02N24628   2.929   5.697   3.367
  1334G12c H01M24629   2.902   5.628   3.288
  1334G12c C02O24630   2.909   5.830   3.366
  1334G12c H01L24631   2.935   5.890   3.452
  1334G12c C02P24632   2.846   5.903   3.259
  1334G12c H01K24633   2.920   5.963   3.206
  1334G12c H01J24634   2.786   5.840   3.193
  1334G12c O00H24635   2.749   5.989   3.312
  1334G12c H01I24636   2.752   5.986   3.407
  1334G12c C02H24637   3.126   5.705   3.518
  1334G12c H01C24638   3.163   5.784   3.454
  1334G12c C02L24639   3.191   5.662   3.637
  1334G12c H01D24640   3.291   5.700   3.653
  1334G12c C01324641   3.207   5.265   4.348
  1334G12c H00024642   3.117   5.321   4.369
  1334G12c C01424643   3.275   5.192   4.446
  1334G12c C00F24644   3.243   5.196   4.586
  1334G12c C00H24645   3.388   5.003   4.619
  1334G12c C00I24646   3.444   4.899   4.702
  1334G12c C00J24647   3.565   4.837   4.655
  1334G12c C00Z24648   3.535   5.051   4.221
  1334G12c C00Y24649   3.590   5.060   4.092
  1334G12c H00624650   3.528   5.093   4.011
  1334G12c C00X24651   3.722   5.016   4.064
  1334G12c O00324652   3.776   5.033   3.938
  1334G12c C01B24653   3.700   5.088   3.834
  1334G12c H00924654   3.770   5.092   3.751
  1334G12c H00824655   3.681   5.195   3.846
  1334G12c H00724656   3.612   5.027   3.812
  1334G12c C00W24657   3.789   4.944   4.167
  1334G12c O00424658   3.916   4.907   4.137
  1334G12c C01C24659   4.009   4.914   4.238
  1334G12c H00A24660   4.113   4.914   4.210
  1334G12c C00P24661   3.962   4.884   4.373
  1334G12c C00O24662   4.054   4.881   4.483
  1334G12c C01D24663   4.183   4.940   4.465
  1334G12c H00S24664   4.207   4.981   4.368
  1334G12c C01E24665   4.268   4.974   4.572
  1334G12c O00824666   4.385   5.047   4.552
  1334G12c C01V24667   4.420   5.121   4.442
  1334G12c C01Z24668   4.438   5.265   4.476
  1334G12c H00R24669   4.448   5.276   4.584
  1334G12c H00Q24670   4.518   5.317   4.423
  1334G12c O00924671   4.306   5.317   4.456
  1334G12c H00P24672   4.248   5.285   4.524
  1334G12c C01W24673   4.435   5.060   4.326
  1334G12c H00O24674   4.421   4.953   4.323
  1334G12c C01X24675   4.464   5.115   4.185
  1334G12c H00N24676   4.472   5.223   4.191
  1334G12c H00M24677   4.561   5.073   4.159
  1334G12c C01Y24678   4.358   5.081   4.086
  1334G12c C02D24679   4.376   4.998   3.974
  1334G12c H01924680   4.467   4.949   3.942
  1334G12c C02C24681   4.263   4.973   3.893
  1334G12c H01A24682   4.270   4.904   3.810
  1334G12c C02B24683   4.136   5.023   3.922
  1334G12c O00E24684   4.028   4.991   3.848
  1334G12c H01B24685   3.949   5.002   3.899
  1334G12c C02F24686   4.120   5.114   4.029
  1334G12c O00F24687   3.998   5.172   4.048
  1334G12c C02G24688   3.987   5.287   4.143
  1334G12c H01724689   4.068   5.359   4.127
  1334G12c H01624690   3.997   5.250   4.245
  1334G12c H01524691   3.890   5.334   4.128
  1334G12c C02E24692   4.232   5.141   4.110
  1334G12c H01824693   4.219   5.221   4.181
  1334G12c C01F24694   4.226   4.939   4.703
  1334G12c C01G24695   4.278   4.997   4.827
  1334G12c H00L24696   4.362   5.066   4.824
  1334G12c C01H24697   4.207   4.984   4.947
  1334G12c H00B24698   4.237   5.041   5.034
  1334G12c C01I24699   4.110   4.882   4.956
  1334G12c C01U24700   4.131   4.839   4.720
  1334G12c C00S24701   3.611   4.869   4.530
  1334G12c C00K24702   3.673   4.796   4.737
  1334G12c C00N24703   4.035   4.830   4.618
  1334G12c C00024704   4.088   4.797   4.846
  1334G12c C01J24705   3.989   4.871   5.033
  1334G12c C01K24706   3.970   4.949   5.151
  1334G12c C01P24707   4.076   4.985   5.247
  1334G12c C01Q24708   4.207   4.935   5.242
  1334G12c H00G24709   4.225   4.830   5.226
  1334G12c C01R24710   4.320   5.002   5.286
  1334G12c H00F24711   4.309   5.108   5.297
  1334G12c C01S24712   4.461   4.942   5.279
  1334G12c H00E24713   4.522   5.007   5.215
  1334G12c H00D24714   4.514   4.954   5.374
  1334G12c O00524715   4.472   4.810   5.230
  1334G12c H00C24716   4.437   4.801   5.143
  1334G12c C01O24717   4.042   5.091   5.343
  1334G12c H00H24718   4.121   5.141   5.399
  1334G12c C01N24719   3.911   5.137   5.344
  1334G12c O00624720   3.868   5.239   5.427
  1334G12c C01T24721   3.953   5.280   5.532
  1334G12c H00K24722   3.971   5.198   5.602
  1334G12c H00J24723   3.908   5.359   5.591
  1334G12c H00I24724   4.046   5.317   5.488
  1334G12c C01M24725   3.815   5.076   5.273
  1334G12c C02024726   3.645   4.828   4.879
  1334G12c C02124727   3.517   4.858   4.926
  1334G12c C01L24728   3.837   4.984   5.172
  1334G12c O00724729   3.690   5.116   5.302
  1334G12c C02224730   3.495   4.931   5.045
  1334G12c C02324731   3.413   4.895   4.836
  1334G12c C00G24732   3.293   5.096   4.672
  1334G12c C00E24733   3.175   5.303   4.644
  1334G12c O00A24734   3.151   5.422   4.576
  1334G12c C02424735   3.023   5.492   4.597
  1334G12c H00V24736   2.949   5.415   4.618
  1334G12c H00U24737   2.997   5.534   4.500
  1334G12c H00T24738   3.014   5.572   4.671
  1344G12c C00D24739   5.459   5.366   2.860
  1344G12c O00B24740   5.445   5.478   2.949
  1344G12c C02524741   5.440   5.444   3.084
  1344G12c C02624742   5.552   5.507   3.161
  1344G12c H00Y24743   5.527   5.517   3.266
  1344G12c H00X24744   5.578   5.604   3.119
  1344G12c O00C24745   5.668   5.424   3.160
  1344G12c H00W24746   5.733   5.450   3.223
  1344G12c C02724747   5.325   5.383   3.132
  1344G12c O00D24748   5.233   5.344   3.041
  1344G12c H00Z24749   5.157   5.305   3.082
  1344G12c C02824750   5.319   5.356   3.273
  1344G12c C02924751   5.210   5.395   3.352
  1344G12c H01024752   5.123   5.438   3.305
  1344G12c C02T24753   5.209   5.371   3.491
  1344G12c H01O24754   5.117   5.393   3.544
  1344G12c C02S24755   5.316   5.305   3.556
  1344G12c O00J24756   5.313   5.279   3.690
  1344G12c H01P24757   5.383   5.223   3.721
  1344G12c C02R24758   5.425   5.267   3.481
  1344G12c O00I24759   5.531   5.196   3.542
  1344G12c C02Q24760   5.642   5.159   3.469
  1344G12c H01N24761   5.716   5.122   3.540
  1344G12c H01R24762   5.691   5.242   3.418
  1344G12c H01Q24763   5.615   5.078   3.400
  1344G12c C02A24764   5.430   5.289   3.339
  1344G12c H01124765   5.520   5.261   3.288
  1344G12c C00C24766   5.525   5.250   2.895
  1344G12c H01224767   5.562   5.245   2.997
  1344G12c C00B24768   5.542   5.139   2.814
  1344G12c C00A24769   5.596   5.021   2.858
  1344G12c C00924770   5.692   4.991   2.965
  1344G12c C00824771   5.762   5.068   3.066
  1344G12c H01324772   5.730   5.162   3.107
  1344G12c C00724773   5.889   5.025   3.116
  1344G12c H01424774   5.938   5.089   3.188
  1344G12c C00624775   5.950   4.913   3.062
  1344G12c C00524776   5.873   4.839   2.966
  1344G12c C00424777   5.933   4.736   2.890
  1344G12c C00324778   5.867   4.684   2.774
  1344G12c C00224779   5.939   4.583   2.697
  1344G12c C00124780   5.920   4.521   2.571
  1344G12c C00M24781   5.874   4.595   2.460
  1344G12c C00L24782   5.752   4.663   2.464
  1344G12c C00R24783   5.698   4.747   2.358
  1344G12c C00Q24784   5.747   4.778   2.226
  1344G12c C00V24785   5.674   4.877   2.165
  1344G12c C00U24786   5.589   4.969   2.235
  1344G12c C00T24787   5.572   4.958   2.370
  1344G12c C01624788   5.524   5.060   2.452
  1344G12c C01524789   5.473   5.172   2.395
  1344G12c C01024790   5.473   5.182   2.255
  1344G12c C01124791   5.402   5.292   2.196
  1344G12c H00524792   5.379   5.288   2.091
  1344G12c C01224793   5.358   5.401   2.277
  1344G12c C01724794   5.298   5.519   2.210
  1344G12c O00224795   5.202   5.481   2.115
  1344G12c H00424796   5.210   5.389   2.095
  1344G12c C01824797   5.331   5.644   2.246
  1344G12c O00124798   5.408   5.682   2.351
  1344G12c H00324799   5.433   5.769   2.325
  1344G12c C01924800   5.257   5.768   2.197
  1344G12c H00224801   5.176   5.738   2.132
  1344G12c H00124802   5.200   5.810   2.280
  1344G12c O00024803   5.355   5.865   2.161
  1344G12c C01A24804   5.303   5.987   2.114
  1344G12c C02K24805   5.400   6.083   2.074
  1344G12c O00G24806   5.531   6.047   2.081
  1344G12c C02M24807   5.627   6.140   2.046
  1344G12c H01G24808   5.629   6.227   2.112
  1344G12c H01F24809   5.612   6.183   1.947
  1344G12c H01E24810   5.733   6.118   2.043
  1344G12c C02J24811   5.368   6.216   2.043
  1344G12c H01H24812   5.431   6.299   2.014
  1344G12c C02I24813   5.229   6.247   2.046
  1344G12c C02N24814   5.172   6.379   2.037
  1344G12c H01M24815   5.068   6.385   2.009
  1344G12c C02O24816   5.244   6.486   2.076
  1344G12c H01L24817   5.343   6.473   2.117
  1344G12c C02P24818   5.189   0.106   2.075
  1344G12c H01K24819   5.234   0.174   2.002
  1344G12c H01J24820   5.082   0.103   2.053
  1344G12c O00H24821   5.208   0.144   2.208
  1344G12c H01I24822   5.147   0.093   2.258
  1344G12c C02H24823   5.129   6.149   2.072
  1344G12c H01C24824   5.024   6.176   2.077
  1344G12c C02L24825   5.168   6.022   2.113
  1344G12c H01D24826   5.094   5.946   2.132
  1344G12c C01324827   5.379   5.391   2.414
  1344G12c H00024828   5.347   5.478   2.471
  1344G12c C01424829   5.423   5.272   2.479
  1344G12c C00F24830   5.447   5.265   2.619
  1344G12c C00H24831   5.527   5.037   2.592
  1344G12c C00I24832   5.574   4.916   2.642
  1344G12c C00J24833   5.606   4.811   2.554
  1344G12c C00Z24834   5.526   5.077   2.175
  1344G12c C00Y24835   5.531   5.088   2.032
  1344G12c H00624836   5.484   5.163   1.971
  1344G12c C00X24837   5.603   4.994   1.959
  1344G12c O00324838   5.630   5.017   1.827
  1344G12c C01B24839   5.557   4.926   1.741
  1344G12c H00924840   5.452   4.951   1.732
  1344G12c H00824841   5.576   4.824   1.776
  1344G12c H00724842   5.614   4.930   1.648
  1344G12c C00W24843   5.678   4.896   2.021
  1344G12c O00424844   5.765   4.816   1.941
  1344G12c C01C24845   5.872   4.768   2.012
  1344G12c H00A24846   5.966   4.795   1.965
  1344G12c C00P24847   5.860   4.726   2.149
  1344G12c C00O24848   5.964   4.648   2.219
  1344G12c C01D24849   6.091   4.641   2.155
  1344G12c H00S24850   6.115   4.688   2.061
  1344G12c C01E24851   6.204   4.574   2.210
  1344G12c O00824852   6.325   4.563   2.140
  1344G12c C01V24853   6.315   4.545   2.004
  1344G12c C01Z24854   6.421   4.617   1.925
  1344G12c H00R24855   6.405   4.635   1.819
  1344G12c H00Q24856   6.427   4.715   1.970
  1344G12c O00924857   0.005   4.535   1.938
  1344G12c H00P24858   6.502   4.455   1.894
  1344G12c C01W24859   6.221   4.466   1.948
  1344G12c H00O24860   6.156   4.416   2.019
  1344G12c C01X24861   6.201   4.447   1.803
  1344G12c H00N24862   6.291   4.469   1.745
  1344G12c H00M24863   6.196   4.340   1.785
  1344G12c C01Y24864   6.092   4.534   1.743
  1344G12c C02D24865   5.960   4.511   1.792
  1344G12c H01924866   5.946   4.433   1.865
  1344G12c C02C24867   5.854   4.580   1.732
  1344G12c H01A24868   5.752   4.561   1.765
  1344G12c C02B24869   5.871   4.668   1.623
  1344G12c O00E24870   5.765   4.724   1.567
  1344G12c H01B24871   5.788   4.774   1.490
  1344G12c C02F24872   6.001   4.698   1.578
  1344G12c O00F24873   6.008   4.784   1.471
  1344G12c C02G24874   6.138   4.787   1.404
  1344G12c H01724875   6.128   4.862   1.326
  1344G12c H01624876   6.161   4.692   1.356
  1344G12c H01524877   6.226   4.817   1.461
  1344G12c C02E24878   6.108   4.628   1.637
  1344G12c H01824879   6.214   4.641   1.625
  1344G12c C01F24880   6.189   4.523   2.339
  1344G12c C01G24881   6.303   4.499   2.425
  1344G12c H00L24882   6.404   4.514   2.390
  1344G12c C01H24883   6.277   4.495   2.566
  1344G12c H00B24884   6.365   4.530   2.617
  1344G12c C01I24885   6.141   4.489   2.621
  1344G12c C01U24886   6.065   4.517   2.404
  1344G12c C00S24887   5.604   4.833   2.418
  1344G12c C00K24888   5.703   4.717   2.593
  1344G12c C00N24889   5.958   4.588   2.347
  1344G12c C00024890   6.040   4.461   2.528
  1344G12c C01J24891   6.078   4.555   2.733
  1344G12c C01K24892   6.142   4.597   2.860
  1344G12c C01P24893   6.265   4.556   2.919
  1344G12c C01Q24894   6.341   4.450   2.864
  1344G12c H00G24895   6.297   4.351   2.864
  1344G12c C01R24896   6.469   4.473   2.831
  1344G12c H00F24897   6.505   4.575   2.839
  1344G12c C01S24898   0.037   4.364   2.782
  1344G12c H00E24899   0.138   4.404   2.765
  1344G12c H00D24900   0.044   4.288   2.859
  1344G12c O00524901   6.516   4.316   2.656
  1344G12c H00C24902   6.440   4.261   2.667
  1344G12c C01O24903   6.327   4.627   3.022
  1344G12c H00H24904   6.426   4.610   3.062
  1344G12c C01N24905   6.254   4.727   3.085
  1344G12c O00624906   6.322   4.802   3.178
  1344G12c C01T24907   6.261   4.820   3.302
  1344G12c H00K24908   6.197   4.739   3.337
  1344G12c H00J24909   6.207   4.914   3.299
  1344G12c H00I24910   6.338   4.835   3.378
  1344G12c C01M24911   6.126   4.764   3.038
  1344G12c C02024912   5.745   4.731   2.728
  1344G12c C02124913   5.672   4.806   2.829
  1344G12c C01L24914   6.066   4.699   2.925
  1344G12c O00724915   6.064   4.866   3.108
  1344G12c C02224916   5.736   4.862   2.941
  1344G12c C02324917   5.587   4.911   2.781
  1344G12c C00G24918   5.500   5.146   2.674
  1344G12c C00E24919   5.416   5.374   2.719
  1344G12c O00A24920   5.352   5.490   2.680
  1344G12c C02424921   5.223   5.511   2.730
  1344G12c H00V24922   5.153   5.554   2.659
  1344G12c H00U24923   5.223   5.591   2.803
  1344G12c H00T24924   5.175   5.429   2.783
  1354G12c C00D24925   2.102   2.094   3.754
  1354G12c O00B24926   2.184   2.114   3.858
  1354G12c C02524927   2.154   2.175   3.975
  1354G12c C02624928   2.096   2.075   4.085
  1354G12c H00Y24929   2.146   2.082   4.182
  1354G12c H00X24930   2.126   1.974   4.059
  1354G12c O00C24931   1.956   2.078   4.097
  1354G12c H00W24932   1.945   2.157   4.046
  1354G12c C02724933   2.172   2.308   3.984
  1354G12c O00D24934   2.228   2.367   3.870
  1354G12c H00Z24935   2.221   2.294   3.810
  1354G12c C02824936   2.128   2.390   4.095
  1354G12c C02924937   2.145   2.532   4.085
  1354G12c H01024938   2.194   2.574   3.998
  1354G12c C02T24939   2.117   2.628   4.186
  1354G12c H01O24940   2.133   2.735   4.177
  1354G12c C02S24941   2.065   2.580   4.306
  1354G12c O00J24942   2.058   2.654   4.420
  1354G12c H01P24943   2.021   2.599   4.487
  1354G12c C02R24944   2.039   2.444   4.323
  1354G12c O00I24945   2.000   2.405   4.454
  1354G12c C02Q24946   1.989   2.264   4.470
  1354G12c H01N24947   2.077   2.205   4.446
  1354G12c H01R24948   1.915   2.224   4.400
  1354G12c H01Q24949   1.956   2.241   4.572
  1354G12c C02A24950   2.065   2.351   4.217
  1354G12c H01124951   2.046   2.245   4.232
  1354G12c C00C24952   1.970   2.042   3.755
  1354G12c H01224953   1.932   2.026   3.855
  1354G12c C00B24954   1.890   2.024   3.638
  1354G12c C00A24955   1.754   1.987   3.631
  1354G12c C00924956   1.665   1.920   3.721
  1354G12c C00824957   1.681   1.864   3.851
  1354G12c H01324958   1.766   1.876   3.917
  1354G12c C00724959   1.588   1.755   3.872
  1354G12c H01424960   1.589   1.713   3.971
  1354G12c C00624961   1.487   1.710   3.783
  1354G12c C00524962   1.470   1.780   3.666
  1354G12c C00424963   1.391   1.732   3.558
  1354G12c C00324964   1.415   1.778   3.429
  1354G12c C00224965   1.340   1.708   3.322
  1354G12c C00124966   1.336   1.725   3.180
  1354G12c C00M24967   1.461   1.738   3.106
  1354G12c C00L24968   1.561   1.835   3.135
  1354G12c C00R24969   1.691   1.845   3.080
  1354G12c C00Q24970   1.763   1.760   2.988
  1354G12c C00V24971   1.898   1.800   2.964
  1354G12c C00U24972   1.967   1.884   3.056
  1354G12c C00T24973   1.905   1.930   3.168
  1354G12c C01624974   1.965   1.989   3.275
  1354G12c C01524975   2.100   2.008   3.269
  1354G12c C01024976   2.172   1.974   3.152
  1354G12c C01124977   2.315   1.977   3.158
  1354G12c H00524978   2.375   1.938   3.078
  1354G12c C01224979   2.384   2.017   3.277
  1354G12c C01724980   2.531   2.009   3.287
  1354G12c O00224981   2.583   1.896   3.233
  1354G12c H00424982   2.515   1.832   3.230
  1354G12c C01824983   2.611   2.101   3.350
  1354G12c O00124984   2.571   2.209   3.423
  1354G12c H00324985   2.651   2.245   3.457
  1354G12c C01924986   2.760   2.105   3.325
  1354G12c H00224987   2.809   2.011   3.349
  1354G12c H00124988   2.772   2.125   3.219
  1354G12c O00024989   2.805   2.220   3.402
  1354G12c C01A24990   2.915   2.286   3.351
  1354G12c C02K24991   3.034   2.228   3.302
  1354G12c O00G24992   3.043   2.092   3.301
  1354G12c C02M24993   3.087   2.043   3.179
  1354G12c H01G24994   3.033   2.096   3.100
  1354G12c H01F24995   3.067   1.937   3.171
  1354G12c H01E24996   3.195   2.055   3.173
  1354G12c C02J24997   3.135   2.311   3.246
  1354G12c H01H24998   3.216   2.264   3.192
  1354G12c C02I24999   3.132   2.451   3.256
  1354G12c C02N25000   3.227   2.541   3.209
  1354G12c H01M25001   3.328   2.514   3.237
  1354G12c C02O25002   3.197   2.652   3.141
  1354G12c H01L25003   3.094   2.675   3.118
  1354G12c C02P25004   3.299   2.752   3.095
  1354G12c H01K25005   3.311   2.824   3.176
  1354G12c H01J25006   3.394   2.709   3.062
  1354G12c O00H25007   3.247   2.814   2.979
  1354G12c H01I25008   3.193   2.887   3.008
  1354G12c C02H25009   3.015   2.502   3.315
  1354G12c H01C25010   3.005   2.609   3.320
  1354G12c C02L25011   2.913   2.420   3.365
  1354G12c H01D25012   2.828   2.470   3.409
  1354G12c C01325013   2.311   2.068   3.384
  1354G12c H00025014   2.362   2.083   3.478
  1354G12c C01425015   2.170   2.053   3.385
  1354G12c C00F25016   2.093   2.069   3.504
  1354G12c C00H25017   1.887   2.016   3.390
  1354G12c C00I25018   1.743   2.012   3.390
  1354G12c C00J25019   1.684   1.974   3.266
  1354G12c C00Z25020   2.103   1.914   3.046
  1354G12c C00Y25021   2.174   1.855   2.936
  1354G12c H00625022   2.276   1.890   2.924
  1354G12c C00X25023   2.110   1.770   2.841
  1354G12c O00325024   2.170   1.722   2.729
  1354G12c C01B25025   2.303   1.753   2.708
  1354G12c H00925026   2.316   1.686   2.623
  1354G12c H00825027   2.377   1.719   2.780
  1354G12c H00725028   2.304   1.860   2.683
  1354G12c C00W25029   1.972   1.734   2.859
  1354G12c O00425030   1.916   1.652   2.772
  1354G12c C01C25031   1.813   1.581   2.825
  1354G12c H00A25032   1.824   1.475   2.810
  1354G12c C00P25033   1.717   1.636   2.919
  1354G12c C00O25034   1.587   1.574   2.937
  1354G12c C01D25035   1.561   1.448   2.869
  1354G12c H00S25036   1.635   1.402   2.805
  1354G12c C01E25037   1.454   1.365   2.908
  1354G12c O00825038   1.446   1.240   2.857
  1354G12c C01V25039   1.483   1.216   2.725
  1354G12c C01Z25040   1.556   1.074   2.711
  1354G12c H00R25041   1.554   1.028   2.810
  1354G12c H00Q25042   1.498   1.011   2.643
  1354G12c O00925043   1.687   1.094   2.667
  1354G12c H00P25044   1.702   1.187   2.658
  1354G12c C01W25045   1.444   1.300   2.627
  1354G12c H00O25046   1.385   1.388   2.649
  1354G12c C01X25047   1.478   1.280   2.481
  1354G12c H00N25048   1.533   1.187   2.469
  1354G12c H00M25049   1.398   1.267   2.408
  1354G12c C01Y25050   1.586   1.370   2.417
  1354G12c C02D25051   1.674   1.315   2.323
  1354G12c H01925052   1.661   1.212   2.296
  1354G12c C02C25053   1.786   1.383   2.276
  1354G12c H01A25054   1.861   1.338   2.213
  1354G12c C02B25055   1.809   1.506   2.327
  1354G12c O00E25056   1.922   1.576   2.300
  1354G12c H01B25057   1.954   1.624   2.375
  1354G12c C02F25058   1.721   1.572   2.418
  1354G12c O00F25059   1.758   1.692   2.460
  1354G12c C02G25060   1.679   1.759   2.553
  1354G12c H01725061   1.638   1.699   2.633
  1354G12c H01625062   1.592   1.783   2.493
  1354G12c H01525063   1.733   1.846   2.593
  1354G12c C02E25064   1.604   1.502   2.470
  1354G12c H01825065   1.530   1.546   2.534
  1354G12c C01F25066   1.365   1.404   3.010
  1354G12c C01G25067   1.294   1.319   3.098
  1354G12c H00L25068   1.294   1.212   3.084
  1354G12c C01H25069   1.238   1.371   3.216
  1354G12c H00B25070   1.208   1.306   3.296
  1354G12c C01I25071   1.237   1.518   3.239
  1354G12c C01U25072   1.361   1.546   3.038
  1354G12c C00S25073   1.767   1.934   3.162
  1354G12c C00K25074   1.565   1.905   3.262
  1354G12c C00N25075   1.478   1.623   3.020
  1354G12c C00025076   1.276   1.604   3.135
  1354G12c C01J25077   1.265   1.591   3.360
  1354G12c C01K25078   1.229   1.553   3.494
  1354G12c C01P25079   1.125   1.465   3.540
  1354G12c C01Q25080   1.032   1.398   3.453
  1354G12c H00G25081   0.999   1.446   3.362
  1354G12c C01R25082   0.980   1.279   3.473
  1354G12c H00F25083   1.025   1.217   3.549
  1354G12c C01S25084   0.876   1.215   3.383
  1354G12c H00E25085   0.871   1.108   3.400
  1354G12c H00D25086   0.777   1.256   3.404
  1354G12c O00525087   0.913   1.229   3.250
  1354G12c H00C25088   0.930   1.144   3.213
  1354G12c C01O25089   1.120   1.430   3.677
  1354G12c H00H25090   1.048   1.357   3.711
  1354G12c C01N25091   1.211   1.483   3.766
  1354G12c O00625092   1.226   1.454   3.896
  1354G12c C01T25093   1.146   1.345   3.940
  1354G12c H00K25094   1.154   1.307   4.042
  1354G12c H00J25095   1.157   1.251   3.885
  1354G12c H00I25096   1.044   1.378   3.923
  1354G12c C01M25097   1.306   1.575   3.722
  1354G12c C02025098   1.508   1.884   3.396
  1354G12c C02125099   1.556   1.947   3.515
  1354G12c C01L25100   1.302   1.624   3.589
  1354G12c O00725101   1.402   1.610   3.818
  1354G12c C02225102   1.546   1.896   3.639
  1354G12c C02325103   1.683   2.010   3.515
  1354G12c C00G25104   1.952   2.043   3.508
  1354G12c C00E25105   2.154   2.114   3.626
  1354G12c O00A25106   2.250   2.214   3.628
  1354G12c C02425107   2.218   2.331   3.561
  1354G12c H00V25108   2.182   2.313   3.460
  1354G12c H00U25109   2.315   2.381   3.560
  1354G12c H00T25110   2.148   2.384   3.625
  1364G12c C00D25111   5.686   4.220   7.500
  1364G12c O00B25112   5.744   4.235   7.374
  1364G12c C02525113   5.850   4.151   7.336
  1364G12c C02625114   5.996   4.212   7.334
  1364G12c H00Y25115   5.986   4.317   7.309
  1364G12c H00X25116   6.047   4.168   7.248
  1364G12c O00C25117   6.067   4.199   7.452
  1364G12c H00W25118   6.148   4.247   7.445
  1364G12c C02725119   5.822   4.022   7.306
  1364G12c O00D25120   5.693   3.984   7.299
  1364G12c H00Z25121   5.638   4.060   7.303
  1364G12c C02825122   5.929   3.935   7.273
  1364G12c C02925123   5.920   3.863   7.155
  1364G12c H01025124   5.847   3.888   7.080
  1364G12c C02T25125   6.015   3.767   7.122
  1364G12c H01O25126   6.013   3.733   7.019
  1364G12c C02S25127   6.131   3.762   7.201
  1364G12c O00J25128   6.235   3.694   7.160
  1364G12c H01P25129   6.308   3.697   7.221
  1364G12c C02R25130   6.145   3.835   7.321
  1364G12c O00I25131   6.257   3.808   7.395
  1364G12c C02Q25132   6.279   3.887   7.503
  1364G12c H01N25133   6.382   3.872   7.535
  1364G12c H01R25134   6.219   3.864   7.591
  1364G12c H01Q25135   6.275   3.994   7.482
  1364G12c C02A25136   6.040   3.915   7.361
  1364G12c H01125137   6.042   3.972   7.453
  1364G12c C00C25138   5.769   4.195   7.610
  1364G12c H01225139   5.872   4.165   7.593
  1364G12c C00B25140   5.728   4.228   7.736
  1364G12c C00A25141   5.812   4.239   7.849
  1364G12c C00925142   5.921   4.148   7.888
  1364G12c C00825143   5.991   4.045   7.822
  1364G12c H01325144   5.974   4.040   7.715
  1364G12c C00725145   6.068   3.958   7.893
  1364G12c H01425146   6.126   3.890   7.831
  1364G12c C00625147   6.061   3.951   8.032
  1364G12c C00525148   5.988   4.054   8.094
  1364G12c C00425149   5.951   4.033   8.226
  1364G12c C00325150   5.846   4.114   8.271
  1364G12c C00225151   5.805   4.088   8.405
  1364G12c C00125152   5.701   4.137   8.488
  1364G12c C00M25153   5.565   4.164   8.458
  1364G12c C00L25154   5.540   4.207   8.332
  1364G12c C00R25155   5.408   4.220   8.269
  1364G12c C00Q25156   5.278   4.167   8.307
  1364G12c C00V25157   5.182   4.187   8.203
  1364G12c C00U25158   5.220   4.213   8.067
  1364G12c C00T25159   5.345   4.257   8.036
  1364G12c C01625160   5.398   4.271   7.911
  1364G12c C01525161   5.312   4.242   7.808
  1364G12c C01025162   5.174   4.229   7.827
  1364G12c C01125163   5.079   4.226   7.719
  1364G12c H00525164   4.971   4.216   7.718
  1364G12c C01225165   5.129   4.214   7.583
  1364G12c C01725166   5.044   4.184   7.470
  1364G12c O00225167   4.938   4.102   7.498
  1364G12c H00425168   4.911   4.064   7.415
  1364G12c C01825169   5.062   4.234   7.349
  1364G12c O00125170   5.155   4.332   7.317
  1364G12c H00325171   5.198   4.365   7.393
  1364G12c C01925172   4.981   4.189   7.223
  1364G12c H00225173   4.947   4.284   7.182
  1364G12c H00125174   5.045   4.138   7.151
  1364G12c O00025175   4.871   4.106   7.244
  1364G12c C01A25176   4.777   4.114   7.142
  1364G12c C02K25177   4.646   4.173   7.164
  1364G12c O00G25178   4.590   4.210   7.280
  1364G12c C02M25179   4.682   4.232   7.381
  1364G12c H01G25180   4.708   4.137   7.428
  1364G12c H01F25181   4.625   4.294   7.449
  1364G12c H01E25182   4.768   4.294   7.354
  1364G12c C02J25183   4.569   4.193   7.053
  1364G12c H01H25184   4.470   4.231   7.076
  1364G12c C02I25185   4.614   4.157   6.928
  1364G12c C02N25186   4.534   4.180   6.809
  1364G12c H01M25187   4.514   4.103   6.736
  1364G12c C02O25188   4.477   4.305   6.795
  1364G12c H01L25189   4.490   4.390   6.860
  1364G12c C02P25190   4.379   4.335   6.684
  1364G12c H01K25191   4.320   4.251   6.645
  1364G12c H01J25192   4.298   4.395   6.726
  1364G12c O00H25193   4.450   4.401   6.584
  1364G12c H01I25194   4.429   4.368   6.499
  1364G12c C02H25195   4.737   4.093   6.910
  1364G12c H01C25196   4.773   4.060   6.814
  1364G12c C02L25197   4.823   4.074   7.018
  1364G12c H01D25198   4.914   4.017   7.004
  1364G12c C01325199   5.268   4.216   7.570
  1364G12c H00025200   5.292   4.198   7.466
  1364G12c C01425201   5.360   4.231   7.677
  1364G12c C00F25202   5.500   4.253   7.654
  1364G12c C00H25203   5.537   4.282   7.886
  1364G12c C00I25204   5.621   4.300   7.995
  1364G12c C00J25205   5.568   4.297   8.122
  1364G12c C00Z25206   5.124   4.209   7.962
  1364G12c C00Y25207   4.991   4.198   7.999
  1364G12c H00625208   4.922   4.223   7.920
  1364G12c C00X25209   4.954   4.148   8.124
  1364G12c O00325210   4.821   4.121   8.152
  1364G12c C01B25211   4.738   4.076   8.049
  1364G12c H00925212   4.768   3.993   7.985
  1364G12c H00825213   4.706   4.154   7.980
  1364G12c H00725214   4.650   4.039   8.101
  1364G12c C00W25215   5.047   4.140   8.228
  1364G12c O00425216   5.007   4.104   8.354
  1364G12c C01C25217   5.105   4.061   8.444
  1364G12c H00A25218   5.063   3.986   8.509
  1364G12c C00P25219   5.243   4.090   8.428
  1364G12c C00O25220   5.339   4.046   8.528
  1364G12c C01D25221   5.295   3.953   8.632
  1364G12c H00S25222   5.189   3.938   8.651
  1364G12c C01E25223   5.387   3.875   8.713
  1364G12c O00825224   5.330   3.779   8.790
  1364G12c C01V25225   5.365   3.789   8.920
  1364G12c C01Z25226   5.399   3.655   8.982
  1364G12c H00R25227   5.429   3.582   8.907
  1364G12c H00Q25228   5.483   3.664   9.052
  1364G12c O00925229   5.284   3.611   9.046
  1364G12c H00P25230   5.232   3.686   9.071
  1364G12c C01W25231   5.381   3.909   8.982
  1364G12c H00O25232   5.351   4.003   8.938
  1364G12c C01X25233   5.445   3.932   9.117
  1364G12c H00N25234   5.382   3.992   9.182
  1364G12c H00M25235   5.468   3.841   9.173
  1364G12c C01Y25236   5.579   4.005   9.101
  1364G12c C02D25237   5.688   3.948   9.030
  1364G12c H01925238   5.681   3.844   9.001
  1364G12c C02C25239   5.810   4.021   9.012
  1364G12c H01A25240   5.894   3.983   8.956
  1364G12c C02B25241   5.818   4.147   9.070
  1364G12c O00E25242   5.930   4.220   9.063
  1364G12c H01B25243   6.004   4.168   9.036
  1364G12c C02F25244   5.712   4.209   9.139
  1364G12c O00F25245   5.731   4.337   9.189
  1364G12c C02G25246   5.680   4.365   9.320
  1364G12c H01725247   5.732   4.311   9.399
  1364G12c H01625248   5.573   4.352   9.330
  1364G12c H01525249   5.708   4.470   9.327
  1364G12c C02E25250   5.590   4.138   9.145
  1364G12c H01825251   5.503   4.194   9.177
  1364G12c C01F25252   5.527   3.887   8.682
  1364G12c C01G25253   5.630   3.789   8.688
  1364G12c H00L25254   5.610   3.691   8.730
  1364G12c C01H25255   5.761   3.818   8.642
  1364G12c H00B25256   5.824   3.731   8.653
  1364G12c C01I25257   5.798   3.945   8.595
  1364G12c C01U25258   5.570   4.017   8.629
  1364G12c C00S25259   5.431   4.274   8.141
  1364G12c C00K25260   5.639   4.246   8.232
  1364G12c C00N25261   5.473   4.079   8.538
  1364G12c C00025262   5.703   4.057   8.606
  1364G12c C01J25263   5.877   3.987   8.477
  1364G12c C01K25264   5.987   3.906   8.431
  1364G12c C01P25265   6.077   3.819   8.507
  1364G12c C01Q25266   6.066   3.804   8.650
  1364G12c H00G25267   6.031   3.885   8.712
  1364G12c C01R25268   6.095   3.685   8.709
  1364G12c H00F25269   6.114   3.598   8.648
  1364G12c C01S25270   6.086   3.651   8.858
  1364G12c H00E25271   6.098   3.737   8.924
  1364G12c H00D25272   5.987   3.619   8.890
  1364G12c O00525273   6.178   3.555   8.905
  1364G12c H00C25274   6.161   3.478   8.852
  1364G12c C01O25275   6.182   3.751   8.443
  1364G12c H00H25276   6.245   3.678   8.492
  1364G12c C01N25277   6.200   3.762   8.304
  1364G12c O00625278   6.303   3.700   8.229
  1364G12c C01T25279   6.385   3.614   8.303
  1364G12c H00K25280   6.459   3.570   8.236
  1364G12c H00J25281   6.326   3.537   8.353
  1364G12c H00I25282   6.447   3.670   8.372
  1364G12c C01M25283   6.112   3.848   8.234
  1364G12c C02025284   5.781   4.216   8.201
  1364G12c C02125285   5.841   4.250   8.083
  1364G12c C01L25286   6.014   3.925   8.295
  1364G12c O00725287   6.135   3.856   8.099
  1364G12c C02225288   5.933   4.164   8.030
  1364G12c C02325289   5.759   4.287   7.970
  1364G12c C00G25290   5.589   4.260   7.760
  1364G12c C00E25291   5.555   4.257   7.521
  1364G12c O00A25292   5.480   4.297   7.410
  1364G12c C02425293   5.472   4.436   7.382
  1364G12c H00V25294   5.409   4.502   7.440
  1364G12c H00U25295   5.418   4.440   7.288
  1364G12c H00T25296   5.570   4.483   7.373
  1374G12c C00D25297   0.258   2.485   5.210
  1374G12c O00B25298   0.365   2.439   5.286
  1374G12c C02525299   0.471   2.524   5.311
  1374G12c C02625300   0.444   2.595   5.444
  1374G12c H00Y25301   0.338   2.615   5.463
  1374G12c H00X25302   0.489   2.694   5.448
  1374G12c O00C25303   0.479   2.517   5.557
  1374G12c H00W25304   0.511   2.435   5.523
  1374G12c C02725305   0.572   2.548   5.221
  1374G12c O00D25306   0.578   2.472   5.102
  1374G12c H00Z25307   0.526   2.393   5.102
  1374G12c C02825308   0.682   2.636   5.255
  1374G12c C02925309   0.723   2.735   5.162
  1374G12c H01025310   0.680   2.733   5.063
  1374G12c C02T25311   0.810   2.840   5.212
  1374G12c H01O25312   0.841   2.906   5.132
  1374G12c C02S25313   0.852   2.853   5.341
  1374G12c O00J25314   0.923   2.956   5.388
  1374G12c H01P25315   0.944   2.930   5.476
  1374G12c C02R25316   0.799   2.759   5.432
  1374G12c O00I25317   0.843   2.783   5.562
  1374G12c C02Q25318   0.784   2.700   5.657
  1374G12c H01N25319   0.675   2.698   5.650
  1374G12c H01R25320   0.811   2.742   5.754
  1374G12c H01Q25321   0.829   2.601   5.657
  1374G12c C02A25322   0.731   2.643   5.388
  1374G12c H01125323   0.720   2.558   5.453
  1374G12c C00C25324   0.254   2.615   5.165
  1374G12c H01225325   0.332   2.689   5.180
  1374G12c C00B25326   0.161   2.665   5.067
  1374G12c C00A25327   0.160   2.795   5.007
  1374G12c C00925328   0.196   2.921   5.065
  1374G12c C00825329   0.214   2.958   5.199
  1374G12c H01325330   0.232   2.886   5.277
  1374G12c C00725331   0.175   3.090   5.236
  1374G12c H01425332   0.183   3.103   5.343
  1374G12c C00625333   0.114   3.190   5.154
  1374G12c C00525334   0.084   3.139   5.021
  1374G12c C00425335   6.517   3.206   4.937
  1374G12c C00325336   6.456   3.137   4.835
  1374G12c C00225337   6.353   3.210   4.761
  1374G12c C00125338   6.249   3.170   4.669
  1374G12c C00M25339   6.178   3.051   4.677
  1374G12c C00L25340   6.239   2.931   4.711
  1374G12c C00R25341   6.169   2.807   4.737
  1374G12c C00Q25342   6.028   2.776   4.765
  1374G12c C00V25343   6.019   2.646   4.820
  1374G12c C00U25344   6.121   2.566   4.871
  1374G12c C00T25345   6.254   2.600   4.854
  1374G12c C01625346   6.365   2.551   4.924
  1374G12c C01525347   6.338   2.441   5.011
  1374G12c C01025348   6.203   2.395   5.018
  1374G12c C01125349   6.177   2.282   5.097
  1374G12c H00525350   6.080   2.240   5.119
  1374G12c C01225351   6.280   2.203   5.156
  1374G12c C01725352   6.232   2.076   5.219
  1374G12c O00225353   6.144   2.000   5.155
  1374G12c H00425354   6.099   1.939   5.211
  1374G12c C01825355   6.256   2.054   5.350
  1374G12c O00125356   6.336   2.140   5.418
  1374G12c H00325357   6.326   2.222   5.372
  1374G12c C01925358   6.202   1.935   5.424
  1374G12c H00225359   6.225   1.840   5.375
  1374G12c H00125360   6.228   1.938   5.529
  1374G12c O00025361   6.064   1.942   5.416
  1374G12c C01A25362   5.997   1.829   5.444
  1374G12c C02K25363   5.973   1.732   5.342
  1374G12c O00G25364   6.030   1.743   5.224
  1374G12c C02M25365   6.029   1.630   5.134
  1374G12c H01G25366   6.091   1.653   5.047
  1374G12c H01F25367   5.930   1.594   5.110
  1374G12c H01E25368   6.073   1.544   5.184
  1374G12c C02J25369   5.890   1.624   5.374
  1374G12c H01H25370   5.862   1.561   5.291
  1374G12c C02I25371   5.824   1.611   5.502
  1374G12c C02N25372   5.734   1.502   5.529
  1374G12c H01M25373   5.724   1.459   5.628
  1374G12c C02O25374   5.659   1.450   5.431
  1374G12c H01L25375   5.673   1.495   5.334
  1374G12c C02P25376   5.564   1.334   5.421
  1374G12c H01K25377   5.608   1.238   5.397
  1374G12c H01J25378   5.527   1.309   5.520
  1374G12c O00H25379   5.453   1.363   5.337
  1374G12c H01I25380   5.488   1.367   5.249
  1374G12c C02H25381   5.860   1.703   5.602
  1374G12c H01C25382   5.819   1.698   5.702
  1374G12c C02L25383   5.942   1.811   5.572
  1374G12c H01D25384   5.944   1.883   5.653
  1374G12c C01325385   6.410   2.262   5.157
  1374G12c H00025386   6.482   2.199   5.207
  1374G12c C01425387   6.440   2.381   5.086
  1374G12c C00F25388   0.040   2.453   5.090
  1374G12c C00H25389   6.483   2.620   4.929
  1374G12c C00I25390   6.501   2.736   4.853
  1374G12c C00J25391   6.390   2.775   4.771
  1374G12c C00Z25392   6.096   2.455   4.950
  1374G12c C00Y25393   5.967   2.403   4.949
  1374G12c H00625394   5.951   2.316   5.011
  1374G12c C00X25395   5.856   2.469   4.890
  1374G12c O00325396   5.728   2.421   4.871
  1374G12c C01B25397   5.718   2.285   4.911
  1374G12c H00925398   5.619   2.256   4.875
  1374G12c H00825399   5.715   2.270   5.019
  1374G12c H00725400   5.790   2.223   4.857
  1374G12c C00W25401   5.884   2.588   4.825
  1374G12c O00425402   5.779   2.653   4.780
  1374G12c C01C25403   5.786   2.789   4.758
  1374G12c H00A25404   5.700   2.827   4.705
  1374G12c C00P25405   5.911   2.860   4.750
  1374G12c C00O25406   5.921   3.003   4.742
  1374G12c C01D25407   5.808   3.078   4.780
  1374G12c H00S25408   5.716   3.033   4.813
  1374G12c C01E25409   5.810   3.223   4.790
  1374G12c O00825410   5.704   3.291   4.845
  1374G12c C01V25411   5.578   3.267   4.799
  1374G12c C01Z25412   5.494   3.159   4.868
  1374G12c H00R25413   5.563   3.113   4.939
  1374G12c H00Q25414   5.410   3.214   4.908
  1374G12c O00925415   5.446   3.058   4.783
  1374G12c H00P25416   5.367   3.021   4.820
  1374G12c C01W25417   5.539   3.338   4.694
  1374G12c H00O25418   5.611   3.411   4.659
  1374G12c C01X25419   5.407   3.333   4.621
  1374G12c H00N25420   5.408   3.312   4.514
  1374G12c H00M25421   5.346   3.250   4.655
  1374G12c C01Y25422   5.327   3.458   4.668
  1374G12c C02D25423   5.349   3.575   4.594
  1374G12c H01925424   5.403   3.566   4.501
  1374G12c C02C25425   5.285   3.692   4.641
  1374G12c H01A25426   5.295   3.783   4.584
  1374G12c C02B25427   5.211   3.687   4.762
  1374G12c O00E25428   5.149   3.796   4.808
  1374G12c H01B25429   5.100   3.764   4.883
  1374G12c C02F25430   5.192   3.564   4.831
  1374G12c O00F25431   5.118   3.570   4.947
  1374G12c C02G25432   5.063   3.449   5.002
  1374G12c H01725433   5.143   3.397   5.053
  1374G12c H01625434   5.026   3.382   4.924
  1374G12c H01525435   4.981   3.479   5.068
  1374G12c C02E25436   5.249   3.445   4.780
  1374G12c H01825437   5.243   3.354   4.837
  1374G12c C01F25438   5.931   3.291   4.768
  1374G12c C01G25439   5.966   3.419   4.818
  1374G12c H00L25440   5.893   3.472   4.877
  1374G12c C01H25441   6.106   3.462   4.808
  1374G12c H00B25442   6.127   3.546   4.873
  1374G12c C01I25443   6.200   3.378   4.743
  1374G12c C01U25444   6.032   3.227   4.692
  1374G12c C00S25445   6.271   2.713   4.771
  1374G12c C00K25446   6.372   2.913   4.743
  1374G12c C00N25447   6.037   3.081   4.704
  1374G12c C00025448   6.153   3.277   4.658
  1374G12c C01J25449   6.333   3.344   4.794
  1374G12c C01K25450   6.415   3.425   4.882
  1374G12c C01P25451   6.402   3.565   4.909
  1374G12c C01Q25452   6.348   3.656   4.810
  1374G12c H00G25453   6.277   3.730   4.844
  1374G12c C01R25454   6.391   3.636   4.682
  1374G12c H00F25455   6.451   3.550   4.661
  1374G12c C01S25456   6.346   3.725   4.568
  1374G12c H00E25457   6.338   3.822   4.618
  1374G12c H00D25458   6.423   3.730   4.491
  1374G12c O00525459   6.229   3.678   4.513
  1374G12c H00C25460   6.163   3.740   4.538
  1374G12c C01O25461   6.463   3.619   5.027
  1374G12c H00H25462   6.451   3.724   5.045
  1374G12c C01N25463   0.015   3.534   5.114
  1374G12c O00625464   0.072   3.591   5.230
  1374G12c C01T25465   0.027   3.712   5.270
  1374G12c H00K25466   6.444   3.723   5.301
  1374G12c H00J25467   0.047   3.795   5.202
  1374G12c H00I25468   0.082   3.720   5.363
  1374G12c C01M25469   0.025   3.393   5.087
  1374G12c C02025470   6.477   2.999   4.806
  1374G12c C02125471   0.076   2.950   4.860
  1374G12c C01L25472   6.493   3.338   4.965
  1374G12c O00725473   0.074   3.311   5.190
  1374G12c C02225474   0.133   3.013   4.971
  1374G12c C02325475   0.096   2.809   4.882
  1374G12c C00G25476   0.058   2.577   5.021
  1374G12c C00E25477   0.146   2.404   5.180
  1374G12c O00A25478   0.152   2.274   5.222
  1374G12c C02425479   0.141   2.258   5.364
  1374G12c H00V25480   0.230   2.277   5.424
  1374G12c H00U25481   0.106   2.156   5.381
  1374G12c H00T25482   0.051   2.310   5.397
  1384G12c C00D25483   0.244   5.175   4.528
  1384G12c O00B25484   0.134   5.252   4.520
  1384G12c C02525485   0.134   5.376   4.590
  1384G12c C02625486   0.008   5.402   4.659
  1384G12c H00Y25487   0.005   5.507   4.686
  1384G12c H00X25488   6.510   5.336   4.744
  1384G12c O00C25489   6.433   5.370   4.558
  1384G12c H00W25490   6.441   5.277   4.542
  1384G12c C02725491   0.241   5.462   4.588
  1384G12c O00D25492   0.357   5.435   4.520
  1384G12c H00Z25493   0.352   5.347   4.487
  1384G12c C02825494   0.241   5.590   4.655
  1384G12c C02925495   0.222   5.606   4.795
  1384G12c H01025496   0.189   5.527   4.861
  1384G12c C02T25497   0.228   5.729   4.855
  1384G12c H01O25498   0.220   5.735   4.962
  1384G12c C02S25499   0.262   5.846   4.780
  1384G12c O00J25500   0.294   5.963   4.849
  1384G12c H01P25501   0.305   6.035   4.788
  1384G12c C02R25502   0.279   5.837   4.642
  1384G12c O00I25503   0.309   5.953   4.580
  1384G12c C02Q25504   0.355   5.930   4.441
  1384G12c H01N25505   0.344   6.025   4.389
  1384G12c H01R25506   0.294   5.871   4.372
  1384G12c H01Q25507   0.459   5.897   4.436
  1384G12c C02A25508   0.273   5.705   4.581
  1384G12c H01125509   0.273   5.682   4.475
  1384G12c C00C25510   0.308   5.158   4.409
  1384G12c H01225511   0.247   5.196   4.328
  1384G12c C00B25512   0.436   5.104   4.396
  1384G12c C00A25513   0.509   5.081   4.275
  1384G12c C00925514   0.465   5.076   4.143
  1384G12c C00825515   0.338   5.098   4.083
  1384G12c H01325516   0.263   5.166   4.120
  1384G12c C00725517   0.305   5.021   3.968
  1384G12c H01425518   0.205   5.027   3.927
  1384G12c C00625519   0.395   4.924   3.916
  1384G12c C00525520   0.517   4.909   3.980
  1384G12c C00425521   0.591   4.789   3.966
  1384G12c C00325522   0.703   4.764   4.044
  1384G12c C00225523   0.763   4.637   4.014
  1384G12c C00125524   0.876   4.576   4.074
  1384G12c C00M25525   0.889   4.565   4.218
  1384G12c C00L25526   0.881   4.677   4.306
  1384G12c C00R25527   0.874   4.664   4.448
  1384G12c C00Q25528   0.892   4.553   4.544
  1384G12c C00V25529   0.861   4.593   4.674
  1384G12c C00U25530   0.786   4.709   4.710
  1384G12c C00T25531   0.754   4.803   4.616
  1384G12c C01625532   0.659   4.904   4.627
  1384G12c C01525533   0.600   4.922   4.745
  1384G12c C01025534   0.649   4.848   4.855
  1384G12c C01125535   0.610   4.885   4.992
  1384G12c H00525536   0.662   4.847   5.079
  1384G12c C01225537   0.498   4.974   5.006
  1384G12c C01725538   0.446   5.016   5.139
  1384G12c O00225539   0.410   5.146   5.154
  1384G12c H00425540   0.454   5.182   5.079
  1384G12c C01825541   0.431   4.933   5.242
  1384G12c O00125542   0.472   4.806   5.243
  1384G12c H00325543   0.428   4.779   5.322
  1384G12c C01925544   0.350   4.964   5.365
  1384G12c H00225545   0.412   5.009   5.443
  1384G12c H00125546   0.266   5.030   5.340
  1384G12c O00025547   0.298   4.841   5.413
  1384G12c C01A25548   0.214   4.845   5.521
  1384G12c C02K25549   0.118   4.746   5.533
  1384G12c O00G25550   0.113   4.649   5.432
  1384G12c C02M25551   6.513   4.569   5.424
  1384G12c H01G25552   6.508   4.508   5.334
  1384G12c H01F25553   6.423   4.629   5.421
  1384G12c H01E25554   6.514   4.497   5.506
  1384G12c C02J25555   0.024   4.752   5.636
  1384G12c H01H25556   6.460   4.685   5.640
  1384G12c C02I25557   0.036   4.847   5.740
  1384G12c C02N25558   6.456   4.871   5.840
  1384G12c H01M25559   6.480   4.932   5.926
  1384G12c C02O25560   6.329   4.821   5.831
  1384G12c H01L25561   6.286   4.776   5.742
  1384G12c C02P25562   6.238   4.861   5.949
  1384G12c H01K25563   6.247   4.969   5.966
  1384G12c H01J25564   6.139   4.825   5.922
  1384G12c O00H25565   6.284   4.791   6.069
  1384G12c H01I25566   6.217   4.728   6.091
  1384G12c C02H25567   0.152   4.928   5.737
  1384G12c H01C25568   0.180   5.005   5.807
  1384G12c C02L25569   0.243   4.926   5.633
  1384G12c H01D25570   0.327   4.992   5.649
  1384G12c C01325571   0.448   5.034   4.887
  1384G12c H00025572   0.373   5.110   4.902
  1384G12c C01425573   0.491   5.008   4.754
  1384G12c C00F25574   0.434   5.067   4.639
  1384G12c C00H25575   0.618   4.979   4.515
  1384G12c C00I25576   0.685   4.963   4.390
  1384G12c C00J25577   0.784   4.867   4.384
  1384G12c C00Z25578   0.741   4.741   4.840
  1384G12c C00Y25579   0.778   4.653   4.946
  1384G12c H00625580   0.754   4.676   5.048
  1384G12c C00X25581   0.858   4.542   4.922
  1384G12c O00325582   0.902   4.468   5.031
  1384G12c C01B25583   1.019   4.511   5.095
  1384G12c H00925584   1.037   4.437   5.173
  1384G12c H00825585   1.008   4.609   5.140
  1384G12c H00725586   1.099   4.505   5.021
  1384G12c C00W25587   0.891   4.505   4.785
  1384G12c O00425588   0.958   4.381   4.772
  1384G12c C01C25589   0.971   4.336   4.637
  1384G12c H00A25590   1.038   4.253   4.619
  1384G12c C00P25591   0.930   4.421   4.524
  1384G12c C00O25592   0.911   4.357   4.392
  1384G12c C01D25593   0.878   4.219   4.389
  1384G12c H00S25594   0.857   4.163   4.479
  1384G12c C01E25595   0.826   4.155   4.272
  1384G12c O00825596   0.766   4.029   4.270
  1384G12c C01V25597   0.672   4.009   4.365
  1384G12c C01Z25598   0.703   3.904   4.470
  1384G12c H00R25599   0.643   3.813   4.471
  1384G12c H00Q25600   0.799   3.857   4.452
  1384G12c O00925601   0.700   3.958   4.599
  1384G12c H00P25602   0.631   4.023   4.601
  1384G12c C01W25603   0.559   4.086   4.361
  1384G12c H00O25604   0.549   4.163   4.286
  1384G12c C01X25605   0.435   4.077   4.453
  1384G12c H00N25606   0.351   4.114   4.394
  1384G12c H00M25607   0.416   3.971   4.474
  1384G12c C01Y25608   0.458   4.160   4.577
  1384G12c C02D25609   0.462   4.101   4.709
  1384G12c H01925610   0.444   3.996   4.728
  1384G12c C02C25611   0.501   4.182   4.813
  1384G12c H01A25612   0.501   4.142   4.914
  1384G12c C02B25613   0.505   4.322   4.795
  1384G12c O00E25614   0.530   4.404   4.897
  1384G12c H01B25615   0.527   4.493   4.865
  1384G12c C02F25616   0.501   4.384   4.669
  1384G12c O00F25617   0.503   4.525   4.663
  1384G12c C02G25618   0.477   4.593   4.535
  1384G12c H01725619   0.461   4.700   4.546
  1384G12c H01625620   0.381   4.557   4.499
  1384G12c H01525621   0.554   4.569   4.461
  1384G12c C02E25622   0.473   4.296   4.562
  1384G12c H01825623   0.459   4.334   4.462
  1384G12c C01F25624   0.826   4.228   4.153
  1384G12c C01G25625   0.756   4.189   4.036
  1384G12c H00L25626   0.696   4.100   4.041
  1384G12c C01H25627   0.719   4.282   3.935
  1384G12c H00B25628   0.639   4.264   3.864
  1384G12c C01I25629   0.769   4.413   3.944
  1384G12c C01U25630   0.891   4.351   4.143
  1384G12c C00S25631   0.816   4.783   4.491
  1384G12c C00K25632   0.821   4.799   4.266
  1384G12c C00N25633   0.904   4.422   4.262
  1384G12c C00025634   0.878   4.439   4.033
  1384G12c C01J25635   0.711   4.544   3.924
  1384G12c C01K25636   0.604   4.573   3.837
  1384G12c C01P25637   0.571   4.505   3.711
  1384G12c C01Q25638   0.649   4.394   3.653
  1384G12c H00G25639   0.757   4.401   3.656
  1384G12c C01R25640   0.580   4.288   3.609
  1384G12c H00F25641   0.472   4.288   3.623
  1384G12c C01S25642   0.634   4.167   3.540
  1384G12c H00E25643   0.742   4.179   3.542
  1384G12c H00D25644   0.602   4.082   3.600
  1384G12c O00525645   0.576   4.155   3.408
  1384G12c H00C25646   0.602   4.231   3.357
  1384G12c C01O25647   0.467   4.552   3.633
  1384G12c H00H25648   0.441   4.500   3.542
  1384G12c C01N25649   0.386   4.659   3.680
  1384G12c O00625650   0.271   4.701   3.613
  1384G12c C01T25651   0.220   4.614   3.524
  1384G12c H00K25652   0.283   4.621   3.435
  1384G12c H00J25653   0.119   4.647   3.500
  1384G12c H00I25654   0.212   4.516   3.572
  1384G12c C01M25655   0.432   4.734   3.788
  1384G12c C02025656   0.744   4.846   4.152
  1384G12c C02125657   0.675   4.968   4.154
  1384G12c C01L25658   0.543   4.696   3.866
  1384G12c O00725659   0.364   4.845   3.811
  1384G12c C02225660   0.562   4.993   4.080
  1384G12c C02325661   0.635   5.025   4.279
  1384G12c C00G25662   0.502   5.057   4.516
  1384G12c C00E25663   0.301   5.125   4.646
  1384G12c O00A25664   0.223   5.136   4.753
  1384G12c C02425665   0.144   5.020   4.783
  1384G12c H00V25666   0.054   5.025   4.722
  1384G12c H00U25667   0.102   5.030   4.883
  1384G12c H00T25668   0.205   4.929   4.784
  1394G12c C00D25669   0.804   5.346   4.383
  1394G12c O00B25670   0.717   5.457   4.392
  1394G12c C02525671   0.692   5.533   4.280
  1394G12c C02625672   0.799   5.640   4.251
  1394G12c H00Y25673   0.786   5.677   4.150
  1394G12c H00X25674   0.901   5.607   4.272
  1394G12c O00C25675   0.776   5.749   4.337
  1394G12c H00W25676   0.759   5.717   4.424
  1394G12c C02725677   0.591   5.499   4.196
  1394G12c O00D25678   0.522   5.391   4.245
  1394G12c H00Z25679   0.564   5.378   4.329
  1394G12c C02825680   0.553   5.555   4.064
  1394G12c C02925681   0.571   5.687   4.032
  1394G12c H01025682   0.618   5.761   4.096
  1394G12c C02T25683   0.535   5.744   3.908
  1394G12c H01O25684   0.546   5.850   3.889
  1394G12c C02S25685   0.470   5.660   3.811
  1394G12c O00J25686   0.420   5.702   3.692
  1394G12c H01P25687   0.401   5.623   3.643
  1394G12c C02R25688   0.468   5.525   3.836
  1394G12c O00I25689   0.416   5.441   3.737
  1394G12c C02Q25690   0.425   5.295   3.759
  1394G12c H01N25691   0.512   5.250   3.806
  1394G12c H01R25692   0.410   5.244   3.663
  1394G12c H01Q25693   0.333   5.259   3.806
  1394G12c C02A25694   0.493   5.474   3.972
  1394G12c H01125695   0.475   5.371   3.997
  1394G12c C00C25696   0.841   5.288   4.261
  1394G12c H01225697   0.794   5.316   4.168
  1394G12c C00B25698   0.937   5.183   4.248
  1394G12c C00A25699   0.986   5.123   4.132
  1394G12c C00925700   0.933   5.124   3.994
  1394G12c C00825701   0.810   5.156   3.928
  1394G12c H01325702   0.741   5.231   3.965
  1394G12c C00725703   0.766   5.079   3.817
  1394G12c H01425704   0.668   5.104   3.778
  1394G12c C00625705   0.845   4.968   3.765
  1394G12c C00525706   0.970   4.945   3.831
  1394G12c C00425707   1.041   4.823   3.817
  1394G12c C00325708   1.142   4.776   3.903
  1394G12c C00225709   1.195   4.639   3.884
  1394G12c C00125710   1.300   4.563   3.953
  1394G12c C00M25711   1.308   4.557   4.101
  1394G12c C00L25712   1.308   4.677   4.179
  1394G12c C00R25713   1.301   4.681   4.322
  1394G12c C00Q25714   1.295   4.574   4.419
  1394G12c C00V25715   1.271   4.624   4.550
  1394G12c C00U25716   1.222   4.749   4.576
  1394G12c C00T25717   1.204   4.840   4.475
  1394G12c C01625718   1.123   4.953   4.483
  1394G12c C01525719   1.071   4.980   4.606
  1394G12c C01025720   1.106   4.904   4.717
  1394G12c C01125721   1.061   4.949   4.839
  1394G12c H00525722   1.105   4.913   4.931
  1394G12c C01225723   0.960   5.043   4.856
  1394G12c C01725724   0.912   5.076   4.990
  1394G12c O00225725   0.930   4.985   5.088
  1394G12c H00425726   0.918   5.035   5.167
  1394G12c C01825727   0.866   5.198   5.014
  1394G12c O00125728   0.848   5.307   4.936
  1394G12c H00325729   0.895   5.271   4.863
  1394G12c C01925730   0.831   5.244   5.158
  1394G12c H00225731   0.865   5.347   5.172
  1394G12c H00125732   0.723   5.241   5.172
  1394G12c O00025733   0.898   5.171   5.259
  1394G12c C01A25734   0.818   5.151   5.367
  1394G12c C02K25735   0.794   5.018   5.411
  1394G12c O00G25736   0.854   4.913   5.349
  1394G12c C02M25737   0.807   4.779   5.366
  1394G12c H01G25738   0.862   4.715   5.297
  1394G12c H01F25739   0.705   4.765   5.331
  1394G12c H01E25740   0.822   4.747   5.469
  1394G12c C02J25741   0.721   5.001   5.528
  1394G12c H01H25742   0.713   4.899   5.562
  1394G12c C02I25743   0.657   5.106   5.594
  1394G12c C02N25744   0.574   5.088   5.706
  1394G12c H01M25745   0.482   5.139   5.729
  1394G12c C02O25746   0.599   4.979   5.780
  1394G12c H01L25747   0.682   4.911   5.767
  1394G12c C02P25748   0.504   4.927   5.896
  1394G12c H01K25749   0.473   4.828   5.864
  1394G12c H01J25750   0.558   4.924   5.991
  1394G12c O00H25751   0.403   5.024   5.920
  1394G12c H01I25752   0.351   4.995   5.993
  1394G12c C02H25753   0.673   5.241   5.543
  1394G12c H01C25754   0.646   5.328   5.601
  1394G12c C02L25755   0.755   5.262   5.431
  1394G12c H01D25756   0.787   5.361   5.404
  1394G12c C01325757   0.913   5.104   4.743
  1394G12c H00025758   0.821   5.161   4.751
  1394G12c C01425759   0.968   5.079   4.613
  1394G12c C00F25760   0.935   5.160   4.495
  1394G12c C00H25761   1.084   5.024   4.366
  1394G12c C00I25762   1.153   4.987   4.244
  1394G12c C00J25763   1.246   4.883   4.243
  1394G12c C00Z25764   1.185   4.790   4.703
  1394G12c C00Y25765   1.211   4.707   4.815
  1394G12c H00625766   1.179   4.729   4.916
  1394G12c C00X25767   1.279   4.586   4.797
  1394G12c O00325768   1.322   4.509   4.907
  1394G12c C01B25769   1.461   4.505   4.892
  1394G12c H00925770   1.494   4.608   4.912
  1394G12c H00825771   1.502   4.472   4.797
  1394G12c H00725772   1.507   4.437   4.963
  1394G12c C00W25773   1.296   4.540   4.662
  1394G12c O00425774   1.338   4.409   4.640
  1394G12c C01C25775   1.299   4.360   4.522
  1394G12c H00A25776   1.286   4.253   4.516
  1394G12c C00P25777   1.297   4.435   4.395
  1394G12c C00O25778   1.268   4.369   4.276
  1394G12c C01D25779   1.214   4.240   4.272
  1394G12c H00S25780   1.189   4.184   4.361
  1394G12c C01E25781   1.175   4.171   4.158
  1394G12c O00825782   1.098   4.057   4.167
  1394G12c C01V25783   1.120   3.946   4.086
  1394G12c C01Z25784   0.989   3.866   4.063
  1394G12c H00R25785   1.012   3.772   4.114
  1394G12c H00Q25786   0.894   3.915   4.082
  1394G12c O00925787   0.981   3.810   3.938
  1394G12c H00P25788   0.961   3.882   3.881
  1394G12c C01W25789   1.239   3.922   4.033
  1394G12c H00O25790   1.318   3.992   4.057
  1394G12c C01X25791   1.281   3.807   3.944
  1394G12c H00N25792   1.387   3.788   3.965
  1394G12c H00M25793   1.227   3.716   3.968
  1394G12c C01Y25794   1.272   3.834   3.796
  1394G12c C02D25795   1.307   3.963   3.744
  1394G12c H01925796   1.343   4.039   3.812
  1394G12c C02C25797   1.316   3.973   3.599
  1394G12c H01A25798   1.355   4.065   3.557
  1394G12c C02B25799   1.286   3.863   3.516
  1394G12c O00E25800   1.298   3.873   3.379
  1394G12c H01B25801   1.252   3.801   3.340
  1394G12c C02F25802   1.226   3.747   3.568
  1394G12c O00F25803   1.189   3.655   3.474
  1394G12c C02G25804   1.129   3.530   3.525
  1394G12c H01725805   1.116   3.457   3.445
  1394G12c H01625806   1.030   3.544   3.568
  1394G12c H01525807   1.188   3.468   3.594
  1394G12c C02E25808   1.219   3.734   3.706
  1394G12c H01825809   1.181   3.643   3.750
  1394G12c C01F25810   1.171   4.240   4.035
  1394G12c C01G25811   1.089   4.212   3.924
  1394G12c H00L25812   1.024   4.127   3.936
  1394G12c C01H25813   1.079   4.313   3.815
  1394G12c H00B25814   0.990   4.309   3.755
  1394G12c C01I25815   1.160   4.422   3.820
  1394G12c C01U25816   1.251   4.354   4.027
  1394G12c C00S25817   1.260   4.806   4.353
  1394G12c C00K25818   1.258   4.805   4.125
  1394G12c C00N25819   1.281   4.428   4.146
  1394G12c C00025820   1.271   4.429   3.912
  1394G12c C01J25821   1.135   4.556   3.791
  1394G12c C01K25822   1.035   4.600   3.699
  1394G12c C01P25823   0.979   4.529   3.584
  1394G12c C01Q25824   1.041   4.409   3.532
  1394G12c H00G25825   0.984   4.320   3.511
  1394G12c C01R25826   1.173   4.412   3.506
  1394G12c H00F25827   1.235   4.499   3.517
  1394G12c C01S25828   1.244   4.296   3.426
  1394G12c H00E25829   1.181   4.210   3.452
  1394G12c H00D25830   1.242   4.316   3.319
  1394G12c O00525831   1.381   4.280   3.453
  1394G12c H00C25832   1.394   4.302   3.544
  1394G12c C01O25833   0.877   4.581   3.498
  1394G12c H00H25834   0.845   4.532   3.407
  1394G12c C01N25835   0.825   4.709   3.532
  1394G12c O00625836   0.722   4.777   3.464
  1394G12c C01T25837   0.672   4.710   3.355
  1394G12c H00K25838   0.624   4.615   3.379
  1394G12c H00J25839   0.743   4.694   3.275
  1394G12c H00I25840   0.588   4.764   3.312
  1394G12c C01M25841   0.879   4.779   3.640
  1394G12c C02025842   1.189   4.853   4.011
  1394G12c C02125843   1.126   4.982   4.010
  1394G12c C01L25844   0.994   4.734   3.717
  1394G12c O00725845   0.812   4.895   3.658
  1394G12c C02225846   1.022   5.029   3.929
  1394G12c C02325847   1.106   5.049   4.135
  1394G12c C00G25848   0.984   5.123   4.371
  1394G12c C00E25849   0.850   5.277   4.505
  1394G12c O00A25850   0.809   5.326   4.625
  1394G12c C02425851   0.703   5.420   4.650
  1394G12c H00V25852   0.716   5.523   4.615
  1394G12c H00U25853   0.695   5.431   4.758
  1394G12c H00T25854   0.607   5.380   4.618
  1404G12c C00D25855   4.868   5.523   6.542
  1404G12c O00B25856   4.790   5.594   6.631
  1404G12c C02525857   4.784   5.556   6.763
  1404G12c C02625858   4.690   5.435   6.781
  1404G12c H00Y25859   4.758   5.352   6.804
  1404G12c H00X25860   4.626   5.417   6.695
  1404G12c O00C25861   4.602   5.451   6.893
  1404G12c H00W25862   4.594   5.374   6.947
  1404G12c C02725863   4.874   5.606   6.859
  1404G12c O00D25864   4.952   5.711   6.826
  1404G12c H00Z25865   4.944   5.724   6.733
  1404G12c C02825866   4.866   5.564   6.997
  1404G12c C02925867   4.923   5.442   7.032
  1404G12c H01025868   4.999   5.397   6.969
  1404G12c C02T25869   4.898   5.395   7.163
  1404G12c H01O25870   4.948   5.306   7.200
  1404G12c C02S25871   4.825   5.470   7.256
  1404G12c O00J25872   4.822   5.427   7.384
  1404G12c H01P25873   4.746   5.468   7.423
  1404G12c C02R25874   4.776   5.599   7.223
  1404G12c O00I25875   4.709   5.671   7.311
  1404G12c C02Q25876   4.573   5.634   7.312
  1404G12c H01N25877   4.518   5.689   7.236
  1404G12c H01R25878   4.533   5.658   7.411
  1404G12c H01Q25879   4.558   5.528   7.293
  1404G12c C02A25880   4.789   5.643   7.088
  1404G12c H01125881   4.745   5.735   7.054
  1404G12c C00C25882   4.979   5.439   6.581
  1404G12c H01225883   5.010   5.423   6.683
  1404G12c C00B25884   5.029   5.349   6.486
  1404G12c C00A25885   5.124   5.248   6.513
  1404G12c C00925886   5.225   5.241   6.615
  1404G12c C00825887   5.268   5.335   6.716
  1404G12c H01325888   5.210   5.419   6.750
  1404G12c C00725889   5.405   5.327   6.752
  1404G12c H01425890   5.446   5.395   6.825
  1404G12c C00625891   5.500   5.246   6.692
  1404G12c C00525892   5.454   5.166   6.586
  1404G12c C00425893   5.544   5.115   6.493
  1404G12c C00325894   5.496   5.058   6.372
  1404G12c C00225895   5.605   5.016   6.284
  1404G12c C00125896   5.601   4.949   6.157
  1404G12c C00M25897   5.521   4.995   6.049
  1404G12c C00L25898   5.380   5.026   6.064
  1404G12c C00R25899   5.300   5.104   5.973
  1404G12c C00Q25900   5.331   5.159   5.844
  1404G12c C00V25901   5.234   5.252   5.796
  1404G12c C00U25902   5.128   5.301   5.880
  1404G12c C00T25903   5.104   5.251   6.007
  1404G12c C01625904   5.032   5.317   6.111
  1404G12c C01525905   4.961   5.428   6.076
  1404G12c C01025906   4.966   5.465   5.941
  1404G12c C01125907   4.880   5.565   5.899
  1404G12c H00525908   4.865   5.596   5.797
  1404G12c C01225909   4.810   5.644   5.989
  1404G12c C01725910   4.728   5.751   5.942
  1404G12c O00225911   4.779   5.848   5.865
  1404G12c H00425912   4.871   5.838   5.846
  1404G12c C01825913   4.597   5.766   5.989
  1404G12c O00125914   4.531   5.676   6.072
  1404G12c H00325915   4.438   5.695   6.069
  1404G12c C01925916   4.506   5.881   5.946
  1404G12c H00225917   4.493   5.944   6.033
  1404G12c H00125918   4.547   5.933   5.860
  1404G12c O00025919   4.380   5.823   5.909
  1404G12c C01A25920   4.266   5.903   5.927
  1404G12c C02K25921   4.193   5.914   6.045
  1404G12c O00G25922   4.238   5.838   6.150
  1404G12c C02M25923   4.154   5.836   6.267
  1404G12c H01G25924   4.189   5.760   6.338
  1404G12c H01F25925   4.052   5.808   6.244
  1404G12c H01E25926   4.159   5.933   6.318
  1404G12c C02J25927   4.076   5.997   6.044
  1404G12c H01H25928   4.015   6.005   6.132
  1404G12c C02I25929   4.034   6.058   5.922
  1404G12c C02N25930   3.925   6.159   5.918
  1404G12c H01M25931   3.864   6.187   5.834
  1404G12c C02O25932   3.911   6.231   6.034
  1404G12c H01L25933   3.981   6.212   6.115
  1404G12c C02P25934   3.808   6.337   6.062
  1404G12c H01K25935   3.862   6.432   6.063
  1404G12c H01J25936   3.730   6.335   5.985
  1404G12c O00H25937   3.752   6.295   6.180
  1404G12c H01I25938   3.812   6.324   6.248
  1404G12c C02H25939   4.097   6.026   5.804
  1404G12c H01C25940   4.068   6.072   5.710
  1404G12c C02L25941   4.219   5.954   5.803
  1404G12c H01D25942   4.273   5.919   5.716
  1404G12c C01325943   4.816   5.614   6.131
  1404G12c H00025944   4.768   5.677   6.206
  1404G12c C01425945   4.895   5.501   6.172
  1404G12c C00F25946   4.908   5.462   6.309
  1404G12c C00H25947   5.048   5.279   6.246
  1404G12c C00I25948   5.130   5.171   6.275
  1404G12c C00J25949   5.197   5.107   6.172
  1404G12c C00Z25950   5.048   5.401   5.846
  1404G12c C00Y25951   5.057   5.454   5.713
  1404G12c H00625952   5.014   5.549   5.685
  1404G12c C00X25953   5.154   5.406   5.621
  1404G12c O00325954   5.157   5.459   5.495
  1404G12c C01B25955   5.154   5.363   5.391
  1404G12c H00925956   5.064   5.301   5.396
  1404G12c H00825957   5.241   5.298   5.378
  1404G12c H00725958   5.154   5.415   5.296
  1404G12c C00W25959   5.249   5.306   5.663
  1404G12c O00425960   5.349   5.272   5.579
  1404G12c C01C25961   5.432   5.175   5.621
  1404G12c H00A25962   5.481   5.112   5.548
  1404G12c C00P25963   5.447   5.143   5.760
  1404G12c C00O25964   5.574   5.094   5.804
  1404G12c C01D25965   5.687   5.122   5.727
  1404G12c H00S25966   5.668   5.170   5.632
  1404G12c C01E25967   5.817   5.128   5.784
  1404G12c O00825968   5.910   5.206   5.725
  1404G12c C01V25969   6.004   5.135   5.647
  1404G12c C01Z25970   5.952   5.082   5.510
  1404G12c H00R25971   6.021   5.028   5.446
  1404G12c H00Q25972   5.861   5.028   5.536
  1404G12c O00925973   5.902   5.191   5.439
  1404G12c H00P25974   5.853   5.254   5.489
  1404G12c C01W25975   6.135   5.137   5.689
  1404G12c H00O25976   6.161   5.185   5.782
  1404G12c C01X25977   6.252   5.086   5.616
  1404G12c H00N25978   6.325   5.088   5.696
  1404G12c H00M25979   6.242   4.985   5.576
  1404G12c C01Y25980   6.324   5.161   5.508
  1404G12c C02D25981   6.458   5.135   5.479
  1404G12c H01925982   6.510   5.060   5.537
  1404G12c C02C25983   0.006   5.199   5.374
  1404G12c H01A25984   0.109   5.175   5.349
  1404G12c C02B25985   6.456   5.291   5.296
  1404G12c O00E25986   6.518   5.360   5.198
  1404G12c H01B25987   6.468   5.439   5.182
  1404G12c C02F25988   6.317   5.317   5.320
  1404G12c O00F25989   6.257   5.401   5.235
  1404G12c C02G25990   6.126   5.447   5.260
  1404G12c H01725991   6.057   5.363   5.268
  1404G12c H01625992   6.091   5.517   5.185
  1404G12c H01525993   6.126   5.497   5.357
  1404G12c C02E25994   6.256   5.257   5.427
  1404G12c H01825995   6.155   5.287   5.453
  1404G12c C01F25996   5.830   5.077   5.918
  1404G12c C01G25997   5.934   5.117   6.003
  1404G12c H00L25998   6.011   5.180   5.962
  1404G12c C01H25999   5.936   5.085   6.143
  1404G12c H00B26000   6.016   5.136   6.195
  1404G12c C01I26001   5.820   5.013   6.197
  1404G12c C01U26002   5.729   4.992   5.974
  1404G12c C00S26003   5.181   5.146   6.043
  1404G12c C00K26004   5.323   5.039   6.193
  1404G12c C00N26005   5.600   5.025   5.930
  1404G12c C00026006   5.732   4.946   6.107
  1404G12c C01J26007   5.741   5.034   6.316
  1404G12c C01K26008   5.789   5.080   6.441
  1404G12c C01P26009   5.922   5.078   6.490
  1404G12c C01Q26010   6.027   5.000   6.431
  1404G12c H00G26011   5.993   4.911   6.379
  1404G12c C01R26012   6.160   5.033   6.434
  1404G12c H00F26013   6.182   5.125   6.485
  1404G12c C01S26014   6.271   4.944   6.373
  1404G12c H00E26015   6.348   4.927   6.448
  1404G12c H00D26016   6.235   4.848   6.338
  1404G12c O00526017   6.318   5.005   6.257
  1404G12c H00C26018   6.325   4.933   6.195
  1404G12c C01O26019   5.954   5.146   6.612
  1404G12c H00H26020   6.054   5.144   6.652
  1404G12c C01N26021   5.853   5.215   6.684
  1404G12c O00626022   5.877   5.278   6.805
  1404G12c C01T26023   6.010   5.291   6.855
  1404G12c H00K26024   6.084   5.309   6.777
  1404G12c H00J26025   6.060   5.217   6.918
  1404G12c H00I26026   6.003   5.391   6.899
  1404G12c C01M26027   5.723   5.203   6.635
  1404G12c C02026028   5.363   5.042   6.335
  1404G12c C02126029   5.275   5.092   6.438
  1404G12c C01L26030   5.684   5.130   6.523
  1404G12c O00726031   5.634   5.267   6.711
  1404G12c C02226032   5.319   5.148   6.556
  1404G12c C02326033   5.155   5.154   6.411
  1404G12c C00G26034   4.992   5.357   6.348
  1404G12c C00E26035   4.827   5.522   6.410
  1404G12c O00A26036   4.706   5.591   6.388
  1404G12c C02426037   4.604   5.495   6.355
  1404G12c H00V26038   4.520   5.548   6.311
  1404G12c H00U26039   4.567   5.461   6.451
  1404G12c H00T26040   4.624   5.415   6.284
 8964Mn     Mn 26041   4.903   2.118   2.193
 8965Mn     Mn 26042   3.602   3.483  12.553
 8966Mn     Mn 26043   5.573   6.225  10.712
 8967Mn     Mn 26044   4.918   1.456   3.912
 8968Mn     Mn 26045   2.868   0.717   0.110
 8969Mn     Mn 26046   2.827   2.512  10.398
 8970Mn     Mn 26047   1.580   3.792   2.203
 8971Mn     Mn 26048   0.152   2.966  11.122
 8972Mn     Mn 26049   0.065   0.756  12.137
 8973Mn     Mn 26050   2.579   5.302  10.037
 8974Mn     Mn 26051   5.630   5.454   7.963
 8975Mn     Mn 26052   4.768   2.502   8.357
 8976Mn     Mn 26053   6.193   5.296   8.205
 8977Mn     Mn 26054   4.512   5.184  10.460
 8978Mn     Mn 26055   1.525   0.543  11.710
 8979Mn     Mn 26056   5.495   1.106   0.926
 8980Mn     Mn 26057   0.272   2.557   8.991
 8981Mn     Mn 26058   5.474   3.190  10.333
 8982Mn     Mn 26059   0.578   2.321   2.687
 8983Mn     Mn 26060   0.214   3.287   9.422
 8984Mn     Mn 26061   1.746   4.818   8.709
 8985Mn     Mn 26062   3.320   1.876   4.301
 8986Mn     Mn 26063   1.813   1.618   9.969
 8987Mn     Mn 26064   3.648   1.288   1.915
 8988Mn     Mn 26065   1.266   4.923   2.575
 8989Mn     Mn 26066   6.287   6.458   1.851
 8990Mn     Mn 26067   4.206   6.449   0.948
 8991Mn     Mn 26068   6.434   6.018   2.386
 8992Mn     Mn 26069   0.551   1.938   8.973
 8993Mn     Mn 26070   6.325   5.652   2.677
 8994Mn     Mn 26071   4.326   4.727  10.128
 8995Mn     Mn 26072   4.831   1.432   3.438
 8996Cl     Cl 26073   2.050   5.569   9.905
 8997Cl     Cl 26074   6.352   5.826   2.507
 8998Cl     Cl 26075   0.388   2.385   9.124
 8999Cl     Cl 26076   5.459   6.005  11.134
 9000Cl     Cl 26077   2.793   2.262  10.451
 9001Cl     Cl 26078   0.103   1.771   9.916
 9002Cl     Cl 26079   4.169   1.661   0.519
 9003Cl     Cl 26080   3.600   2.722   1.099
 9004Cl     Cl 26081   1.934   5.023   1.756
 9005Cl     Cl 26082   5.315   3.952  10.231
 9006Cl     Cl 26083   2.941   1.154  12.604
 9007Cl     Cl 26084   3.305   1.681  10.183
 9008Cl     Cl 26085   3.716   3.275  12.597
 9009Cl     Cl 26086   2.590   4.219   0.923
 9010Cl     Cl 26087   4.804   1.411   3.691
 9011Cl     Cl 26088   4.280   4.966  10.126
 9012Cl     Cl 26089   5.372   3.228  10.117
 9013Cl     Cl 26090   6.321   2.667  11.068
 9014Cl     Cl 26091   4.168   6.468   1.188
 9015Cl     Cl 26092   5.402   1.346  12.334
 9016Cl     Cl 26093   0.383   1.011  12.351
 9017Cl     Cl 26094   2.483   0.763  10.313
 9018Cl     Cl 26095   4.252   4.814  11.859
 9019Cl     Cl 26096   0.084   3.015  10.887
 9020Cl     Cl 26097   4.567   4.936  10.486
 9021Cl     Cl 26098   0.639   6.126   2.242
 9022Cl     Cl 26099   1.588   6.225   1.525
 9023Cl     Cl 26100   1.484   0.412  11.502
 9024Cl     Cl 26101   0.347   5.708  11.395
 9025Cl     Cl 26102   6.175   6.238   1.823
 9026Cl     Cl 26103   2.613   3.147  11.890
 9027Cl     Cl 26104   6.328   6.412   2.098
 9028Cl     Cl 26105   0.064   4.381  10.298
 9029Cl     Cl 26106   5.275   1.203   0.953
 9030Cl     Cl 26107   5.055   1.115  11.683
 9031Cl     Cl 26108   2.720   3.056   1.489
 9032Cl     Cl 26109   1.987   0.891   0.213
   6.52112   6.52112  12.68605   0.00000   0.00000   0.00000   0.00000   0.00000   0.00000
