PolyParGen GENERATED GRO FILE 2024/07/08 16:06:53UTC
   706
    1LIG   C058    1   2.060   3.332   0.361
    1LIG   C05A    2   1.989   3.207   0.360
    1LIG   C06Q    3   2.062   3.088   0.360
    1LIG   C06R    4   1.992   2.963   0.359
    1LIG   C06S    5   1.847   2.954   0.358
    1LIG   C06T    6   1.784   2.825   0.358
    1LIG   C06U    7   1.644   2.789   0.359
    1LIG   C06X    8   1.523   2.861   0.360
    1LIG   C060    9   1.412   2.775   0.364
    1LIG   C05Z   10   1.271   2.774   0.369
    1LIG   C068   11   1.246   2.626   0.371
    1LIG   C067   12   1.114   2.562   0.370
    1LIG   C069   13   0.993   2.642   0.367
    1LIG   C06A   14   0.861   2.593   0.346
    1LIG   C073   15   0.806   2.478   0.286
    1LIG   C07P   16   0.691   2.486   0.200
    1LIG   C07O   17   0.665   2.600   0.120
    1LIG   H00D   18   0.735   2.674   0.110
    1LIG   C07N   19   0.541   2.616   0.055
    1LIG   H00E   20   0.523   2.701   0.000
    1LIG   C07M   21   0.442   2.517   0.065
    1LIG   H00F   22   0.352   2.531   0.019
    1LIG   C07L   23   0.468   2.399   0.138
    1LIG   C07Q   24   0.373   2.297   0.150
    1LIG   H00G   25   0.281   2.305   0.106
    1LIG   O00F   26   0.402   2.183   0.219
    1LIG   C07J   27   0.523   2.163   0.280
    1LIG   C07I   28   0.623   2.266   0.276
    1LIG   N004   29   0.747   2.252   0.335
    1LIG   C07R   30   0.774   2.130   0.393
    1LIG   C07T   31   0.678   2.023   0.395
    1LIG   C0FX   32   0.712   1.894   0.442
    1LIG   C0FW   33   0.628   1.782   0.438
    1LIG   C0G0   34   0.498   1.805   0.388
    1LIG   C0G2   35   0.410   1.695   0.384
    1LIG   H01E   36   0.314   1.708   0.349
    1LIG   C0G3   37   0.453   1.567   0.425
    1LIG   H01C   38   0.388   1.489   0.421
    1LIG   C0G4   39   0.585   1.546   0.470
    1LIG   H01D   40   0.613   1.452   0.498
    1LIG   O00E   41   0.464   1.931   0.342
    1LIG   C0FV   42   0.678   1.653   0.476
    1LIG   C0FU   43   0.816   1.635   0.513
    1LIG   H01B   44   0.853   1.543   0.535
    1LIG   C0FT   45   0.902   1.747   0.513
    1LIG   C0FS   46   1.041   1.778   0.520
    1LIG   C0BI   47   1.045   1.913   0.505
    1LIG   C0BH   48   1.167   1.959   0.492
    1LIG   C07F   49   1.212   2.081   0.461
    1LIG   C07E   50   1.138   2.197   0.437
    1LIG   C07G   51   1.002   2.207   0.426
    1LIG   C074   52   0.978   2.336   0.382
    1LIG   C065   53   1.200   2.317   0.406
    1LIG   C064   54   1.342   2.307   0.401
    1LIG   C063   55   1.426   2.412   0.382
    1LIG   C075   56   1.557   2.344   0.383
    1LIG   C0AM   57   1.558   2.200   0.399
    1LIG   C0AN   58   1.663   2.093   0.401
    1LIG   C0AO   59   1.811   2.107   0.393
    1LIG   C0B1   60   1.904   1.992   0.392
    1LIG   C0B0   61   1.854   1.862   0.394
    1LIG   C0AZ   62   1.933   1.742   0.389
    1LIG   C0AY   63   1.872   1.612   0.388
    1LIG   N007   64   1.946   1.496   0.385
    1LIG   C0E2   65   1.881   1.372   0.385
    1LIG   C0E1   66   1.959   1.252   0.389
    1LIG   C0E4   67   1.898   1.122   0.390
    1LIG   C0FF   68   1.973   1.000   0.398
    1LIG   C0FJ   69   1.933   0.858   0.391
    1LIG   C0FK   70   1.830   0.764   0.371
    1LIG   H016   71   1.732   0.789   0.358
    1LIG   C0FL   72   1.879   0.628   0.367
    1LIG   H017   73   1.822   0.545   0.350
    1LIG   C0FM   74   2.018   0.626   0.384
    1LIG   C0FH   75   2.151   0.565   0.388
    1LIG   C0FI   76   2.230   0.675   0.410
    1LIG   C0F3   77   2.368   0.680   0.405
    1LIG   C0F2   78   2.422   0.808   0.411
    1LIG   C0DW   79   2.344   0.926   0.419
    1LIG   C0FE   80   2.205   0.917   0.423
    1LIG   C0DV   81   2.402   1.051   0.405
    1LIG   C0DX   82   2.321   1.165   0.398
    1LIG   C0DK   83   2.386   1.288   0.382
    1LIG   C0DJ   84   2.528   1.295   0.366
    1LIG   C0DI   85   2.593   1.418   0.353
    1LIG   C0DH   86   2.515   1.536   0.361
    1LIG   C0DG   87   2.373   1.528   0.372
    1LIG   C0BV   88   2.294   1.645   0.377
    1LIG   C0BC   89   2.151   1.635   0.382
    1LIG   C0BA   90   2.360   1.770   0.378
    1LIG   C0B4   91   2.278   1.886   0.384
    1LIG   C0B3   92   2.134   1.879   0.386
    1LIG   C0B5   93   2.343   2.010   0.386
    1LIG   C0BU   94   2.489   2.018   0.385
    1LIG   C0BT   95   2.572   1.903   0.379
    1LIG   C0BS   96   2.718   1.912   0.377
    1LIG   C0CC   97   2.792   1.792   0.358
    1LIG   C0CB   98   2.935   1.794   0.347
    1LIG   C0CH   99   2.994   1.680   0.287
    1LIG   C0DO  100   2.935   1.551   0.290
    1LIG   C0DP  101   3.010   1.430   0.268
    1LIG   C0EA  102   3.147   1.426   0.233
    1LIG   H012  103   3.201   1.510   0.214
    1LIG   O009  104   3.216   1.309   0.225
    1LIG   C0EH  105   3.158   1.187   0.247
    1LIG   C0EG  106   3.235   1.070   0.240
    1LIG   C0EJ  107   3.371   1.045   0.217
    1LIG   H010  108   3.443   1.116   0.201
    1LIG   C0EK  109   3.392   0.906   0.221
    1LIG   H00Z  110   3.481   0.859   0.207
    1LIG   C0EL  111   3.269   0.844   0.245
    1LIG   C0EM  112   3.230   0.708   0.258
    1LIG   C0EW  113   3.306   0.589   0.252
    1LIG   H013  114   3.407   0.594   0.238
    1LIG   C0EX  115   3.243   0.461   0.266
    1LIG   H014  116   3.301   0.377   0.262
    1LIG   C0F1  117   3.102   0.449   0.285
    1LIG   C0EU  118   3.031   0.569   0.292
    1LIG   C0ET  119   2.894   0.582   0.312
    1LIG   C0ES  120   2.878   0.723   0.314
    1LIG   C0EE  121   2.998   0.792   0.292
    1LIG   C0ED  122   3.036   0.930   0.282
    1LIG   C0EC  123   2.957   1.050   0.294
    1LIG   C0EB  124   2.819   1.049   0.325
    1LIG   C0EN  125   2.744   0.928   0.345
    1LIG   C0ER  126   2.613   0.941   0.377
    1LIG   C0DS  127   2.747   1.174   0.335
    1LIG   C0DR  128   2.809   1.300   0.317
    1LIG   C0EY  129   2.761   0.787   0.340
    1LIG   C0EZ  130   2.641   0.716   0.364
    1LIG   C0F5  131   2.589   0.582   0.362
    1LIG   C0F6  132   2.666   0.463   0.343
    1LIG   N008  133   2.595   0.342   0.344
    1LIG   C0F7  134   2.455   0.333   0.355
    1LIG   C0FQ  135   2.388   0.209   0.353
    1LIG   H018  136   2.286   0.201   0.360
    1LIG   C0FP  137   2.462   0.091   0.345
    1LIG   H019  138   2.415   0.000   0.345
    1LIG   C0FO  139   2.601   0.097   0.337
    1LIG   H01A  140   2.654   0.010   0.331
    1LIG   C0F8  141   2.372   0.447   0.369
    1LIG   C0F9  142   2.666   0.223   0.335
    1LIG   C0FA  143   2.806   0.222   0.324
    1LIG   H015  144   2.855   0.132   0.320
    1LIG   C0FB  145   2.880   0.341   0.316
    1LIG   C0FD  146   2.810   0.466   0.324
    1LIG   C0FC  147   3.023   0.333   0.299
    1LIG   O00A  148   3.083   0.223   0.296
    1LIG   C0EV  149   3.092   0.691   0.279
    1LIG   C0EF  150   3.175   0.947   0.257
    1LIG   C0EI  151   3.019   1.179   0.276
    1LIG   C0DQ  152   2.947   1.303   0.287
    1LIG   C0CE  153   2.798   1.547   0.323
    1LIG   H00U  154   3.085   1.691   0.244
    1LIG   C0CA  155   3.016   1.906   0.387
    1LIG   C0C9  156   2.938   2.033   0.391
    1LIG   C0C8  157   3.014   2.155   0.396
    1LIG   C0C7  158   2.984   2.297   0.397
    1LIG   C0C6  159   3.095   2.382   0.401
    1LIG   C0C5  160   3.140   2.518   0.401
    1LIG   C0CQ  161   3.279   2.533   0.404
    1LIG   C0D1  162   3.364   2.429   0.405
    1LIG   C0D8  163   3.495   2.454   0.403
    1LIG   C0D7  164   3.489   2.593   0.401
    1LIG   C0D6  165   3.600   2.671   0.397
    1LIG   C0D5  166   3.593   2.808   0.392
    1LIG   C0D4  167   3.494   2.902   0.390
    1LIG   C0D3  168   3.541   3.030   0.384
    1LIG   C0CX  169   3.425   3.119   0.381
    1LIG   C0CW  170   3.308   3.022   0.384
    1LIG   C0CV  171   3.160   3.019   0.381
    1LIG   C0D2  172   3.079   3.136   0.373
    1LIG   C09D  173   3.139   3.267   0.368
    1LIG   C09C  174   3.042   3.374   0.361
    1LIG   C09B  175   3.077   3.510   0.357
    1LIG   C09A  176   3.209   3.540   0.360
    1LIG   C099  177   3.300   3.445   0.367
    1LIG   C098  178   3.418   3.507   0.371
    1LIG   C08Y  179   3.402   3.650   0.368
    1LIG   C08X  180   3.488   3.763   0.371
    1LIG   C08W  181   3.629   3.737   0.375
    1LIG   C08U  182   3.685   3.601   0.378
    1LIG   C08V  183   3.636   3.461   0.379
    1LIG   C0DC  184   3.753   3.385   0.383
    1LIG   H00W  185   3.756   3.285   0.385
    1LIG   C0DB  186   3.866   3.466   0.382
    1LIG   H00X  187   3.962   3.432   0.384
    1LIG   C08T  188   3.826   3.598   0.380
    1LIG   C08S  189   3.910   3.713   0.379
    1LIG   H00N  190   4.012   3.700   0.380
    1LIG   C08R  191   3.857   3.845   0.378
    1LIG   C08Q  192   3.939   3.963   0.378
    1LIG   H00O  193   4.041   3.952   0.378
    1LIG   C08P  194   3.885   4.096   0.376
    1LIG   C08O  195   3.965   4.216   0.376
    1LIG   H00P  196   4.067   4.207   0.376
    1LIG   C08N  197   3.909   4.348   0.375
    1LIG   C08M  198   3.974   4.475   0.374
    1LIG   O008  199   4.099   4.481   0.374
    1LIG   O007  200   3.904   4.597   0.373
    1LIG   C08H  201   3.767   4.614   0.373
    1LIG   C08G  202   3.690   4.737   0.372
    1LIG   C03V  203   3.746   4.867   0.372
    1LIG   H009  204   3.848   4.877   0.372
    1LIG   C03U  205   3.663   4.983   0.370
    1LIG   C03W  206   3.719   5.113   0.371
    1LIG   H00A  207   3.820   5.127   0.372
    1LIG   C03X  208   3.634   5.225   0.369
    1LIG   H00B  209   3.673   5.319   0.369
    1LIG   O005  210   3.499   5.208   0.367
    1LIG   C03O  211   3.439   5.085   0.368
    1LIG   C03N  212   3.298   5.073   0.367
    1LIG   O000  213   3.221   5.186   0.367
    1LIG   C019  214   3.084   5.185   0.368
    1LIG   C018  215   3.016   5.062   0.370
    1LIG   C017  216   3.095   4.941   0.369
    1LIG   C016  217   3.033   4.814   0.369
    1LIG   C015  218   2.890   4.822   0.369
    1LIG   C014  219   2.827   4.699   0.369
    1LIG   C013  220   2.895   4.574   0.368
    1LIG   C012  221   2.789   4.482   0.368
    1LIG   C011  222   2.673   4.561   0.369
    1LIG   C010  223   2.553   4.501   0.372
    1LIG   C00Z  224   2.429   4.556   0.373
    1LIG   C00Y  225   2.352   4.444   0.376
    1LIG   C01O  226   2.421   4.331   0.376
    1LIG   C01P  227   2.369   4.205   0.375
    1LIG   C02L  228   2.455   4.098   0.371
    1LIG   C02K  229   2.595   4.132   0.368
    1LIG   C01M  230   2.648   4.270   0.369
    1LIG   C02J  231   2.668   4.017   0.362
    1LIG   C02I  232   2.803   4.021   0.358
    1LIG   C02H  233   2.897   4.125   0.359
    1LIG   C01Q  234   2.891   4.263   0.364
    1LIG   C02G  235   3.022   4.310   0.365
    1LIG   C089  236   3.102   4.202   0.364
    1LIG   C088  237   3.234   4.226   0.367
    1LIG   C087  238   3.229   4.370   0.369
    1LIG   C086  239   3.346   4.444   0.372
    1LIG   C03S  240   3.352   4.586   0.371
    1LIG   N006  241   3.485   4.610   0.372
    1LIG   C08F  242   3.556   4.497   0.373
    1LIG   C01J  243   3.256   4.695   0.370
    1LIG   C03R  244   3.317   4.826   0.369
    1LIG   C03Q  245   3.460   4.842   0.370
    1LIG   C08E  246   3.476   4.386   0.373
    1LIG   C08D  247   3.534   4.254   0.373
    1LIG   C08K  248   3.681   4.241   0.374
    1LIG   C08C  249   3.465   4.134   0.372
    1LIG   C091  250   3.529   4.009   0.373
    1LIG   C092  251   3.666   3.990   0.375
    1LIG   C08B  252   3.330   4.117   0.368
    1LIG   C090  253   3.319   3.974   0.366
    1LIG   C094  254   3.199   3.907   0.359
    1LIG   C095  255   3.177   3.771   0.357
    1LIG   C09R  256   3.041   3.746   0.353
    1LIG   C097  257   2.975   3.862   0.353
    1LIG   C096  258   3.072   3.960   0.356
    1LIG   C01I  259   3.096   4.427   0.368
    1LIG   C08A  260   3.029   4.089   0.359
    1LIG   C09L  261   2.840   3.889   0.354
    1LIG   C09K  262   2.729   3.806   0.355
    1LIG   C09J  263   2.733   3.670   0.355
    1LIG   C09I  264   2.623   3.584   0.358
    1LIG   C09O  265   2.482   3.596   0.361
    1LIG   C09N  266   2.413   3.720   0.363
    1LIG   C09M  267   2.477   3.851   0.364
    1LIG   C06O  268   2.269   3.710   0.366
    1LIG   C05M  269   2.199   3.586   0.364
    1LIG   C06P  270   2.270   3.464   0.363
    1LIG   C042  271   2.057   3.578   0.365
    1LIG   C041  272   1.981   3.697   0.367
    1LIG   C040  273   1.840   3.692   0.367
    1LIG   C03Z  274   1.762   3.810   0.368
    1LIG   C03Y  275   1.828   3.934   0.371
    1LIG   C027  276   1.751   4.052   0.371
    1LIG   C026  277   1.816   4.176   0.373
    1LIG   C028  278   1.743   4.296   0.372
    1LIG   C029  279   1.603   4.291   0.371
    1LIG   C02B  280   1.532   4.411   0.372
    1LIG   C02C  281   1.392   4.406   0.373
    1LIG   C02X  282   1.323   4.527   0.374
    1LIG   C03E  283   1.184   4.523   0.374
    1LIG   C03G  284   1.109   4.404   0.374
    1LIG   C04Q  285   1.180   4.282   0.372
    1LIG   C04R  286   1.109   4.160   0.371
    1LIG   C04S  287   1.185   4.040   0.369
    1LIG   C04L  288   1.327   4.041   0.369
    1LIG   C04M  289   1.395   4.164   0.370
    1LIG   C04K  290   1.403   3.922   0.368
    1LIG   C04F  291   1.337   3.798   0.367
    1LIG   C04E  292   1.196   3.794   0.369
    1LIG   C04D  293   1.132   3.667   0.370
    1LIG   C050  294   0.992   3.663   0.374
    1LIG   C051  295   0.931   3.534   0.377
    1LIG   C05Q  296   0.791   3.530   0.382
    1LIG   C05V  297   0.728   3.403   0.388
    1LIG   N005  298   0.590   3.398   0.393
    1LIG   C07V  299   0.516   3.516   0.391
    1LIG   C082  300   0.374   3.513   0.394
    1LIG   C081  301   0.309   3.389   0.400
    1LIG   C07C  302   0.385   3.269   0.405
    1LIG   C07B  303   0.319   3.144   0.415
    1LIG   C080  304   0.177   3.139   0.417
    1LIG   C07Z  305   0.112   3.015   0.427
    1LIG   H00L  306   0.009   3.011   0.429
    1LIG   C079  307   0.186   2.895   0.436
    1LIG   C078  308   0.328   2.898   0.433
    1LIG   C077  309   0.403   2.777   0.439
    1LIG   C07X  310   0.331   2.655   0.450
    1LIG   H00I  311   0.377   2.565   0.457
    1LIG   C07Y  312   0.190   2.653   0.454
    1LIG   H00H  313   0.141   2.563   0.462
    1LIG   C076  314   0.546   2.783   0.430
    1LIG   C06C  315   0.629   2.669   0.424
    1LIG   H00C  316   0.591   2.575   0.434
    1LIG   C06F  317   0.612   2.910   0.419
    1LIG   C06E  318   0.754   2.916   0.407
    1LIG   C06G  319   0.824   3.037   0.397
    1LIG   C06H  320   0.745   3.156   0.397
    1LIG   C06I  321   0.602   3.154   0.405
    1LIG   C06L  322   0.968   3.031   0.386
    1LIG   C06M  323   1.047   2.905   0.380
    1LIG   C06K  324   1.027   3.159   0.380
    1LIG   C05S  325   0.948   3.283   0.381
    1LIG   C05U  326   1.168   3.161   0.372
    1LIG   C05X  327   1.250   3.037   0.369
    1LIG   C05G  328   1.392   3.067   0.364
    1LIG   C05F  329   1.437   3.197   0.364
    1LIG   C05E  330   1.573   3.205   0.362
    1LIG   C048  331   1.641   3.326   0.362
    1LIG   C056  332   1.780   3.324   0.361
    1LIG   C045  333   1.847   3.449   0.363
    1LIG   C047  334   1.565   3.443   0.364
    1LIG   C049  335   1.424   3.437   0.366
    1LIG   C04B  336   1.348   3.554   0.367
    1LIG   C046  337   1.631   3.566   0.365
    1LIG   C04H  338   1.555   3.684   0.366
    1LIG   C05D  339   1.630   3.082   0.360
    1LIG   C04A  340   1.359   3.311   0.367
    1LIG   C05T  341   1.222   3.295   0.370
    1LIG   C055  342   1.146   3.417   0.372
    1LIG   C06D  343   0.831   2.800   0.397
    1LIG   C07W  344   0.536   3.029   0.416
    1LIG   C085  345   0.118   2.772   0.446
    1LIG   H00M  346   0.016   2.768   0.448
    1LIG   C084  347   0.102   3.258   0.410
    1LIG   H00J  348   0.000   3.256   0.411
    1LIG   C07A  349   0.395   3.024   0.422
    1LIG   C083  350   0.168   3.382   0.402
    1LIG   H00K  351   0.110   3.467   0.397
    1LIG   O00K  352   0.304   3.631   0.391
    1LIG   C0GO  353   0.362   3.755   0.386
    1LIG   C0GN  354   0.285   3.871   0.384
    1LIG   H01L  355   0.183   3.862   0.385
    1LIG   C0GM  356   0.348   3.998   0.380
    1LIG   C0GL  357   0.265   4.112   0.378
    1LIG   H01M  358   0.163   4.106   0.379
    1LIG   O00J  359   0.323   4.234   0.375
    1LIG   C0GK  360   0.457   4.250   0.374
    1LIG   H01N  361   0.487   4.347   0.371
    1LIG   C05K  362   0.546   4.140   0.376
    1LIG   C05J  363   0.689   4.158   0.375
    1LIG   C04Y  364   0.759   4.286   0.374
    1LIG   C04X  365   0.901   4.283   0.373
    1LIG   O006  366   0.704   4.416   0.375
    1LIG   C053  367   0.764   4.543   0.374
    1LIG   C04O  368   0.905   4.542   0.374
    1LIG   C03C  369   0.985   4.662   0.374
    1LIG   C03B  370   0.976   4.805   0.374
    1LIG   C054  371   0.857   4.873   0.374
    1LIG   C0GR  372   0.848   5.015   0.374
    1LIG   C03M  373   0.942   5.128   0.374
    1LIG   C03I  374   1.088   5.127   0.374
    1LIG   C03J  375   1.167   5.250   0.375
    1LIG   N002  376   1.308   5.256   0.375
    1LIG   C02U  377   1.383   5.374   0.378
    1LIG   C02T  378   1.528   5.380   0.377
    1LIG   C02Z  379   1.607   5.498   0.380
    1LIG   N001  380   1.749   5.498   0.374
    1LIG   C02R  381   1.817   5.617   0.372
    1LIG   C032  382   1.744   5.739   0.388
    1LIG   C031  383   1.603   5.738   0.399
    1LIG   H007  384   1.551   5.825   0.410
    1LIG   C033  385   1.816   5.861   0.387
    1LIG   H003  386   1.769   5.950   0.402
    1LIG   O004  387   1.950   5.860   0.361
    1LIG   C034  388   2.021   5.746   0.339
    1LIG   C035  389   2.156   5.755   0.302
    1LIG   C036  390   2.227   5.638   0.271
    1LIG   H005  391   2.324   5.644   0.238
    1LIG   C037  392   2.165   5.513   0.284
    1LIG   H006  393   2.218   5.430   0.255
    1LIG   C00D  394   2.034   5.500   0.334
    1LIG   C00C  395   1.976   5.372   0.361
    1LIG   C00B  396   2.055   5.245   0.370
    1LIG   C00A  397   2.193   5.174   0.375
    1LIG   C009  398   2.153   5.039   0.370
    1LIG   C008  399   2.232   4.923   0.369
    1LIG   C007  400   2.373   4.928   0.369
    1LIG   C006  401   2.451   4.806   0.369
    1LIG   C005  402   2.596   4.810   0.369
    1LIG   C004  403   2.659   4.937   0.371
    1LIG   C003  404   2.577   5.058   0.376
    1LIG   C002  405   2.647   5.181   0.387
    1LIG   C01C  406   2.793   5.185   0.378
    1LIG   C01B  407   2.869   5.305   0.373
    1LIG   H000  408   2.823   5.396   0.371
    1LIG   C001  409   2.561   5.291   0.417
    1LIG   C000  410   2.418   5.284   0.420
    1LIG   C01U  411   2.378   5.405   0.476
    1LIG   H002  412   2.284   5.430   0.504
    1LIG   C01T  413   2.491   5.484   0.492
    1LIG   O002  414   2.492   5.601   0.535
    1LIG   O001  415   2.600   5.414   0.456
    1LIG   C01S  416   2.429   5.059   0.375
    1LIG   C00N  417   2.162   4.799   0.369
    1LIG   C00M  418   2.020   4.791   0.369
    1LIG   C00J  419   1.947   4.907   0.369
    1LIG   C00I  420   1.807   4.905   0.370
    1LIG   C00H  421   1.737   5.026   0.371
    1LIG   C00G  422   1.813   5.145   0.371
    1LIG   C00F  423   1.745   5.265   0.371
    1LIG   C01X  424   1.595   5.023   0.371
    1LIG   C01W  425   1.526   4.901   0.372
    1LIG   C01V  426   1.597   4.780   0.372
    1LIG   C020  427   1.531   4.656   0.372
    1LIG   C01Z  428   1.385   4.898   0.373
    1LIG   C02Y  429   1.323   4.772   0.374
    1LIG   C039  430   1.186   4.765   0.374
    1LIG   C02W  431   1.306   5.015   0.373
    1LIG   C01Y  432   1.523   5.142   0.372
    1LIG   C00U  433   1.737   4.783   0.371
    1LIG   C00S  434   1.808   4.664   0.371
    1LIG   C00T  435   1.739   4.540   0.371
    1LIG   C00R  436   1.948   4.669   0.371
    1LIG   C00Q  437   2.017   4.550   0.372
    1LIG   C00V  438   1.948   4.426   0.373
    1LIG   C024  439   2.018   4.306   0.375
    1LIG   C00X  440   2.155   4.312   0.377
    1LIG   C00P  441   2.156   4.560   0.373
    1LIG   C00O  442   2.232   4.681   0.371
    1LIG   C00K  443   2.017   5.026   0.370
    1LIG   N000  444   2.340   5.175   0.386
    1LIG   C00L  445   1.956   5.145   0.371
    1LIG   H004  446   2.201   5.846   0.293
    1LIG   C02Q  447   1.958   5.620   0.350
    1LIG   C00E  448   1.826   5.381   0.369
    1LIG   C030  449   1.532   5.617   0.390
    1LIG   O003  450   1.394   5.613   0.390
    1LIG   C02S  451   1.600   5.262   0.373
    1LIG   C038  452   1.317   5.498   0.383
    1LIG   C03L  453   1.176   5.497   0.381
    1LIG   H008  454   1.127   5.587   0.383
    1LIG   C02V  455   1.378   5.139   0.373
    1LIG   C03K  456   1.101   5.375   0.377
    1LIG   C0BK  457   0.960   5.377   0.375
    1LIG   H00T  458   0.913   5.468   0.375
    1LIG   C03H  459   1.161   5.005   0.374
    1LIG   C0BL  460   0.882   5.258   0.374
    1LIG   C0GU  461   0.741   5.273   0.374
    1LIG   H01O  462   0.698   5.366   0.374
    1LIG   C0GT  463   0.654   5.162   0.375
    1LIG   H01P  464   0.553   5.177   0.375
    1LIG   C0GS  465   0.708   5.033   0.375
    1LIG   C0GV  466   0.640   4.910   0.375
    1LIG   C0GW  467   0.502   4.883   0.376
    1LIG   H01Q  468   0.433   4.959   0.376
    1LIG   C0GX  469   0.460   4.749   0.376
    1LIG   H01R  470   0.361   4.725   0.376
    1LIG   O00L  471   0.554   4.649   0.375
    1LIG   C0GQ  472   0.733   4.805   0.375
    1LIG   C03A  473   1.102   4.872   0.374
    1LIG   C05L  474   0.690   4.666   0.375
    1LIG   C04W  475   0.764   4.034   0.375
    1LIG   C05I  476   0.703   3.904   0.377
    1LIG   C05O  477   0.562   3.896   0.380
    1LIG   C052  478   0.777   3.781   0.378
    1LIG   C04V  479   0.906   4.038   0.373
    1LIG   C04U  480   0.980   3.914   0.372
    1LIG   N009  481   0.486   4.013   0.379
    1LIG   C0GP  482   0.502   3.766   0.384
    1LIG   C05W  483   0.576   3.645   0.386
    1LIG   C07D  484   0.527   3.276   0.401
    1LIG   C06J  485   0.807   3.282   0.389
    1LIG   C05P  486   0.716   3.652   0.382
    1LIG   C05R  487   1.007   3.412   0.377
    1LIG   C04Z  488   0.918   3.786   0.374
    1LIG   C04C  489   1.207   3.546   0.370
    1LIG   C04G  490   1.413   3.679   0.367
    1LIG   C04J  491   1.544   3.925   0.368
    1LIG   C04T  492   1.120   3.915   0.369
    1LIG   N003  493   0.971   4.161   0.372
    1LIG   C04P  494   0.968   4.410   0.374
    1LIG   C03D  495   1.120   4.645   0.375
    1LIG   C021  496   1.392   4.651   0.373
    1LIG   C03F  497   1.322   4.284   0.372
    1LIG   C022  498   1.600   4.535   0.372
    1LIG   C02A  499   1.536   4.167   0.370
    1LIG   C023  500   1.810   4.420   0.372
    1LIG   C025  501   1.956   4.181   0.374
    1LIG   C02D  502   2.032   4.062   0.374
    1LIG   C02E  503   2.172   4.068   0.374
    1LIG   C02N  504   2.254   3.953   0.371
    1LIG   C04N  505   1.611   4.048   0.370
    1LIG   C02P  506   1.969   3.938   0.372
    1LIG   C04I  507   1.621   3.807   0.367
    1LIG   C044  508   1.773   3.569   0.365
    1LIG   C043  509   2.048   3.821   0.370
    1LIG   C05N  510   2.190   3.827   0.369
    1LIG   C09U  511   2.411   3.470   0.362
    1LIG   C09V  512   2.480   3.345   0.363
    1LIG   C09X  513   2.620   3.341   0.362
    1LIG   C09Y  514   2.702   3.225   0.365
    1LIG   C0A1  515   2.635   3.105   0.368
    1LIG   C0A2  516   2.492   3.103   0.366
    1LIG   C0A4  517   2.424   2.982   0.367
    1LIG   C071  518   2.282   2.977   0.364
    1LIG   C0A5  519   2.215   2.853   0.364
    1LIG   C0A9  520   2.293   2.736   0.369
    1LIG   C0A8  521   2.434   2.743   0.372
    1LIG   C0AP  522   2.509   2.626   0.378
    1LIG   C0BY  523   2.649   2.635   0.381
    1LIG   C0BX  524   2.723   2.754   0.380
    1LIG   C0C2  525   2.866   2.756   0.384
    1LIG   C0C3  526   2.938   2.881   0.381
    1LIG   C0CT  527   2.862   2.998   0.375
    1LIG   C0C1  528   2.931   2.630   0.390
    1LIG   C0C0  529   2.853   2.507   0.390
    1LIG   C0A7  530   2.646   2.871   0.374
    1LIG   C0BZ  531   2.718   2.517   0.386
    1LIG   C0BO  532   2.657   2.395   0.387
    1LIG   C0BN  533   2.520   2.383   0.384
    1LIG   C0BM  534   2.466   2.255   0.386
    1LIG   C0B9  535   2.323   2.248   0.384
    1LIG   C0B8  536   2.243   2.365   0.380
    1LIG   C0AD  537   2.305   2.491   0.376
    1LIG   C0AF  538   2.101   2.357   0.378
    1LIG   C0AG  539   2.030   2.234   0.383
    1LIG   C0B7  540   2.114   2.119   0.387
    1LIG   C0AE  541   2.030   2.477   0.371
    1LIG   C0AB  542   2.091   2.604   0.367
    1LIG   C0AA  543   2.013   2.722   0.362
    1LIG   C0AJ  544   1.893   2.470   0.369
    1LIG   C0AK  545   1.820   2.584   0.363
    1LIG   C06W  546   1.690   2.548   0.365
    1LIG   C0AI  547   1.814   2.357   0.376
    1LIG   C0BP  548   2.746   2.291   0.390
    1LIG   C0BQ  549   2.702   2.154   0.388
    1LIG   C0BW  550   2.444   2.500   0.379
    1LIG   C0AC  551   2.230   2.610   0.370
    1LIG   C0A6  552   2.503   2.865   0.371
    1LIG   C0A3  553   2.717   2.991   0.372
    1LIG   C09Z  554   2.845   3.231   0.365
    1LIG   C09W  555   2.415   3.222   0.364
    1LIG   C072  556   2.273   3.218   0.362
    1LIG   C09H  557   2.683   3.461   0.358
    1LIG   C09G  558   2.817   3.465   0.357
    1LIG   C09P  559   2.851   3.595   0.353
    1LIG   C02O  560   2.616   3.885   0.360
    1LIG   C02M  561   2.396   3.967   0.369
    1LIG   C02F  562   2.231   4.194   0.376
    1LIG   C00W  563   2.218   4.438   0.376
    1LIG   C01R  564   2.375   4.685   0.371
    1LIG   C01N  565   2.548   4.364   0.373
    1LIG   C01L  566   2.775   4.337   0.367
    1LIG   C01H  567   3.038   4.561   0.369
    1LIG   C01K  568   2.688   4.697   0.368
    1LIG   C01E  569   2.805   4.940   0.371
    1LIG   C01G  570   3.111   4.688   0.370
    1LIG   C01D  571   2.871   5.064   0.373
    1LIG   C01A  572   3.010   5.305   0.369
    1LIG   H001  573   3.061   5.394   0.366
    1LIG   C01F  574   3.237   4.945   0.368
    1LIG   C03P  575   3.521   4.969   0.369
    1LIG   C03T  576   3.547   4.730   0.372
    1LIG   C08I  577   3.700   4.486   0.374
    1LIG   C08J  578   3.770   4.355   0.374
    1LIG   C08L  579   3.744   4.110   0.375
    1LIG   C093  580   3.716   3.855   0.376
    1LIG   C08Z  581   3.442   3.902   0.370
    1LIG   C09T  582   3.503   3.397   0.377
    1LIG   C09S  583   3.265   3.665   0.361
    1LIG   C09Q  584   2.987   3.619   0.353
    1LIG   C09F  585   2.903   3.356   0.360
    1LIG   C09E  586   3.280   3.310   0.371
    1LIG   C0A0  587   2.933   3.121   0.371
    1LIG   C0CU  588   3.082   2.892   0.385
    1LIG   C0CR  589   3.146   2.766   0.392
    1LIG   C0CZ  590   3.289   2.768   0.395
    1LIG   C0DA  591   3.418   3.268   0.377
    1LIG   C0D9  592   3.684   3.006   0.382
    1LIG   H00V  593   3.757   3.075   0.377
    1LIG   C0CY  594   3.359   2.891   0.390
    1LIG   C0DF  595   3.714   2.866   0.388
    1LIG   C0DE  596   3.804   2.754   0.390
    1LIG   C0GI  597   3.945   2.745   0.388
    1LIG   H01K  598   4.002   2.829   0.386
    1LIG   C0GJ  599   4.004   2.617   0.391
    1LIG   H01J  600   4.105   2.608   0.390
    1LIG   O00I  601   3.927   2.502   0.394
    1LIG   C0GH  602   3.789   2.497   0.396
    1LIG   C0GG  603   3.724   2.366   0.399
    1LIG   O00G  604   3.793   2.246   0.399
    1LIG   C0G8  605   3.741   2.116   0.402
    1LIG   C0G9  606   3.830   2.007   0.404
    1LIG   H01G  607   3.930   2.024   0.400
    1LIG   C0GA  608   3.782   1.875   0.414
    1LIG   H01H  609   3.852   1.800   0.417
    1LIG   C0GB  610   3.644   1.845   0.422
    1LIG   C0EP  611   3.548   1.952   0.413
    1LIG   C0E8  612   3.408   1.908   0.417
    1LIG   C0CK  613   3.279   1.963   0.407
    1LIG   C0CL  614   3.276   2.098   0.398
    1LIG   C0E9  615   3.384   2.191   0.400
    1LIG   C0GE  616   3.525   2.206   0.402
    1LIG   C0E7  617   3.370   1.778   0.440
    1LIG   C0CJ  618   3.231   1.761   0.451
    1LIG   C0E6  619   3.190   1.634   0.500
    1LIG   H00Y  620   3.092   1.618   0.525
    1LIG   C0EO  621   3.282   1.528   0.514
    1LIG   H011  622   3.248   1.436   0.544
    1LIG   C0G6  623   3.421   1.547   0.488
    1LIG   C0G5  624   3.516   1.444   0.494
    1LIG   H01F  625   3.488   1.347   0.513
    1LIG   C0GD  626   3.652   1.474   0.472
    1LIG   H01I  627   3.722   1.400   0.474
    1LIG   O00H  628   3.690   1.604   0.449
    1LIG   C0EQ  629   3.466   1.677   0.457
    1LIG   C0GC  630   3.603   1.709   0.441
    1LIG   C0G7  631   3.601   2.088   0.405
    1LIG   C0DD  632   3.732   2.631   0.395
    1LIG   C0GF  633   3.584   2.343   0.401
    1LIG   C0CO  634   3.316   2.305   0.402
    1LIG   C0D0  635   3.356   2.644   0.401
    1LIG   C0C4  636   3.072   2.640   0.395
    1LIG   C0CN  637   3.186   2.286   0.401
    1LIG   C0CP  638   2.866   2.363   0.393
    1LIG   C0CM  639   3.152   2.161   0.397
    1LIG   C0CI  640   3.162   1.880   0.412
    1LIG   C0CD  641   2.723   1.667   0.347
    1LIG   C0BR  642   2.790   2.037   0.386
    1LIG   C0CS  643   2.555   2.142   0.387
    1LIG   C0B6  644   2.258   2.124   0.386
    1LIG   C0CG  645   2.504   1.779   0.373
    1LIG   C0CF  646   2.581   1.661   0.361
    1LIG   C0E5  647   2.734   1.421   0.331
    1LIG   C0DT  648   2.607   1.178   0.363
    1LIG   C0DL  649   2.307   1.404   0.380
    1LIG   C0DM  650   2.164   1.393   0.385
    1LIG   C0DY  651   2.179   1.152   0.402
    1LIG   C0DU  652   2.540   1.059   0.385
    1LIG   C0F0  653   2.556   0.819   0.389
    1LIG   C0F4  654   2.446   0.567   0.380
    1LIG   C0FG  655   2.158   0.790   0.420
    1LIG   O00B  656   2.229   0.449   0.371
    1LIG   C0FN  657   2.031   0.761   0.402
    1LIG   C0DZ  658   2.116   1.025   0.410
    1LIG   O00C  659   1.762   1.119   0.383
    1LIG   C0FR  660   1.683   1.230   0.379
    1LIG   O00D  661   1.561   1.204   0.374
    1LIG   C0E0  662   2.100   1.267   0.392
    1LIG   C0E3  663   1.738   1.362   0.381
    1LIG   C0AW  664   1.660   1.482   0.382
    1LIG   C0AV  665   1.518   1.495   0.374
    1LIG   H00Q  666   1.458   1.414   0.362
    1LIG   C0AU  667   1.452   1.620   0.382
    1LIG   H00R  668   1.352   1.623   0.367
    1LIG   C0AT  669   1.526   1.739   0.403
    1LIG   C0AS  670   1.502   1.877   0.423
    1LIG   C0AR  671   1.376   1.928   0.456
    1LIG   C0BE  672   1.661   1.726   0.398
    1LIG   C0DN  673   2.084   1.508   0.384
    1LIG   C0AX  674   1.732   1.605   0.389
    1LIG   C0BB  675   2.073   1.752   0.386
    1LIG   C0BD  676   1.716   1.850   0.400
    1LIG   C0B2  677   2.049   1.996   0.389
    1LIG   C0AH  678   1.882   2.231   0.384
    1LIG   C0BF  679   1.622   1.953   0.408
    1LIG   C0AL  680   1.681   2.409   0.374
    1LIG   C07U  681   1.418   2.185   0.415
    1LIG   C0AQ  682   1.348   2.066   0.445
    1LIG   C0BG  683   1.256   1.859   0.493
    1LIG   C0FY  684   0.930   1.976   0.482
    1LIG   C0BJ  685   1.179   1.741   0.524
    1LIG   H00S  686   1.213   1.646   0.539
    1LIG   C0FZ  687   0.842   1.871   0.484
    1LIG   C07S  688   0.904   2.106   0.439
    1LIG   C0G1  689   0.550   2.039   0.341
    1LIG   C07K  690   0.594   2.383   0.204
    1LIG   C07H  691   0.844   2.354   0.336
    1LIG   C06B  692   0.766   2.681   0.395
    1LIG   C06N  693   0.969   2.784   0.381
    1LIG   C066  694   1.099   2.417   0.384
    1LIG   C062  695   1.373   2.550   0.373
    1LIG   C05Y  696   1.192   2.901   0.372
    1LIG   C061  697   1.465   2.650   0.365
    1LIG   C05H  698   1.515   2.998   0.361
    1LIG   C06V  699   1.601   2.655   0.362
    1LIG   C06Y  700   1.872   2.713   0.360
    1LIG   C05C  701   1.774   3.075   0.358
    1LIG   C06Z  702   2.074   2.848   0.361
    1LIG   C070  703   2.205   3.095   0.362
    1LIG   C05B  704   1.848   3.200   0.359
    1LIG   C057  705   1.988   3.454   0.363
    1LIG   C059  706   2.201   3.339   0.362
    4.10539   5.95025   0.54397
