PolyParGen GENERATED GRO FILE 2024/07/08 12:43:36UTC
   188
    1NB4   C00H    1   1.635   0.738   1.695
    1NB4   O00B    2   1.600   0.760   1.826
    1NB4   C022    3   1.608   0.652   1.909
    1NB4   C023    4   1.485   0.575   1.918
    1NB4   H00U    5   1.399   0.638   1.893
    1NB4   H00T    6   1.467   0.540   2.019
    1NB4   O00C    7   1.488   0.467   1.825
    1NB4   H00S    8   1.401   0.423   1.834
    1NB4   C024    9   1.724   0.631   1.978
    1NB4   O00D   10   1.816   0.724   1.955
    1NB4   H00V   11   1.900   0.675   1.939
    1NB4   C025   12   1.762   0.529   2.070
    1NB4   C026   13   1.874   0.550   2.155
    1NB4   H00Y   14   1.925   0.639   2.154
    1NB4   C027   15   1.923   0.452   2.243
    1NB4   H00W   16   2.006   0.470   2.299
    1NB4   C028   17   1.856   0.329   2.255
    1NB4   O00H   18   1.903   0.237   2.343
    1NB4   H01B   19   1.825   0.185   2.371
    1NB4   C029   20   1.742   0.304   2.176
    1NB4   O00E   21   1.674   0.186   2.191
    1NB4   C02H   22   1.696   0.092   2.085
    1NB4   H01A   23   1.802   0.068   2.072
    1NB4   H019   24   1.655   0.130   1.991
    1NB4   H018   25   1.643   0.000   2.109
    1NB4   C02A   26   1.699   0.402   2.083
    1NB4   H00X   27   1.620   0.376   2.025
    1NB4   C00G   28   1.769   0.766   1.656
    1NB4   H00Z   29   1.834   0.805   1.724
    1NB4   C00F   30   1.814   0.743   1.525
    1NB4   C00E   31   1.952   0.771   1.482
    1NB4   C00D   32   2.089   0.818   1.513
    1NB4   C00C   33   2.172   0.870   1.617
    1NB4   H010   34   2.133   0.883   1.710
    1NB4   N000   35   2.308   0.902   1.594
    1NB4   C00B   36   2.376   0.889   1.472
    1NB4   C00A   37   2.301   0.840   1.366
    1NB4   C009   38   2.355   0.820   1.234
    1NB4   C008   39   2.271   0.768   1.134
    1NB4   C007   40   2.324   0.748   1.007
    1NB4   C006   41   2.251   0.697   0.905
    1NB4   C005   42   2.127   0.652   0.872
    1NB4   C004   43   2.023   0.646   0.956
    1NB4   C003   44   1.896   0.600   0.927
    1NB4   C01V   45   1.831   0.550   0.815
    1NB4   C00U   46   1.694   0.515   0.832
    1NB4   C00T   47   1.627   0.532   0.960
    1NB4   C00S   48   1.699   0.583   1.068
    1NB4   C00R   49   1.654   0.608   1.200
    1NB4   C013   50   1.522   0.580   1.228
    1NB4   C00Z   51   1.439   0.527   1.122
    1NB4   C010   52   1.305   0.502   1.163
    1NB4   H004   53   1.240   0.464   1.094
    1NB4   C011   54   1.261   0.527   1.296
    1NB4   C014   55   1.128   0.499   1.337
    1NB4   O002   56   1.037   0.476   1.242
    1NB4   H003   57   1.061   0.388   1.207
    1NB4   C015   58   1.086   0.493   1.466
    1NB4   O001   59   1.170   0.513   1.567
    1NB4   H002   60   1.139   0.595   1.610
    1NB4   C016   61   0.948   0.463   1.503
    1NB4   H001   62   0.913   0.375   1.448
    1NB4   H000   63   0.943   0.438   1.610
    1NB4   O000   64   0.865   0.578   1.476
    1NB4   C017   65   0.733   0.556   1.504
    1NB4   C02O   66   0.684   0.579   1.635
    1NB4   H01H   67   0.747   0.615   1.707
    1NB4   C02P   68   0.548   0.553   1.668
    1NB4   C02L   69   0.469   0.504   1.564
    1NB4   C02K   70   0.336   0.470   1.576
    1NB4   C02S   71   0.267   0.485   1.707
    1NB4   H01F   72   0.183   0.553   1.695
    1NB4   C02R   73   0.357   0.537   1.812
    1NB4   H01D   74   0.318   0.551   1.903
    1NB4   H01E   75   0.229   0.387   1.738
    1NB4   C02J   76   0.298   0.425   1.449
    1NB4   N005   77   0.406   0.435   1.366
    1NB4   H01C   78   0.406   0.411   1.272
    1NB4   C02I   79   0.166   0.375   1.408
    1NB4   H01N   80   0.177   0.301   1.329
    1NB4   H01M   81   0.115   0.328   1.493
    1NB4   O00J   82   0.086   0.483   1.360
    1NB4   H01L   83   0.000   0.442   1.337
    1NB4   C02M   84   0.512   0.483   1.434
    1NB4   C02Q   85   0.487   0.569   1.793
    1NB4   H01G   86   0.540   0.604   1.869
    1NB4   C02N   87   0.646   0.510   1.401
    1NB4   O00I   88   0.691   0.490   1.273
    1NB4   C02T   89   0.679   0.607   1.190
    1NB4   H01K   90   0.737   0.691   1.230
    1NB4   H01J   91   0.575   0.637   1.178
    1NB4   H01I   92   0.719   0.583   1.091
    1NB4   N001   93   1.351   0.579   1.386
    1NB4   C012   94   1.481   0.609   1.363
    1NB4   C00J   95   1.573   0.663   1.464
    1NB4   C00L   96   1.742   0.661   1.301
    1NB4   C00M   97   1.872   0.688   1.264
    1NB4   C001   98   1.911   0.664   1.135
    1NB4   C00Y   99   1.492   0.502   0.986
    1NB4   C00X  100   1.427   0.450   0.870
    1NB4   H005  101   1.328   0.424   0.877
    1NB4   C00W  102   1.491   0.434   0.741
    1NB4   O003  103   1.418   0.384   0.636
    1NB4   C018  104   1.355   0.488   0.559
    1NB4   H008  105   1.428   0.555   0.513
    1NB4   H007  106   1.284   0.546   0.619
    1NB4   H006  107   1.299   0.439   0.478
    1NB4   C00V  108   1.629   0.465   0.717
    1NB4   O004  109   1.702   0.452   0.597
    1NB4   C019  110   1.838   0.487   0.581
    1NB4   N002  111   1.937   0.489   0.483
    1NB4   H009  112   1.921   0.459   0.392
    1NB4   C01A  113   2.061   0.537   0.526
    1NB4   C01B  114   2.198   0.566   0.479
    1NB4   O008  115   2.230   0.544   0.347
    1NB4   C01W  116   2.203   0.652   0.270
    1NB4   C020  117   2.068   0.663   0.216
    1NB4   H00O  118   2.071   0.693   0.111
    1NB4   H00N  119   2.017   0.567   0.221
    1NB4   O009  120   1.992   0.758   0.290
    1NB4   H00M  121   1.906   0.764   0.243
    1NB4   C01X  122   2.301   0.741   0.247
    1NB4   H00L  123   2.390   0.721   0.286
    1NB4   C01Y  124   2.289   0.864   0.170
    1NB4   H00K  125   2.266   0.838   0.066
    1NB4   H00J  126   2.204   0.922   0.208
    1NB4   C01Z  127   2.412   0.949   0.174
    1NB4   C02E  128   2.512   0.934   0.076
    1NB4   H012  129   2.501   0.866   0.000
    1NB4   C02D  130   2.628   1.013   0.080
    1NB4   H013  131   2.700   1.003   0.008
    1NB4   C02C  132   2.646   1.107   0.183
    1NB4   O00F  133   2.758   1.183   0.185
    1NB4   H014  134   2.733   1.266   0.139
    1NB4   C02B  135   2.548   1.123   0.283
    1NB4   O00G  136   2.562   1.217   0.381
    1NB4   C02G  137   2.628   1.167   0.499
    1NB4   H017  138   2.729   1.131   0.477
    1NB4   H016  139   2.570   1.087   0.546
    1NB4   H015  140   2.636   1.249   0.571
    1NB4   C02F  141   2.431   1.044   0.277
    1NB4   H011  142   2.359   1.056   0.349
    1NB4   C01C  143   2.303   0.619   0.569
    1NB4   C01D  144   2.444   0.660   0.570
    1NB4   H00I  145   2.499   0.651   0.485
    1NB4   N003  146   2.511   0.712   0.687
    1NB4   C01E  147   2.453   0.731   0.814
    1NB4   C01R  148   2.254   0.639   0.695
    1NB4   C01T  149   2.031   0.564   0.659
    1NB4   C01U  150   1.900   0.536   0.693
    1NB4   C002  151   1.830   0.614   1.043
    1NB4   C000  152   2.035   0.687   1.086
    1NB4   C01S  153   2.128   0.615   0.741
    1NB4   C01Q  154   2.326   0.689   0.800
    1NB4   C01F  155   2.456   0.772   0.957
    1NB4   C01G  156   2.540   0.826   1.063
    1NB4   C01L  157   2.675   0.861   1.047
    1NB4   C01M  158   2.758   0.859   0.936
    1NB4   H00E  159   2.732   0.831   0.841
    1NB4   C01N  160   2.884   0.905   0.977
    1NB4   N004  161   2.877   0.933   1.109
    1NB4   H00D  162   2.950   0.966   1.163
    1NB4   C01O  163   3.003   0.921   0.893
    1NB4   H00C  164   3.089   0.947   0.955
    1NB4   H00B  165   3.024   0.828   0.840
    1NB4   O005  166   2.982   1.025   0.799
    1NB4   H00A  167   3.068   1.037   0.755
    1NB4   C01K  168   2.753   0.910   1.154
    1NB4   C01J  169   2.701   0.929   1.284
    1NB4   O006  170   2.781   0.980   1.383
    1NB4   C01P  171   2.862   0.880   1.447
    1NB4   H00H  172   2.933   0.836   1.377
    1NB4   H00G  173   2.801   0.801   1.492
    1NB4   H00F  174   2.919   0.928   1.527
    1NB4   C01I  175   2.566   0.899   1.310
    1NB4   C00P  176   2.137   0.739   1.167
    1NB4   C00O  177   2.093   0.762   1.297
    1NB4   C01H  178   2.489   0.848   1.200
    1NB4   O007  179   2.508   0.917   1.437
    1NB4   C00Q  180   2.167   0.810   1.396
    1NB4   C00N  181   1.968   0.739   1.348
    1NB4   C00K  182   1.710   0.690   1.434
    1NB4   C00I  183   1.538   0.695   1.599
    1NB4   O00A  184   1.407   0.687   1.638
    1NB4   C021  185   1.339   0.814   1.627
    1NB4   H00R  186   1.336   0.849   1.523
    1NB4   H00Q  187   1.386   0.891   1.689
    1NB4   H00P  188   1.237   0.801   1.662
    3.08902   1.26580   2.37149
 
